LAMMPS (3 Mar 2020)

# ---------- 1. Initialize simulation ----------
units metal
atom_style atomic
dimension 3
boundary p p p
read_data /home/modeler/RemLabs/Project/arrhenius_4/T1800.0/n3_T1800.0_timestep3.000000e-03_eqsteps3200_time600_rseed3335/20201205-151451/lammps.data
  orthogonal box = (0 0 0) to (17.469 17.469 17.469)
  1 by 1 by 1 MPI processor grid
  reading atoms ...
  217 atoms
  read_data CPU = 0.0010446 secs

pair_style meam/c
pair_coeff * * library.meam Li Si LiSi.meam Li Si
Reading potential file library.meam with DATE: 2012-06-29
Reading potential file LiSi.meam with DATE: 2020-11-07

group Li type 1
1 atoms in group Li
group Si type 2
216 atoms in group Si

velocity all create 1800.0 3335 dist gaussian

# ---------- 2. Specify equilibration ensemble  ----------
fix 1 all npt temp 1800.0 1800.0 0.15 tchain 2 iso 1.0 1.0 1.0 pchain 2
# fix 1 all nvt temp 1800.0 1800.0 0.15

# ---------- 3. Run equilibration -------------
timestep 0.003
run 3200
Neighbor list info ...
  update every 1 steps, delay 10 steps, check yes
  max neighbors/atom: 2000, page size: 100000
  master list distance cutoff = 6
  ghost atom cutoff = 6
  binsize = 3, bins = 6 6 6
  2 neighbor lists, perpetual/occasional/extra = 2 0 0
  (1) pair meam/c, perpetual
      attributes: full, newton on
      pair build: full/bin/atomonly
      stencil: full/bin/3d
      bin: standard
  (2) pair meam/c, perpetual, half/full from (1)
      attributes: half, newton on
      pair build: halffull/newton
      stencil: none
      bin: none
Per MPI rank memory allocation (min/avg/max) = 8.895 | 8.895 | 8.895 Mbytes
Step Temp E_pair E_mol TotEng Press Volume 
       0         1800   -951.04357            0   -900.78722   -114161.75    5330.9442 
    3200    1874.6882   -940.30437            0   -887.96272    3590.7721    4651.2419 
Loop time of 2.26262 on 1 procs for 3200 steps with 217 atoms

Performance: 366.584 ns/day, 0.065 hours/ns, 1414.292 timesteps/s
100.0% CPU use with 1 MPI tasks x no OpenMP threads

MPI task timing breakdown:
Section |  min time  |  avg time  |  max time  |%varavg| %total
---------------------------------------------------------------
Pair    | 2.1546     | 2.1546     | 2.1546     |   0.0 | 95.23
Neigh   | 0.058311   | 0.058311   | 0.058311   |   0.0 |  2.58
Comm    | 0.01517    | 0.01517    | 0.01517    |   0.0 |  0.67
Output  | 2.4666e-05 | 2.4666e-05 | 2.4666e-05 |   0.0 |  0.00
Modify  | 0.029467   | 0.029467   | 0.029467   |   0.0 |  1.30
Other   |            | 0.005056   |            |       |  0.22

Nlocal:    217 ave 217 max 217 min
Histogram: 1 0 0 0 0 0 0 0 0 0
Nghost:    949 ave 949 max 949 min
Histogram: 1 0 0 0 0 0 0 0 0 0
Neighs:    4097 ave 4097 max 4097 min
Histogram: 1 0 0 0 0 0 0 0 0 0
FullNghs:  8194 ave 8194 max 8194 min
Histogram: 1 0 0 0 0 0 0 0 0 0

Total # of neighbors = 8194
Ave neighs/atom = 37.7604
Neighbor list builds = 99
Dangerous builds = 0

# ---------- 4. Describe computed properties----------
compute msdli Li msd
compute msdsi Si msd
thermo_style custom step pe ke etotal temp press density c_msdli[4] c_msdsi[4]
thermo 100

# ---------- 3. Run production -------------
timestep 0.003
run 200000
Per MPI rank memory allocation (min/avg/max) = 9.663 | 9.663 | 9.663 Mbytes
Step PotEng KinEng TotEng Temp Press Density c_msdli[4] c_msdsi[4] 
    3200   -940.30437    52.341652   -887.96272    1874.6882    3590.7721    2.1683044            0 4.0747684e-32 
    3300   -943.34513    49.053318   -894.29181    1756.9119   -13576.779    2.1342891   0.13875986   0.11488598 
    3400   -940.22805    53.189395   -887.03865    1905.0512     4394.048    2.1675828   0.27796328    0.1273095 
    3500   -935.98541    51.289927   -884.69548    1837.0192    10532.767    2.1736284   0.80880212    0.1265137 
    3600   -941.74709    47.656818   -894.09027    1706.8944   -6667.4501     2.144318   0.23572484   0.14896637 
    3700   -937.56627    47.706683   -889.85958    1708.6804    1171.5459    2.1563124   0.19961881   0.12760946 
    3800   -938.34269    53.525422   -884.81727    1917.0865    7862.6878    2.1711129  0.015564462   0.12170127 
    3900    -946.6075    52.312763   -894.29474    1873.6535   -8837.0722    2.1491248   0.10559406   0.13993641 
    4000     -939.279    45.775934   -893.50307    1639.5279   -4510.5819    2.1465347   0.39642999   0.13171573 
    4100   -940.70837    54.573495   -886.13488    1954.6247      8950.97    2.1809988   0.28223089   0.12700325 
    4200   -942.39151    50.007654   -892.38386    1791.0928   -1451.3279     2.159622   0.23506738   0.10693405 
    4300   -944.37556    46.438649   -897.93691     1663.264   -9250.2677    2.1434435   0.31391012    0.1324066 
    4400   -939.75315    51.864606   -887.88854    1857.6021    3688.2686    2.1673642   0.11996519   0.14630049 
    4500   -939.60293    50.975148   -888.62778    1825.7449    8517.5745    2.1790027   0.25158919   0.16143751 
    4600   -942.39196    46.498985   -895.89297     1665.425   -8288.9153    2.1419565   0.13183495   0.17620804 
    4700   -936.66079    48.719919   -887.94088    1744.9708   -216.74376    2.1490359   0.42863434   0.16324922 
    4800   -934.99556    49.301934   -885.69362    1765.8165    13683.911    2.1797243   0.11409828   0.16421324 
    4900   -941.29358    47.424893   -893.86868    1698.5877   -3027.7156    2.1522744   0.63298791   0.14676787 
    5000   -939.11939    50.763252   -888.35614    1818.1556   -6174.1045    2.1385856  0.073915893   0.14206343 
    5100   -940.89184    58.031455   -882.86038    2078.4763    2422.7657    2.1603317   0.07065676   0.13960057 
    5200   -943.34864    50.147571   -893.20107    1796.1041    4951.1103    2.1760002   0.51960471   0.13745363 
    5300   -939.13408    48.294939   -890.83914    1729.7496   -7732.7023    2.1357055   0.21315372   0.15576287 
    5400   -940.15425     55.29477   -884.85948    1980.4581   -1827.1125    2.1489209   0.37501815   0.15609051 
    5500   -948.09689    54.110531   -893.98635     1938.043    10029.567    2.1937607   0.18970727   0.14198394 
    5600   -946.22433    53.922058   -892.30227    1931.2926   -9726.5349    2.1426444   0.13814622    0.1474726 
    5700   -937.94821    50.407399   -887.54081    1805.4102   -6930.6207    2.1383232   0.49508445   0.15802004 
    5800   -938.38093    45.419071   -892.96185    1626.7464    11934.007    2.1869494   0.28841862   0.15369413 
    5900   -939.88125    43.610185   -896.27107    1561.9587    4663.8614    2.1736459   0.98893157   0.13662728 
    6000   -942.90874    55.678111   -887.23063     1994.188   -12145.228    2.1290059   0.45559464   0.13224362 
    6100   -938.11636    47.036094   -891.08027    1684.6623      4806.21    2.1705749    0.3822246   0.15120135 
    6200   -939.76032    45.100195   -894.66013    1615.3254    9428.1508    2.1867692   0.21461663   0.15123932 
    6300   -934.38653     49.75504   -884.63149    1782.0451   -8136.3747    2.1281462   0.28630944   0.16287213 
    6400   -943.05908    52.741349   -890.31774    1889.0039   -1959.6045    2.1589458   0.43628677   0.13083246 
    6500   -942.11165    49.653797   -892.45785    1778.4189    7391.2875    2.1844324   0.48145968   0.14264724 
    6600   -937.79148     53.31312   -884.47836    1909.4826   -4633.5702    2.1450252   0.53535504   0.15082349 
    6700   -938.30892    50.151116   -888.15781    1796.2311    -4975.609    2.1455457    0.3662003   0.14683981 
    6800   -941.45216     48.77803   -892.67413    1747.0521    4888.8693    2.1764854   0.24565808   0.13269868 
    6900   -941.53589    55.031826   -886.50406    1971.0404    2936.0753    2.1677896   0.17357512   0.12599252 
    7000   -932.93642    46.392759   -886.54366    1661.6204   -5035.9285    2.1371403   0.25896549   0.15369217 
    7100   -943.41188    48.262343   -895.14954    1728.5821    1518.7393    2.1729951   0.20540227   0.13323029 
    7200    -944.3577     56.62697   -887.73073    2028.1727    4460.6458    2.1793414  0.024317942    0.1375154 
    7300   -940.72823    52.236305   -888.49193     1870.915   -6575.1836    2.1438919  0.094512671   0.15025915 
    7400   -944.40797    46.299755   -898.10821    1658.2893   -3450.8865    2.1642675    0.4700873   0.14384404 
    7500   -941.19247    51.044093   -890.14838    1828.2143    12593.216    2.1945918   0.40781927   0.14078328 
    7600   -937.92035    50.972981   -886.94737    1825.6673   -1073.0063    2.1514955   0.37701125   0.14841739 
    7700   -939.87108    47.630866   -892.24021    1705.9649    -21827.16     2.105122   0.20915502   0.14854263 
    7800    -942.8936    51.260029   -891.63357    1835.9483    15624.943    2.2058976   0.17374766   0.15659675 
    7900   -940.37192     57.79551   -882.57641    2070.0256    7086.6893    2.1783615   0.10868635   0.15896865 
    8000   -940.43856    51.854669   -888.58389    1857.2462   -16864.166    2.1217109   0.21253026   0.15992931 
    8100    -938.1716    45.163237   -893.00836    1617.5834    1710.8714    2.1679196   0.30033381   0.15463599 
    8200   -939.41398    51.566483    -887.8475    1846.9244    14921.305    2.1999874    1.4393827   0.18431675 
    8300   -932.97044     49.03532   -883.93512    1756.2673   -7421.2215    2.1296731    4.1402613   0.20075953 
    8400   -941.55241    48.015196   -893.53721    1719.7302   -4759.7274    2.1513144    5.7609955   0.17820626 
    8500   -941.18644    51.428152   -889.75829    1841.9699     9693.006    2.1883294    4.9636521    0.1675466 
    8600   -933.05042    49.733303   -883.31711    1781.2666    800.94147    2.1476107    7.4428923   0.15987331 
    8700    -936.3891    46.116325   -890.27277    1651.7195   -9822.0836    2.1342937    6.7507044   0.14872735 
    8800   -943.14748    50.990599   -892.15688    1826.2983     4170.898    2.1775673    6.9110445   0.12484517 
    8900   -937.24706    52.235752   -885.01131    1870.8952    7544.0962    2.1717195    7.9642166   0.14783143 
    9000    -936.7955    47.449146   -889.34635    1699.4563    -8558.785    2.1320773    6.0650148   0.15495812 
    9100   -942.40325    47.357637   -895.04562    1696.1788   -25.343656    2.1629235    6.1471071   0.13712597 
    9200   -938.32375    52.282542   -886.04121     1872.571    10736.837    2.1799489    7.3456239   0.14105992 
    9300   -937.37872    47.570129   -889.80859    1703.7895   -3196.1595    2.1479549    8.0073261   0.14362285 
    9400   -940.99822    43.749192   -897.24902    1566.9374   -4647.5439    2.1543219    7.4910385   0.12465213 
    9500   -939.73786    51.547809   -888.19005    1846.2556    7524.5034    2.1761184    9.0114528    0.1489796 
    9600   -936.02918    48.026615   -888.00256    1720.1392    4988.1636    2.1649337    8.6406519   0.16377362 
    9700   -945.41937      49.2148   -896.20457    1762.6957   -8767.8088    2.1486444    7.4354084   0.13914253 
    9800   -939.93245    50.992805   -888.93964    1826.3774    2108.0555    2.1621712    9.6283079   0.15091136 
    9900   -938.06923    51.915648   -886.15359    1859.4303    5265.2333    2.1684595    7.8506088   0.15837944 
   10000   -942.33075    47.406866   -894.92389     1697.942   -2271.6682    2.1558867    7.8081336   0.13098231 
   10100   -942.69279    53.750542   -888.94224    1925.1495   -3786.6773    2.1522198    7.7753427   0.14395755 
   10200   -933.43821    48.637806    -884.8004    1742.0298    6237.4305    2.1594272    8.4905681   0.15999906 
   10300   -943.30058    49.016838   -894.28375    1755.6054       2055.7    2.1698652    6.5387275   0.13027716 
   10400   -938.27461    48.932565   -889.34205     1752.587   -1539.0358    2.1528305    9.2812033   0.15161534 
   10500   -938.53361     53.56872   -884.96489    1918.6373   -1992.6394    2.1496782    9.0714085   0.16073767 
   10600   -945.69196    50.755417   -894.93655     1817.875     1070.486    2.1778449    7.2131943   0.16221313 
   10700   -940.24955    50.425967   -889.82358    1806.0753   -1594.5566    2.1577586    8.0947472   0.18983806 
   10800     -940.494    54.032345   -886.46166    1935.2426   -4906.9781    2.1475983    7.6643165   0.17359024 
   10900     -942.877    46.852906   -896.02409    1678.1012    5453.7308    2.1806871    10.103871   0.15100168 
   11000   -940.89969    51.204372   -889.69532    1833.9549   -26.065852    2.1631932    8.1871583   0.15740768 
   11100   -939.08062    51.793187   -887.28743    1855.0441   -2378.4397     2.146443    8.5057464   0.14382718 
   11200   -942.09012    45.957395   -896.13273    1646.0272    3331.2806    2.1723545    6.4786587    0.1590014 
   11300   -938.90771    48.088127   -890.81959    1722.3423    4301.0265    2.1674648    8.2818893   0.16631683 
   11400    -940.5447    53.655031   -886.88967    1921.7286   -3802.0205    2.1419615    8.4755882   0.15245151 
   11500   -947.26632     52.06254   -895.20378    1864.6914   -8070.7282     2.154525    6.5823612   0.15375897 
   11600   -938.53452    46.732284   -891.80224    1673.7809     10446.13     2.180158     8.809439   0.15106793 
   11700   -935.80929    50.684294     -885.125    1815.3276   -665.53929    2.1481095    7.7512821   0.15960815 
   11800   -943.24253    49.417723    -893.8248    1769.9636   -9735.7072    2.1377363    7.5533537   0.15084547 
   11900   -943.54318    52.145075    -891.3981    1867.6475    5043.6273    2.1779622    6.3379106   0.15812925 
   12000   -936.12896    53.658852   -882.47011    1921.8655    5828.2907    2.1646059    7.6907042   0.16179832 
   12100    -941.2075    49.974193   -891.23331    1789.8944   -8661.9309    2.1389427      8.36332    0.1603081 
   12200   -941.12073    48.787158   -892.33357    1747.3791   -2247.5978     2.162748    6.6663993   0.15723158 
   12300   -938.67324    55.614145    -883.0591     1991.897    9031.7889    2.1753623    7.5712675   0.15116318 
   12400   -940.12458     50.33953   -889.78504    1802.9794   -5806.6494    2.1459079    8.0882692    0.1548939 
   12500   -942.98386    48.261549   -894.72231    1728.5537   -8881.5016     2.144801    5.2746058   0.16332387 
   12600   -939.42601    53.608487   -885.81752    1920.0616     7766.911    2.1729506    8.1740627   0.13172754 
   12700   -942.95832    52.610055   -890.34826    1884.3014    -307.8149     2.161445    6.6810184   0.13458023 
   12800   -942.09549    45.319419   -896.77607    1623.1772   -6337.8148    2.1529468    7.6506132   0.14576019 
   12900   -937.54022    49.922223   -887.61799     1788.033    2660.3551    2.1600842    7.6868389   0.14342592 
   13000   -942.42592    53.062331   -889.36359    1900.5003    1740.7103    2.1653168    7.1145327   0.14674112 
   13100   -943.49348    45.785565   -897.70791    1639.8729   -283.36208    2.1655438    7.5397388    0.1272456 
   13200   -942.84908    54.079633   -888.76945    1936.9363   -4264.3916    2.1531589    8.2012251   0.12812196 
   13300   -939.90992    51.705956   -888.20396    1851.9198    1448.1596    2.1634454    7.0705527   0.12642133 
   13400   -946.58869    50.386166   -896.20253    1804.6497   -1432.4141    2.1661328    8.9568083   0.11308178 
   13500   -938.25712    50.095307   -888.16181    1794.2322    251.40184    2.1543026     8.370766   0.12546939 
   13600   -935.86042    48.766109   -887.09431    1746.6252    3782.7594    2.1581852    6.2455274   0.14269936 
   13700   -941.44291    46.668974   -894.77393    1671.5134     1142.063    2.1630946    9.1832137   0.14373804 
   13800   -938.18071    50.370273   -887.81044    1804.0805    3255.7893    2.1599759    7.3613444   0.14800662 
   13900   -938.06948    52.231735   -885.83774    1870.7513    1970.5663    2.1597121    8.4315388   0.12741932 
   14000   -938.14219    44.184889    -893.9573    1582.5425    559.02565    2.1627359    9.5284692    0.1412235 
   14100   -940.57206    51.994849   -888.57721    1862.2669   -2461.2439    2.1576647     8.336933    0.1550271 
   14200   -934.51261    49.695605     -884.817    1779.9163    3654.3567    2.1603034    6.3031576   0.16887955 
   14300   -940.91658    46.861965   -894.05461    1678.4256    1700.1185    2.1713243     7.938798   0.15674529 
   14400   -937.41411    48.092451   -889.32166    1722.4972   -869.95332    2.1538479    8.0126007    0.1634388 
   14500   -937.26314    52.553706   -884.70943    1882.2832    2597.0886    2.1601852    8.7646949   0.14756724 
   14600   -943.28052    49.125829   -894.15469     1759.509    4685.5763    2.1803853    5.9795884   0.14871393 
   14700   -937.65495    48.161121   -889.49383    1724.9567   -2707.4945    2.1500665    7.1476632   0.15273224 
   14800   -934.29927     49.29484   -885.00443    1765.5624   -2594.0762    2.1453386    6.5094187   0.15619775 
   14900    -943.2125    48.690542   -894.52196    1743.9186    10577.532     2.191651     8.229233   0.14382367 
   15000   -940.07502    49.439717   -890.63531    1770.7514   -3099.1333    2.1528467    8.6568956   0.13628923 
   15100   -938.33326    51.045129   -887.28813    1828.2514   -8318.1362    2.1361754    7.0885285   0.14896918 
   15200   -942.96286    48.183761    -894.7791    1725.7676    8402.8045    2.1849297    7.9159274   0.13287767 
   15300   -941.46369    49.134758   -892.32893    1759.8288    4478.3714    2.1748838      7.41687   0.14112899 
   15400   -937.36393    49.821744   -887.54219    1784.4342   -8838.8838    2.1309207    7.9239545   0.15522184 
   15500   -941.62548    48.082205   -893.54328    1722.1302    1598.7051    2.1690911    7.1269374   0.14180319 
   15600   -941.70261    47.842638   -893.85997    1713.5498    10731.889    2.1910818    6.8544241   0.14223941 
   15700   -936.74144    50.833263   -885.90818    1820.6631   -7095.8359    2.1335827    7.5267763   0.14599657 
   15800   -941.32905    48.894899   -892.43415    1751.2379    -4636.022    2.1496194    6.3908872   0.14597014 
   15900   -943.18648    50.540329   -892.64616    1810.1713    10612.602    2.1954049    7.3928849   0.16151823 
   16000   -933.21322    49.176306   -884.03691    1761.3169   -809.12888    2.1426727    8.0159187   0.15209689 
   16100   -940.45647    50.598797   -889.85767    1812.2654   -9617.0129    2.1330606    10.337863   0.14252257 
   16200   -941.14867    48.636226   -892.51244    1741.9733    7602.1877    2.1847542    7.3182527   0.13002821 
   16300   -936.81918    52.040462   -884.77871    1863.9006    7245.7588    2.1686261    7.4792978   0.14497241 
   16400   -936.56326     49.30391   -887.25935    1765.8873     -12416.2    2.1204222    8.5307468   0.16314936 
   16500    -943.2573    48.519576   -894.73773    1737.7953    1778.7097    2.1731729    7.4201868   0.14859146 
   16600   -940.93456     53.04431   -887.89025    1899.8548    19333.655    2.2114422    7.5064295   0.16336127 
   16700   -935.93209    48.165671   -887.76642    1725.1197   -15571.696    2.1163056    8.9654205   0.15672534 
   16800   -938.93663    43.815481   -895.12115    1569.3116   -11364.743    2.1363524    5.7668703    0.1544234 
   16900   -941.46387    49.706941   -891.75693    1780.3223    14361.046    2.1988657    5.7428211   0.16588896 
   17000    -937.1553    51.301304     -885.854    1837.4267    434.39313    2.1545219    7.4967199   0.15070567 
   17100   -936.89202    45.192293   -891.69972     1618.624   -6057.8727    2.1434117    7.5967926   0.15768628 
   17200   -944.43929     50.61231   -893.82698    1812.7494    3254.3965    2.1821368    7.4319689   0.14692902 
   17300   -934.03067    50.348011   -883.68266    1803.2832    6505.2259    2.1638007    6.9726096   0.13997193 
   17400   -938.47657    47.895624   -890.58095    1715.4476   -4333.0038    2.1497664    7.2499716   0.14689842 
   17500   -942.05469    48.318083    -893.7366    1730.5785    944.46106    2.1656632    6.4281479   0.16024179 
   17600   -940.34146     56.40782   -883.93364    2020.3235    2298.6039    2.1704061    5.9098562   0.16928321 
   17700   -939.37211    50.933796   -888.43832    1824.2639   -366.65136    2.1582294    8.5187669   0.14821978 
   17800   -943.54076    48.876749   -894.66401    1750.5879   -5651.1048    2.1533713    8.5062994   0.13586809 
   17900   -937.76478    51.411019   -886.35376    1841.3562    6927.0963    2.1755116    8.7479616   0.13738535 
   18000   -940.31439    52.404002   -887.91039    1876.9213    3830.5698    2.1678085    7.6627582   0.14371426 
   18100   -941.58971    45.666543   -895.92316      1635.61   -4290.1981    2.1534546    7.5109687   0.14510099 
   18200    -937.6936    49.049742   -888.64386    1756.7839     2610.388    2.1632817    8.2185151   0.14801416 
   18300   -940.57375    54.118504   -886.45525    1938.3285    5839.4741     2.174054    5.8705175   0.15376966 
   18400   -945.53977    48.939102   -896.60067    1752.8212   -4488.6708    2.1610469    7.3651048   0.12663731 
   18500   -939.77412    48.998408   -890.77572    1754.9453   -4372.4342    2.1463701    8.1212499   0.14348667 
   18600   -938.19113    52.479197   -885.71193    1879.6145    8829.9446    2.1772997    7.7925554   0.14081625 
   18700    -944.5603    50.082904    -894.4774     1793.788   -649.55109     2.170892    10.286535   0.13296428 
   18800   -941.64608    50.020686   -891.62539    1791.5596    -13160.11    2.1291592    7.8400616   0.13418129 
   18900   -935.37805    49.802268   -885.57578    1783.7366    8329.1867    2.1718241    8.8481943   0.16404482 
   19000   -941.57212    51.152258   -890.41986    1832.0884    6344.4955    2.1842667    8.8633145   0.14804436 
   19100   -943.56937    47.496034   -896.07334    1701.1357   -14246.569    2.1342054    8.0292166   0.13829745 
   19200   -941.13452    54.392523     -886.742    1948.1429   -3278.8356    2.1504623    8.4291502   0.13562707 
   19300   -942.66913    56.810303   -885.85882     2034.739    14626.357    2.1973602    7.7412086   0.14483317 
   19400   -943.32009    49.323307   -893.99679     1766.582   -7135.4652    2.1477659    6.8458509    0.1520477 
   19500   -935.29106    46.177807   -889.11325    1653.9216   -1948.0669    2.1438063    6.1459004   0.15687316 
   19600   -933.82454    51.498916   -882.32562    1844.5044    9698.3398    2.1663312    6.5764874   0.15533489 
   19700    -943.8824     50.69639   -893.18601    1815.7608    2258.7034    2.1681717     7.660251   0.12089536 
   19800   -940.93545    49.347493   -891.58796    1767.4483   -6837.1677    2.1418604    5.4120566   0.15709937 
   19900   -936.93238     51.90281   -885.02957    1858.9704    1657.7141    2.1559015    8.4031341   0.16680872 
   20000   -943.90893    49.748217   -894.16071    1781.8007    5513.9578     2.179485    6.1302912   0.15304119 
   20100   -942.12151    49.042376   -893.07914    1756.5201   -5855.9701    2.1468798     8.960448   0.15695382 
   20200   -942.74755    55.986837   -886.76072    2005.2455    -2670.015     2.154054    7.6084482   0.16248532 
   20300   -940.90574    48.217162   -892.68857    1726.9639    6717.1439    2.1804337    8.0733703   0.15794815 
   20400   -944.56399    48.349526   -896.21446    1731.7047   -4408.1319    2.1613333     8.807538    0.1643433 
   20500   -938.98484     52.16396   -886.82088    1868.3239   -8234.3561    2.1389114    7.6409834   0.17449769 
   20600   -941.83632    51.062193   -890.77412    1828.8626    5996.3263    2.1821846    6.0002821   0.17086817 
   20700   -940.11012    45.486008   -894.62412    1629.1439    4839.5117    2.1786916    7.7773612   0.16468429 
   20800   -935.18188    49.792407   -885.38947    1783.3834   -10654.198    2.1280867    7.0749403   0.17681421 
   20900   -942.83091     52.21045   -890.62046     1869.989    4174.6886    2.1727456    7.4941897   0.12956889 
   21000   -948.21173    55.899681   -892.31205    2002.1239    8629.1969    2.1992379    7.3715743   0.13896902 
   21100   -936.89266     50.36424   -886.52842    1803.8644   -9991.7524    2.1297588    8.6613857   0.17271982 
   21200   -942.26937     55.05566   -887.21371    1971.8941   -10646.082    2.1361546    8.5167504   0.16022932 
   21300   -940.86576    48.842839   -892.02292    1749.3734    18695.092     2.211266    7.5347971   0.14886231 
   21400    -938.1852    51.993484   -886.19171     1862.218   -365.17481    2.1547887    9.5266494   0.14275963 
   21500   -938.05032    50.930687   -887.11964    1824.1525    -12882.79    2.1238155    6.3486562   0.14160244 
   21600    -940.1286    46.589427   -893.53917    1668.6643    7945.6031    2.1847187    8.0817153   0.14858762 
   21700   -939.20474    49.307206   -889.89754    1766.0053      6799.02    2.1755545    9.7864921   0.14956862 
   21800   -937.05744    51.271896   -885.78555    1836.3734   -6931.1411    2.1362875    6.6393422   0.13410601 
   21900   -940.75873    46.695448   -894.06328    1672.4616    -209.4162    2.1672311    8.2152451   0.13083117 
   22000   -937.88781    47.138225   -890.74959    1688.3203    9525.3983    2.1790206    7.7547609   0.14268503 
   22100   -937.86238    53.236727   -884.62565    1906.7465   -6754.1885    2.1400629    7.9566293    0.1627875 
   22200   -944.47859    50.071766   -894.40683    1793.3891   -4614.6208    2.1593658    8.6122103   0.15897809 
   22300    -941.9969    51.109937   -890.88696    1830.5726    6434.7709    2.1781437    7.5086959   0.15497351 
   22400   -939.07848    54.445098   -884.63338     1950.026   -492.64793    2.1512089     6.303233    0.1459919 
   22500    -942.4161    48.850214   -893.56589    1749.6375    -5953.151    2.1499341    8.0874403   0.13934929 
   22600   -941.19198    48.381303   -892.81068    1732.8428    4313.0736     2.171621    7.2373359   0.14015512 
   22700   -943.16185    57.724264   -885.43759    2067.4738    4813.2489    2.1713265    6.7473446   0.12805559 
   22800   -942.43901    50.623267   -891.81574    1813.1418   -8868.0571    2.1410515    8.7696741   0.14648712 
   22900   -947.48321    52.428463   -895.05475    1877.7974   -4219.2674    2.1598667    6.3744775   0.13529625 
   23000   -942.04483    57.163865   -884.88097    2047.4023     10118.31    2.1831772    5.9058695   0.15242616 
   23100   -941.40834    53.021879   -888.38646    1899.0514   -8289.3532    2.1416398    5.8683025   0.16494582 
   23200    -942.8045    47.148917   -895.65559    1688.7032   -12578.499    2.1310884    6.6036448   0.14755723 
   23300   -938.09577    48.362486   -889.73329    1732.1689    16485.362    2.1941166     7.857482   0.17483061 
   23400   -934.17112    49.942056   -884.22906    1788.7433    8498.2514    2.1623819     10.20848   0.17202384 
   23500   -940.59577    48.837359   -891.75841    1749.1771   -12187.646    2.1305166    17.232957   0.16129626 
   23600   -940.74646    48.296885   -892.44957    1729.8193    2894.8142    2.1686193    17.718452   0.13712487 
   23700   -937.68381    54.729025   -882.95478    1960.1952    2814.7852    2.1606419    21.880262   0.14785777 
   23800   -938.63212    47.973089   -890.65903    1718.2221   -2978.6926    2.1510356    19.589916   0.16919114 
   23900   -940.96073    47.801244   -893.15949    1712.0672   -2687.3373    2.1563624    20.767351     0.164994 
   24000   -936.87913    52.975697   -883.90343    1897.3973    5724.4761    2.1631734    18.351923   0.15463113 
   24100    -939.1282    49.022256   -890.10594    1755.7994   -375.39948    2.1584177     18.46473   0.14661199 
   24200   -942.83131    48.053719   -894.77759    1721.1099   -6431.2096     2.151077    16.874954   0.13930972 
   24300   -939.59566     53.35547   -886.24018    1910.9995     1867.542    2.1625552    17.918275    0.1630663 
   24400   -939.52879    51.348937   -888.17985    1839.1327    3304.9788    2.1668489    18.855006   0.14194392 
   24500   -945.15564    49.007369   -896.14827    1755.2662   -6892.5377    2.1563271    22.065627   0.14359529 
   24600   -941.48312    52.258286   -889.22484    1871.7023   -2022.2214    2.1611868     19.11781   0.16022112 
   24700   -938.46453    52.210137   -886.25439    1869.9778    5098.3558    2.1731224    16.634995   0.15148132 
   24800   -941.55393    45.089344   -896.46458    1614.9368   -3905.8404    2.1598023    16.485206   0.14491461 
   24900    -940.3248    49.114553   -891.21025    1759.1052   -8825.2366     2.141397    16.585131   0.15269745 
   25000   -940.91269    55.543144   -885.36955     1989.354    13476.556    2.1877922    16.387915   0.16667973 
   25100   -942.37548    50.401747   -891.97373    1805.2078    77.312292     2.166708    15.762946   0.16150514 
   25200   -937.61668    48.104483    -889.5122    1722.9281   -15802.609    2.1175051    17.607701   0.17402959 
   25300   -933.62527    51.062704   -882.56257    1828.8809     6315.802    2.1655719    17.658306     0.169905 
   25400   -936.99419    50.037595   -886.95659    1792.1652    7790.2636     2.172228    11.203728   0.17011745 
   25500   -939.33045    47.425408   -891.90504    1698.6061   -6879.6082    2.1385926    16.377281   0.16840516 
   25600   -935.93118    50.223682    -885.7075    1798.8301    1752.9839    2.1533398    17.415817   0.17349182 
   25700     -937.997    55.657259   -882.33974    1993.4412    1570.8248    2.1598683    13.379422   0.16868772 
   25800   -936.67395    45.797591   -890.87636    1640.3036   -503.78361    2.1540809    13.648185   0.17008953 
   25900   -942.11625    54.882301   -887.23395     1965.685   -2613.8248    2.1578757      16.1792   0.17060335 
   26000   -931.04308    51.041188    -880.0019    1828.1102    4589.8546    2.1539753    13.713661    0.1901527 
   26100   -940.74821    49.821855   -890.92635    1784.4382    599.86432    2.1608947    18.213519   0.17278738 
   26200   -941.98657    51.566598   -890.41997    1846.9285   -5353.1155    2.1520733    19.138817   0.17622755 
   26300   -939.61017      53.6923   -885.91787    1923.0635    5028.7718    2.1666229    16.545454    0.1772298 
   26400   -938.39652    53.678821    -884.7177    1922.5807    2765.6732    2.1618334    17.086241   0.17363844 
   26500   -942.44289    47.456624   -894.98627    1699.7242   -3192.4605    2.1617285    16.812246   0.15001391 
   26600   -940.05323    48.472592   -891.58064    1736.1125    1753.7531    2.1683973    18.934041   0.15503381 
   26700    -935.5897    48.190368   -887.39934    1726.0042    6159.8961     2.169371    18.620668   0.16022867 
   26800   -937.66113    48.783504   -888.87763    1747.2482   -3924.1535    2.1510109    16.204811   0.17420146 
   26900   -944.00504    47.129298   -896.87574    1688.0006     1229.794    2.1803817    20.415748   0.17038172 
   27000   -939.30958    50.147485    -889.1621    1796.1011    11759.118    2.1926948    17.743324   0.15393723 
   27100    -941.8036    51.999557   -889.80405    1862.4355   -12750.351    2.1348537    18.131606   0.14062799 
   27200   -942.66731    50.209871   -892.45744    1798.3355   -5178.6186    2.1527151    17.554435   0.15736533 
   27300   -946.55787    49.336644   -897.22122    1767.0597    17331.874    2.2216357    16.742899   0.15826053 
   27400   -938.95182    50.534366   -888.41745    1809.9577   -5272.4241    2.1468837    18.412553    0.1720038 
   27500   -937.48756    47.408568   -890.07899     1698.003   -6162.8966    2.1367004    17.785303   0.16376532 
   27600   -943.68646    51.998441   -891.68802    1862.3956    7978.2272    2.1895304    15.268109   0.13762598 
   27700   -936.94303     56.47325   -880.46978     2022.667    1117.2854    2.1552467    16.078353   0.14807987 
   27800   -938.59131    52.855756   -885.73555    1893.1015   -5434.7799    2.1429695    15.252606   0.14400796 
   27900   -940.02591    48.978789   -891.04712    1754.2426    931.86692    2.1640496    17.384282   0.16479991 
   28000   -939.92423    48.797941   -891.12629    1747.7653    4581.5134    2.1788653    16.555369   0.15709865 
   28100   -936.92491    56.436674   -880.48823     2021.357   -7099.2118    2.1336989     14.84579   0.15679799 
   28200   -942.44095    52.445243   -889.99571    1878.3984    831.17114    2.1639615    12.480396   0.14347496 
   28300   -945.30523    54.019954   -891.28528    1934.7988   -387.98732    2.1727308    16.287224   0.14983857 
   28400   -938.34116    50.378472   -887.96269    1804.3742   -3530.4511    2.1517802    16.356142   0.16747258 
   28500   -938.35189    57.505744   -880.84615    2059.6472   -8745.3703     2.130691    16.420174   0.16274694 
   28600   -943.91476    51.858992   -892.05577     1857.401    10491.472    2.1956072    15.967879    0.1588762 
   28700   -942.82122    52.215985   -890.60523    1870.1872   -4392.6805    2.1554525    18.335021   0.14401476 
   28800   -938.37588    50.230651   -888.14523    1799.0798   -13659.394    2.1192442     16.45274   0.14163721 
   28900   -945.72047    46.967265    -898.7532    1682.1971    12477.089    2.2078847     17.51713   0.12880304 
   29000    -940.5266     47.24363   -893.28297    1692.0955    7759.9475    2.1794719    16.677394   0.13144908 
   29100   -936.91693    46.928999   -889.98793    1680.8266   -10399.137    2.1311668    15.851716   0.16073839 
   29200   -942.93443    54.911607   -888.02282    1966.7346   -569.50312    2.1631312    14.624945   0.15172655 
   29300     -942.701    44.747755   -897.95325    1602.7023    12050.995    2.1940974      15.8287   0.16327966 
   29400    -937.3202    45.851613   -891.46859    1642.2385   -3998.1381    2.1445441    16.377878    0.1512996 
   29500   -937.53271    48.796174   -888.73654     1747.702    1784.6658     2.159379    18.453636   0.14843203 
   29600   -942.50198    50.333148   -892.16883    1802.7508    3640.5727    2.1769041     22.70566   0.17784799 
   29700    -940.7244    43.506549   -897.21785    1558.2468   -787.53831    2.1665767    21.011353   0.17123924 
   29800   -936.73106    50.620993   -886.11007    1813.0604   -4497.2355    2.1399977     21.56873   0.18587295 
   29900       -939.2    52.227831   -886.97216    1870.6115    8255.9549    2.1776652    30.386703   0.18122436 
   30000   -939.17821    48.706475   -890.47173    1744.4893    787.49092    2.1607704    35.380814   0.16836593 
   30100   -940.04901    48.587939   -891.46108    1740.2438   -5689.1162    2.1457277    42.077352   0.17670602 
   30200   -935.53337    56.404173    -879.1292    2020.1929   -602.82012    2.1475134    37.214079    0.1985438 
   30300   -938.76141    52.822121   -885.93929    1891.8968    3442.2549    2.1659064     39.87021    0.1828407 
   30400   -937.58693    47.041951   -890.54498    1684.8721   -3912.9205    2.1476553    43.256117   0.18276146 
   30500   -939.64881    52.452072   -887.19674     1878.643   -269.29096    2.1570017    36.369562   0.15951113 
   30600   -933.81927    55.337547   -878.48172    1981.9902   -439.34344    2.1396739    32.399458   0.15557168 
   30700   -942.63893    53.372566   -889.26637    1911.6118   -1118.6638    2.1592211     33.49666   0.13959186 
   30800   -939.88242    49.424851   -890.45757    1770.2189   -402.71081     2.156284    42.746582   0.14446123 
   30900   -943.58622    52.551265   -891.03495    1882.1957   -2996.7425    2.1594833     40.47727   0.14140434 
   31000   -951.03595    49.097396   -901.93855    1758.4907   -2878.2464    2.1763469    39.595983   0.13088434 
   31100   -946.94274    51.210453   -895.73229    1834.1727   -5608.3733    2.1612133    41.443457   0.14860798 
   31200   -940.93294    50.284274   -890.64867    1801.0003    2897.8553    2.1709133    41.627633   0.14032273 
   31300   -941.61561    52.817356   -888.79826    1891.7261   -744.00763     2.160944    38.470673   0.13487945 
   31400   -943.34634    52.869676   -890.47667    1893.6001   -6201.4408    2.1508765    37.503817   0.14254548 
   31500    -945.1904    47.111073   -898.07932    1687.3478    5556.3442    2.1897816    38.029844   0.13292952 
   31600   -941.37781    50.807559   -890.57025    1819.7425    2137.2995    2.1699673    38.166399   0.14287328 
   31700   -937.51427    48.061232   -889.45304     1721.379   -8430.4746    2.1387742    43.536809   0.14470192 
   31800   -941.50429    51.576781   -889.92751    1847.2933    2335.9496    2.1707604    42.509182   0.14232163 
   31900   -944.62685    46.540183   -898.08666    1666.9006    17885.796    2.2177618    40.523192   0.16891672 
   32000   -935.24291    45.881502    -889.3614     1643.309   -17592.412    2.1108286     38.48464   0.18058009 
   32100   -941.39949    51.315156   -890.08433    1837.9228   -9131.8826     2.142745    41.003976   0.17112906 
   32200   -941.31907    53.109721   -888.20935    1902.1976    16792.278    2.2078517    40.624496   0.14377685 
   32300   -943.49515    51.664921   -891.83023    1850.4501   -11368.403    2.1411134    41.204301   0.14574698 
   32400   -943.98876    44.625966   -899.36279    1598.3403   -4324.0471    2.1616184    40.200433   0.14217959 
   32500   -939.26626    48.081458   -891.18481    1722.1035    10763.151    2.1859486    37.999505    0.1539174 
   32600   -941.38283     52.10073    -889.2821    1866.0592    -1289.248    2.1559845    38.765797   0.17138731 
   32700   -941.53001    53.435661   -888.09435    1913.8716   -9768.9376    2.1372854    36.505822   0.15062537 
   32800    -945.8757    47.513975   -898.36173    1701.7783     7737.336    2.1953599    35.983715   0.15191943 
   32900   -941.65033    51.176625   -890.47371    1832.9611   -1179.7548    2.1598105    39.304406   0.14967559 
   33000   -934.74252    46.772812   -887.96971    1675.2325    -4070.449    2.1389355    35.804558   0.17148912 
   33100   -937.72265    52.113305   -885.60935    1866.5096    3506.3288     2.162346     36.96843   0.17698271 
   33200   -946.51614    49.608056   -896.90808    1776.7806    2837.7871    2.1835759    41.815713   0.16238543 
   33300    -939.6855    48.123189   -891.56231    1723.5981   -12755.379    2.1312582    23.466512   0.15503964 
   33400   -942.27846    54.424517   -887.85394    1949.2888     1311.309    2.1617643    15.995273   0.13115875 
   33500   -944.20583    53.741351   -890.46448    1924.8203    5465.6715    2.1791896    18.549569   0.15412322 
   33600   -942.18583     44.81195   -897.37388    1605.0015   -7652.4998    2.1474206    15.257143   0.16660476 
   33700   -942.37956    45.327928   -897.05163     1623.482   -891.98204    2.1656841    20.144528     0.155544 
   33800   -936.88935    47.670077   -889.21928    1707.3693    7963.8434    2.1741251    13.225442   0.16242391 
   33900   -939.54673    50.647674   -888.89905     1814.016    -3986.604    2.1476157    14.742726   0.14454185 
   34000   -940.57042    53.342279   -887.22814     1910.527   -1894.4786     2.150655    15.460555   0.17475496 
   34100   -932.04714    56.344604   -875.70253    2018.0594    7024.0474    2.1533874     15.22064    0.1640079 
   34200   -935.98989    53.163771   -882.82612    1904.1335    904.90052     2.152375    14.517112   0.17584007 
   34300   -940.08886    51.585804   -888.50306    1847.6164   -8213.4286    2.1371043    15.732085   0.15886237 
   34400    -938.6592    49.123149   -889.53605     1759.413    6878.4858    2.1704214    15.831467   0.15821733 
   34500   -947.54855    51.648598   -895.89995    1849.8655    2203.6349    2.1843683    15.279978   0.15775399 
   34600   -942.95049    44.335492     -898.615    1587.9366     -4381.62    2.1573271    14.490999   0.14926194 
   34700   -938.44257    49.896261   -888.54631    1787.1031     -4459.39    2.1453131    10.927493   0.17682426 
   34800    -941.8047    53.205691   -888.59901    1905.6349     3368.123    2.1725454     13.44051   0.17336278 
   34900   -936.43483    46.903752   -889.53107    1679.9223    797.36653    2.1593967      23.0901   0.17626645 
   35000   -935.22684    55.740799   -879.48604    1996.4333   -6998.9351    2.1327075    21.976436   0.20111843 
   35100   -938.22926    54.227413   -884.00185    1942.2293    4101.1801     2.163555    17.178521   0.16403162 
   35200   -941.18575     52.13308   -889.05267    1867.2179     796.7265     2.158441    16.661168   0.16203709 
   35300   -936.72308    47.289022   -889.43405    1693.7213    1508.7864    2.1595761    15.041209   0.16487002 
   35400   -938.22014     55.45047   -882.76967    1986.0347     428.0716    2.1532046    20.327525   0.14287611 
   35500   -936.64229    53.882624   -882.75966    1929.8802   -4982.2136    2.1380159    23.180851   0.15649224 
   35600    -941.5737    51.600391   -889.97331    1848.1389   -84.162016    2.1608386    24.956855   0.13232233 
   35700   -941.78013    51.599739   -890.18039    1848.1155    6304.1521    2.1809978     17.11301   0.14737811 
   35800   -940.42837    49.257312   -891.17106    1764.2183   -8275.7637    2.1408441    21.178131   0.16184037 
   35900   -945.14292    42.943209   -902.19971      1538.07   -3270.3457    2.1672026    20.434661   0.13633906 
   36000   -944.81566    49.529271   -895.28639    1773.9589    13925.555    2.2061146    20.819528   0.14701348 
   36100   -941.76919    51.154547   -890.61464    1832.1704   -5581.8238    2.1525521    18.902399   0.15333364 
   36200   -938.96424    49.116824   -889.84742    1759.1865   -12317.202     2.133302     23.14404   0.15238567 
   36300   -942.94631     48.28539   -894.66092    1729.4076     11191.48     2.195946    23.477684   0.15099763 
   36400   -948.25076     50.18609   -898.06467    1797.4837    5786.6906    2.1898505    22.412019   0.14290549 
   36500   -939.99452    49.408767   -890.58575    1769.6429   -11727.308    2.1311338    24.544242   0.15445519 
   36600   -942.34079     53.37057   -888.97022    1911.5403    1114.3313    2.1617698    22.638848   0.14083241 
   36700   -939.42894    44.216502   -895.21243    1583.6747    11876.049    2.1899959    20.974623   0.14263377 
   36800   -941.47369    42.422737   -899.05096    1519.4286   -555.18574     2.162099    18.565394   0.15862557 
   36900   -943.64266    53.701029   -889.94163    1923.3761   -7826.4174    2.1437764    21.134981   0.13720619 
   37000   -940.06048     50.52362   -889.53686    1809.5729    6375.8711    2.1769633    20.190377   0.14243323 
   37100   -943.76351    49.450397   -894.31311    1771.1339   -711.45491    2.1669061    25.571718   0.14966024 
   37200   -946.72539    44.577259   -902.14813    1596.5958   -7574.6934    2.1585315    23.620605   0.12266323 
   37300   -941.89918    49.658456   -892.24072    1778.5858    1248.5855    2.1676557    23.591349   0.14729641 
   37400   -940.50003    51.081869   -889.41816    1829.5673    8006.0798    2.1785013    20.310924    0.1619617 
   37500   -941.44886    52.209208   -889.23965    1869.9445   -10040.014    2.1417017    19.909706   0.15205806 
   37600   -939.59369    48.620649   -890.97305    1741.4153   -4375.6892    2.1519536    20.832014   0.15930544 
   37700   -944.65345    47.284836   -897.36861    1693.5714    17584.896    2.2176921    18.350613   0.13657751 
   37800   -940.96781    51.705669   -889.26214    1851.9096   -6146.9835    2.1462461    22.875983   0.13988337 
   37900   -939.61378    49.509075    -890.1047    1773.2355   -16824.536    2.1175115     24.46694    0.1555865 
   38000   -938.27826    50.230411   -888.04785    1799.0711    21630.735    2.2108011    20.502748   0.15166508 
   38100   -947.29464    50.122983   -897.17166    1795.2235    304.01463    2.1770648    21.357238   0.12558537 
   38200   -939.63059    42.016281   -897.61431    1504.8708   -6101.4034    2.1472949    18.597532   0.13292465 
   38300   -942.69142    51.919829   -890.77159      1859.58    3718.8924     2.173883    21.480472   0.13027526 
   38400   -940.19412    51.313158   -888.88096    1837.8512    3282.2691    2.1681832    21.549583   0.14835681 
   38500   -940.54757    48.583331   -891.96424    1740.0787   -7315.3358    2.1450566    20.414109   0.14942528 
   38600    -945.3095    46.934271   -898.37523    1681.0154    6466.7741    2.1876015    18.879177   0.15088188 
   38700   -943.32447     54.10471   -889.21976    1937.8345    1164.9992    2.1726804     21.04971   0.13318194 
   38800   -939.49119    49.369871   -890.12132    1768.2497   -7256.1145    2.1422523    21.430755   0.13770176 
   38900   -943.35593    50.585996   -892.76993    1811.8069    1436.6526    2.1638807    20.688031   0.13659672 
   39000    -944.2504     44.82294   -899.42746    1605.3952    12601.057    2.2061607    21.436486   0.14483175 
   39100   -939.70965    50.258237   -889.45141    1800.0678   -9212.3792    2.1382183    20.663578   0.15456276 
   39200   -939.53007    49.428606   -890.10147    1770.3534   -3460.8724    2.1495788    19.260046   0.14334178 
   39300   -942.10483     49.81253    -892.2923    1784.1042    10967.357    2.1933099    21.571181   0.15481928 
   39400    -941.4337    45.801548   -895.63215    1640.4453   -1816.1867    2.1612629    21.389826   0.16238308 
   39500   -947.91075    43.557244   -904.35351    1560.0625   -3544.9158    2.1742019    23.916887   0.14103929 
   39600   -944.14088    47.850911   -896.28997    1713.8461     4666.273    2.1833498    21.764319   0.14928556 
   39700   -939.71363    47.935025   -891.77861    1716.8588    371.41377    2.1614524    22.316696    0.1446202 
   39800   -942.53646    53.370374   -889.16609    1911.5332   -5480.5359    2.1499375     20.71722   0.13857937 
   39900   -939.04416     51.92799   -887.11617    1859.8723    6250.9874    2.1676962    16.283159   0.14936648 
   40000    -949.0048    50.621102    -898.3837    1813.0643    793.87721    2.1817136    18.303309   0.12272952 
   40100   -942.81103    49.446311   -893.36472    1770.9876     -13722.7    2.1302753    20.383171   0.15607773 
   40200   -941.05528     51.73929   -889.31599    1853.1138    4907.6886    2.1753772    20.660981    0.1547103 
   40300    -936.4141    48.357844   -888.05625    1732.0026    18514.209    2.1985233    23.668571   0.16446788 
   40400   -933.95411     54.84527   -879.10884    1964.3587   -19355.813    2.0956498    23.416235   0.16666389 
   40500   -938.26735    55.813906   -882.45344    1999.0517   -2877.2897    2.1445935    22.688226   0.14867798 
   40600    -940.4127    53.348037   -887.06467    1910.7332    11292.268    2.1901098    20.061349    0.1500775 
   40700    -937.4046    46.796752   -890.60785    1676.0899    -1816.794    2.1484006    22.436246    0.1376425 
   40800    -940.5628    49.460773   -891.10202    1771.5055   -4382.7142    2.1501112    18.744179   0.13320483 
   40900   -949.23124    48.058531   -901.17271    1721.2823    2938.7807    2.1884555    21.444616   0.14421766 
   41000   -943.72371    47.398489   -896.32522     1697.642   -1568.6913    2.1684033    21.031218   0.14047198 
   41100   -936.67096    45.473968   -891.19699    1628.7126    -316.8112    2.1574956    22.607248   0.15702555 
   41200   -938.99364    50.159764   -888.83387    1796.5409    2227.0175    2.1611189    22.132896   0.15790127 
   41300   -943.05747    51.465592   -891.59188    1843.3108   -883.26462     2.165741    23.284307   0.15114104 
   41400   -948.21634    49.811025   -898.40531    1784.0503   -773.94056    2.1793968    21.493741   0.14491454 
   41500   -941.05108    50.543125   -890.50795    1810.2714   -622.46203     2.158462    19.543944   0.13277532 
   41600   -942.22756    52.889051   -889.33851     1894.294   -2538.8343    2.1556754    18.103207   0.13515258 
   41700   -945.42454    48.933125   -896.49141    1752.6071    555.22746    2.1786292     19.27122   0.13827869 
   41800   -943.22448    46.775589   -896.44889     1675.332    1529.9976    2.1774735    20.117228   0.14655558 
   41900   -943.91256     54.22806    -889.6845    1942.2525   -6035.0587     2.149672     24.05743   0.14497838 
   42000   -945.58399    55.370227   -890.21376    1983.1607   -3409.7842    2.1620661    22.369616   0.15314411 
   42100   -945.92533    47.810694   -898.11464    1712.4057     6749.003     2.191129    19.106428   0.13788635 
   42200   -938.31193    47.211272   -891.10066    1690.9365   -3821.5096    2.1503379     20.07365   0.16402334 
   42300   -941.29267    51.951635   -889.34104    1860.7192   -1536.3334    2.1594205    19.733152   0.15728899 
   42400    -941.6088    51.101281   -890.50752    1830.2626    2143.6384    2.1726354    21.924023    0.1460309 
   42500   -943.10963    47.170565   -895.93906    1689.4786   -3294.9752     2.160685    20.716549    0.1327502 
   42600   -946.77143    46.303626    -900.4678     1658.428   -591.29071    2.1725059    23.862371   0.12339905 
   42700   -944.14513    53.220908   -890.92422    1906.1799    2161.8436    2.1716622    24.501267   0.13921972 
   42800   -938.56649    48.402676   -890.16381    1733.6083   -2197.3597    2.1541305    21.886045   0.16734679 
   42900   -942.51786    52.754008   -889.76385    1889.4573   -5279.9192    2.1532783    26.222595   0.16399758 
   43000   -947.44965    47.731521   -899.71813      1709.57    1919.6148    2.1825412    20.797819   0.14564056 
   43100   -945.24084    48.986735    -896.2541    1754.5272   -1749.5441    2.1631767    20.633235   0.14703574 
   43200   -938.44487     47.63628   -890.80859    1706.1588    2235.6206    2.1608839    19.923643   0.12480403 
   43300   -941.92602    53.884332   -888.04168    1929.9414    1603.9131    2.1661179    19.212705    0.1238739 
   43400   -944.71095    49.994509   -894.71645     1790.622   -5607.0441    2.1533233    21.866416   0.12650239 
   43500   -942.81482    46.773914    -896.0409     1675.272    1273.7563    2.1672654    23.168781   0.13362293 
   43600   -939.83674      51.7576   -888.07914    1853.7695    8370.7311    2.1806348    21.813854   0.15054243 
   43700   -939.14181    48.032591   -891.10922    1720.3532   -5702.4681    2.1470304    21.912181   0.15565222 
   43800   -947.12683    48.201296   -898.92553    1726.3956   -8027.7565    2.1542087    17.921938   0.13047835 
   43900   -943.85355    51.090128   -892.76342    1829.8631    10481.764    2.1941419    20.610019    0.1423205 
   44000   -938.84487    50.651418   -888.19346    1814.1501    3764.0705    2.1681862     21.13944   0.14155445 
   44100   -941.20989    48.558715   -892.65118    1739.1971   -13571.866    2.1301543    22.044189   0.14459592 
   44200    -941.2228    47.517894   -893.70491    1701.9186    6502.1713    2.1838527    21.955333   0.14099525 
   44300   -938.44697    55.507106   -882.93986    1988.0632    3092.3884    2.1624195    22.027876   0.14292874 
   44400   -937.79927    48.623357   -889.17591    1741.5123   -3296.4735    2.1479235    22.320594   0.15561549 
   44500   -943.67225     51.00409   -892.66816    1826.7815   -3479.8682    2.1628778    20.664121   0.16484221 
   44600   -942.25367    51.517605   -890.73606    1845.1738    3620.8665    2.1764373    17.737351   0.15939555 
   44700   -936.71668    53.283603   -883.43308    1908.4254   -6359.0708    2.1360555      20.3408   0.16507457 
   44800   -941.79371    50.438914   -891.35479     1806.539   -3222.7199    2.1584985    21.249127   0.14850553 
   44900     -938.616    47.484031   -891.13197    1700.7058     6906.725    2.1783747    19.126347   0.14849451 
   45000   -937.24829    55.675742   -881.57255    1994.1032   -4092.4023    2.1438015    23.257985   0.15395289 
   45100   -939.31516    49.890807   -889.42435    1786.9078   -3571.8921    2.1518577    21.691219    0.1423185 
   45200   -942.13543    50.330089   -891.80534    1802.6413   -50.927676    2.1645458    22.367246   0.16337549 
   45300    -938.5831    51.844255   -886.73885    1856.8732     4020.971    2.1681161    21.055607   0.17114585 
   45400   -932.67319    49.516194     -883.157    1773.4905   -554.23037    2.1411059    20.296001   0.17212507 
   45500    -940.0761    46.673944   -893.40216    1671.6914    2249.8658    2.1717611    19.041657   0.17110722 
   45600   -941.12314    51.640985   -889.48216    1849.5928     1400.168    2.1700607    17.848084   0.14596846 
   45700    -937.1679    50.273787   -886.89411    1800.6247   -4041.4163    2.1443204    22.007912   0.15538945 
   45800   -945.65979    47.578483    -898.0813    1704.0887    338.62819    2.1773662    20.864913   0.14528424 
   45900    -940.5698    47.967968   -892.60183    1718.0386    1146.8534    2.1710308    22.025438   0.14433847 
   46000   -941.61771    53.125716   -888.49199    1902.7705   -5659.2384    2.1520288    25.467577   0.15624347 
   46100   -941.46508    49.837941   -891.62714    1785.0143   -1976.8626     2.160469    19.922187   0.14317102 
   46200   -945.40371    48.781959   -896.62176    1747.1928    7260.5479    2.1936747    20.022302   0.13995084 
   46300   -938.05974    50.453843    -887.6059    1807.0737   -2262.0503      2.14741    18.074471   0.16257865 
   46400    -938.4468     48.07593   -890.37087    1721.9055   -4582.5582    2.1485519    19.317208    0.1547665 
   46500    -946.9575    51.584551   -895.37295    1847.5715    5846.4816    2.1927179     19.18238   0.15256548 
   46600   -935.65101    50.754129   -884.89688    1817.8288   -1339.4891    2.1479431    20.203944    0.1514003 
   46700   -937.91529    49.942028   -887.97326    1788.7423   -3590.1063    2.1445052    25.244648   0.14523459 
   46800   -938.93053    48.076099   -890.85443    1721.9115    4584.4971    2.1688869     21.95877   0.15403076 
   46900   -939.71782    51.791926    -887.9259     1854.999    2927.5923    2.1654268    19.563281   0.13156937 
   47000   -932.96327    50.763797   -882.19947    1818.1751   -6741.8963    2.1244486    20.399793   0.14854194 
   47100   -943.27033    52.363186   -890.90715    1875.4594    343.36282    2.1672781    23.828474   0.16003098 
   47200   -938.65138    50.534399   -888.11699    1809.9589    10715.195    2.1825728    27.319903   0.14462657 
   47300    -935.2432    53.491592   -881.75161    1915.8748    -11625.08    2.1229878     23.19398   0.16549984 
   47400   -941.14392    49.269338   -891.87459     1764.649   -2699.0467    2.1558946    21.455478   0.15859984 
   47500   -943.44595    52.886417   -890.55953    1894.1997    5742.2121    2.1812564    24.159384   0.16288319 
   47600    -941.3712    54.254036   -887.11717    1943.1828   -4382.0498    2.1504975    28.504244   0.16442798 
   47700   -932.78532    48.087215   -884.69811    1722.3097   -7228.7095    2.1300168    19.987309   0.16579993 
   47800   -943.27892    48.382587   -894.89633    1732.8888    10520.479    2.1964198    24.828104   0.14773015 
   47900   -939.32966    51.770852    -887.5588    1854.2442     3687.602    2.1707806    27.263893   0.14970684 
   48000   -935.59639    47.867889    -887.7285    1714.4542   -11062.033    2.1281461    23.769797   0.16003376 
   48100   -937.43542    43.072506   -894.36291     1542.701    4925.1012    2.1724452    28.715841   0.17399951 
   48200   -941.21327    48.727424   -892.48585    1745.2396     12689.69    2.2004723    26.867915   0.15644982 
   48300   -933.70843    47.346564   -886.36187    1695.7822   -8915.1145    2.1322314    26.500151   0.18830022 
   48400   -941.38276    51.914537   -889.46822    1859.3904    -18223.04     2.124341    27.623403    0.1850877 
   48500   -941.69413    52.094725    -889.5994    1865.8441    27622.493    2.2359135    27.399059   0.15768099 
   48600   -931.86428    52.125381    -879.7389    1866.9421   -2561.8816    2.1381437    22.835372   0.16966035 
   48700   -932.89306    47.079533   -885.81352    1686.2181   -9567.2904    2.1232338    23.437517   0.16851743 
   48800   -939.03773    49.987285   -889.05044    1790.3633    5577.7416    2.1718168    25.238738   0.16012528 
   48900   -943.30682    52.208043   -891.09878    1869.9028     3576.289    2.1739363    25.069886   0.16492104 
   49000    -934.0079    54.022179   -879.98572    1934.8785     -8948.25    2.1235115    23.183344   0.18843193 
   49100   -939.86793    51.757643   -888.11029    1853.7711    3376.4407     2.164492    23.218874   0.18518267 
   49200   -940.78028    50.947239   -889.83304    1824.7454    3614.5022    2.1688524    21.216381   0.14896432 
   49300   -938.82739     52.93968   -885.88771    1896.1073   -5715.9767      2.13814    25.845626   0.15047433 
   49400   -931.32805    51.284291   -880.04376    1836.8173   -2616.7711    2.1382442    24.428721   0.18450514 
   49500   -939.77456    49.905835   -889.86873     1787.446    8191.2999     2.188587    24.789354   0.17086614 
   49600   -938.69238    50.120542   -888.57184     1795.136   -4118.2327    2.1443923    25.650124   0.17228326 
   49700   -929.64597    46.170971     -883.475    1653.6767   -3458.0049    2.1248327    26.269906   0.18231936 
   49800   -942.55909    47.773978   -894.78512    1711.0907    10810.217    2.1957778    24.675791   0.17807593 
   49900   -939.97121    50.212934   -889.75828    1798.4452   -5455.0765    2.1485653    26.777114   0.18437218 
   50000   -937.90505    50.409413   -887.49564    1805.4824   -6042.0996    2.1365483    23.741212   0.14201735 
   50100   -946.15465    50.346765   -895.80788    1803.2386    5511.6917    2.1827415    21.817822   0.14209608 
   50200   -942.21025    49.852293   -892.35796    1785.5283    2297.9485    2.1698858     23.06789   0.13284783 
   50300   -933.97542    46.158594   -887.81682    1653.2334   -2910.6531    2.1433191    20.048653    0.1554556 
   50400   -942.88316    49.553493   -893.32966    1774.8264   -352.95745    2.1666192    20.001858   0.15064404 
   50500   -945.36268    50.604528   -894.75815    1812.4707    6490.7347    2.1881703    18.628999   0.13552467 
   50600   -937.18223    51.680305   -885.50192    1851.0011   -6931.7147    2.1326314    19.198965   0.16168856 
   50700   -943.26647     50.71923   -892.54724    1816.5789   -5547.0415    2.1502613    20.587582   0.15615718 
   50800   -940.17023    49.434946   -890.73528    1770.5805    19769.104    2.2105066    21.140642   0.15162716 
   50900   -936.09608    54.083226   -882.01286     1937.065   -5505.8384    2.1335069    21.458491   0.16364097 
   51000   -936.73755     48.85853   -887.87902    1749.9353   -15767.668    2.1137517    26.905569   0.16323083 
   51100   -940.32873    51.255469   -889.07326     1835.785    15036.244    2.2037388    22.104472   0.16212806 
   51200   -942.83982    52.713298   -890.12653    1887.9992    649.00574    2.1664518    14.739018   0.15049759 
   51300   -935.30957    54.255782   -881.05379    1943.2453   -13783.937    2.1134938    25.420989   0.15498708 
   51400   -942.83955    51.717591   -891.12196    1852.3366    6061.7209     2.178232    21.109745   0.14770365 
   51500   -943.34215    52.759364   -890.58278    1889.6491    1957.2964    2.1691791    24.332521   0.13831094 
   51600   -935.23758    48.897076    -886.3405    1751.3159   -5693.2742    2.1340993    18.832622   0.15811508 
   51700   -938.69442    57.300657   -881.39376    2052.3017    382.22042     2.152457    19.899485   0.14654294 
   51800   -944.14612    51.209118   -892.93701    1834.1249    9834.1995    2.1890169    21.182532   0.13076797 
   51900    -941.0409    49.753079   -891.28782    1781.9749   -9136.1084    2.1374238    20.071664    0.1517338 
   52000   -940.96214    51.887039    -889.0751    1858.4056   -5220.4998    2.1502521    19.697692   0.13642723 
   52100   -944.12738    48.507318   -895.62006    1737.3562    10095.492    2.1909547    20.505791    0.1335368 
   52200   -947.14939    49.891385     -897.258    1786.9285   -4538.3559    2.1624305     20.39085   0.12076831 
   52300   -938.12422    47.426795   -890.69742    1698.6558   -4423.2429    2.1460018     20.87327   0.13705129 
   52400    -935.6245    47.064356   -888.56014    1685.6745    7582.0618    2.1642843    22.907131   0.14409301 
   52500   -941.49539    44.051036   -897.44435    1577.7484    4001.7329    2.1748895    20.955065   0.15741317 
   52600   -941.53726    48.274099   -893.26316    1729.0032     -6565.09    2.1447683     21.81817   0.14740598 
   52700   -939.14349    50.490569   -888.65292    1808.3891    5558.0131    2.1675408    20.092138   0.15497596 
   52800    -940.9501    50.295454   -890.65464    1801.4008    3121.3592    2.1692821    20.208042   0.13702713 
   52900    -940.9236    43.730763   -897.19283    1566.2773   -9650.4465    2.1399225    21.711909   0.14804181 
   53000   -948.68181    51.847076   -896.83473    1856.9742    363.18104    2.1786936    23.730511   0.13976166 
   53100   -941.46975    53.459297   -888.01045    1914.7181    15844.905    2.2001743    21.651733   0.14323462 
   53200   -939.77836    49.408537   -890.36983    1769.6346   -16254.681    2.1156312    21.837455   0.16731332 
   53300   -938.58302    50.004853   -888.57817    1790.9925   -4406.9172    2.1480173    17.154607   0.14620564 
   53400   -945.18359    46.461188    -898.7224    1664.0713    13785.026    2.2084597    18.263012   0.14672902 
   53500   -940.83964    47.847926   -892.99171    1713.7392   -5008.6955    2.1489223    23.300252   0.14759883 
   53600   -940.04051    50.057142   -889.98337    1792.8653   -2454.1022    2.1523006    23.178052   0.14941905 
   53700   -937.84834    49.030449   -888.81789    1756.0929    7783.5239    2.1758782     22.84831   0.14299659 
   53800   -943.35525    45.617991   -897.73725     1633.871   -1368.4227     2.163954    19.484553   0.15301314 
   53900    -940.5732    45.973121   -894.60007    1646.5905   -4683.1934     2.153347     20.70638   0.13680849 
   54000   -937.99466    49.503817   -888.49085    1773.0472    7236.0267    2.1791171    19.791055   0.14947498 
   54100   -940.74261    49.485555   -891.25705    1772.3931   -1330.6702     2.161111    21.299366   0.15193879 
   54200   -944.12791    46.168066   -897.95985    1653.5727   -5735.4498    2.1512064    21.983264   0.13756115 
   54300   -942.33671    47.306612    -895.0301    1694.3513      9843.93    2.1885227    24.008038   0.14825443 
   54400   -942.84854    54.037123   -888.81142    1935.4138    1901.5042    2.1694688    20.798802   0.15184985 
   54500   -941.32259    50.601371   -890.72122    1812.3576    -10133.36    2.1325003    21.459796   0.14309591 
   54600   -943.76216    55.998359    -887.7638    2005.6581    988.98916    2.1657964    22.024745   0.13917766 
   54700   -932.65673    53.595186   -879.06154    1919.5852    7413.9754    2.1568751    23.038891   0.16165941 
   54800   -937.25182    48.733636   -888.51819    1745.4621   -2227.4353    2.1506641    22.097063   0.15476876 
   54900   -938.76617    47.857604   -890.90857    1714.0858    351.11911    2.1608587    21.192213   0.14111087 
   55000    -939.4482    47.635483   -891.81272    1706.1302    3666.1523    2.1738914    25.136941   0.15053134 
   55100   -934.08805    54.083728   -880.00432     1937.083   -991.91872    2.1440244    18.700527   0.17276401 
   55200   -942.88029    55.507982   -887.37231    1988.0946   -1993.0428    2.1591938    20.518991   0.14542899 
   55300   -941.58523    49.902507   -891.68273    1787.3268   -1558.6548    2.1584903    21.415162    0.1535975 
   55400   -938.24823    48.224196   -890.02403    1727.2158    3202.8972    2.1628592    20.736889   0.13518706 
   55500   -936.37592    55.447403   -880.92852    1985.9249   -2067.6966    2.1392581    21.788137   0.14432515 
   55600   -943.06248    52.313137   -890.74934    1873.6669    2051.2701    2.1688318    19.009129   0.14069722 
   55700   -942.92693    51.648791   -891.27814    1849.8724   -147.79539    2.1611543    20.836532   0.15034225 
   55800   -936.73634     53.10316   -883.63318    1901.9626   -1275.0496    2.1455243     19.49442   0.15015034 
   55900   -938.77188    50.841639   -887.93024    1820.9631    1050.8856     2.158565    18.470401   0.17148805 
   56000   -943.79759    51.332781   -892.46481     1838.554   -503.74912    2.1657318    20.397747   0.15435751 
   56100   -941.58432    52.550779   -889.03354    1882.1783   -580.54989    2.1627155    20.330765   0.15323416 
   56200   -937.04675    52.810489   -884.23626    1891.4802   -1911.3025     2.148363    20.386292   0.16180572 
   56300   -942.38477     51.80393   -890.58084    1855.4289   -6320.8464    2.1473287    21.860327   0.13641622 
   56400   -941.97489    48.563143   -893.41175    1739.3557    1317.3551    2.1688046    20.176273   0.14710233 
   56500   -940.44266    50.970673   -889.47199    1825.5847    6302.8943    2.1742274    18.423728   0.14826671 
   56600   -937.09029    47.758015   -889.33227    1710.5189   -5397.8443    2.1357682    21.015337   0.15517597 
   56700   -945.83327    45.801319   -900.03195    1640.4372   -149.17264    2.1701511    20.637835   0.14399797 
   56800   -944.01949    50.313899   -893.70559    1802.0614    5361.6102    2.1809756      20.9121   0.12174466 
   56900   -938.20314    49.087873   -889.11527    1758.1496   -719.34414    2.1518473    20.245406   0.14409089 
   57000   -939.82369     49.20685   -890.61684    1762.4109   -4316.1853    2.1439757    20.331638   0.14295353 
   57100   -949.98016     51.61328   -898.36688    1848.6005    5191.1003    2.1929899    19.134971   0.12702305 
   57200   -936.45368    48.394649   -888.05904    1733.3208    395.05753    2.1530733    21.662518   0.16121359 
   57300   -939.15928    49.356652   -889.80263    1767.7763   -5785.2868    2.1416217    26.068004   0.14939903 
   57400   -943.06742    50.485061   -892.58236    1808.1918    5411.8306    2.1780946    22.367262    0.1441193 
   57500   -946.68895    46.239365   -900.44958    1656.1264    3641.1977    2.1827412     20.84364   0.13275332 
   57600   -937.98016    48.493666   -889.48649    1736.8672    -11606.05    2.1293397    19.171991   0.13878918 
   57700   -940.70287    51.278062   -889.42481    1836.5942    10156.813    2.1859111    18.116563   0.13737319 
   57800   -941.57722    51.003847   -890.57337    1826.7728    5486.5947    2.1769865    19.294117   0.13552781 
   57900   -934.50354     50.44821   -884.05533    1806.8719   -11121.265    2.1159313    23.068485   0.14862266 
   58000    -933.7106    51.716144   -881.99446    1852.2847     2580.925    2.1478313    22.489133   0.15122559 
   58100   -942.23027     53.65939   -888.57088    1921.8847    7641.1074    2.1810292    18.454028   0.14120105 
   58200   -940.37543    48.804499   -891.57093    1748.0002   -4225.0724    2.1500956    20.168774   0.14622609 
   58300   -935.59785    49.861507   -885.73634    1785.8584   -446.48641    2.1496959    20.262725   0.14185787 
   58400   -940.15089    58.197703   -881.95319    2084.4307    326.90186    2.1526428    25.124716   0.13946834 
   58500   -942.90536    52.209276   -890.69609    1869.9469   -584.98156    2.1624223    26.697091   0.13390853 
   58600   -940.95173    50.199901   -890.75183    1797.9784   -1403.4777    2.1567877      20.1833   0.14133788 
   58700   -939.92622    55.903662   -884.02255    2002.2664   -1292.1277    2.1530923    20.713327   0.14411432 
   58800   -936.10334     52.53576   -883.56758    1881.6404   -3149.6547    2.1438427    20.335469   0.15801328 
   58900   -940.33375    49.044522   -891.28923    1756.5969    -569.0129    2.1571356    20.166601   0.14609778 
   59000   -939.73787    50.042105   -889.69577    1792.3267    6526.4507    2.1716852    19.080217   0.14492498 
   59100     -933.505    48.323442   -885.18156    1730.7705   -589.52628     2.149081    18.388154   0.16945999 
   59200   -928.41342    48.040103   -880.37332    1720.6223   -5073.2158    2.1256235    19.194884    0.1707199 
   59300   -942.97014     52.85274    -890.1174    1892.9935    7044.7422    2.1853902    20.635565   0.15157216 
   59400   -942.84625    52.849771   -889.99647    1892.8871    1972.1403    2.1702609    19.290774   0.14185126 
   59500   -938.42431    47.483191   -890.94112    1700.6757   -14389.749    2.1228759    21.435104    0.1506795 
   59600   -947.11295    45.637213   -901.47574    1634.5595    8184.2715    2.1983541    20.586331   0.13782692 
   59700   -940.37274    48.146684   -892.22606    1724.4396     10482.28    2.1857405    21.373155   0.15725094 
   59800   -940.16739    49.838201   -890.32919    1785.0236   -9239.5659     2.135476    21.549494   0.13582717 
   59900   -941.94877    52.872316   -889.07646    1893.6946   -4001.8122     2.157102    22.232928   0.15105012 
   60000   -944.70033    46.342513   -898.35782    1659.8207    11363.572    2.2031898    21.734914   0.14172573 
   60100   -944.81673    52.753444   -892.06328    1889.4371   -6749.9312     2.151893    19.618996   0.16187242 
   60200   -939.10443    49.761547   -889.34288    1782.2782   -223.04561    2.1577429    22.641107    0.1718179 
   60300   -942.25696    51.446445   -890.81051    1842.6251    3619.8486    2.1687137    22.479881   0.17169863 
   60400   -947.25028    48.359774    -898.8905    1732.0717   -1242.2175    2.1711185    20.928286   0.13652306 
   60500   -948.12687    53.747222   -894.37965    1925.0306   -4673.4888    2.1654824    20.029816   0.12333996 
   60600   -938.89711    49.317982   -889.57913    1766.3912    4937.4403    2.1729289    22.156106   0.14747467 
   60700   -941.23969    50.680728   -890.55896    1815.1999   -2978.3092    2.1546761     23.68851   0.13861564 
   60800   -945.40878    55.058823   -890.34996    1972.0074   -6242.2846    2.1591342    27.503669   0.15203763 
   60900   -935.53838    57.417272   -878.12111    2056.4784    2966.2424    2.1559264    18.576449   0.15472968 
   61000   -934.08353     49.28983    -884.7937     1765.383    4614.9663    2.1642484    20.738516   0.18046974 
   61100   -938.75078    48.754969   -889.99581    1746.2262   -7164.5261    2.1426391    22.818668   0.16829441 
   61200   -942.42624    50.955031   -891.47121    1825.0244    315.36762    2.1702606    23.249169   0.16123093 
   61300   -944.03064    46.412615   -897.61802    1662.3315    9331.8275    2.1971974     20.97577   0.14876814 
   61400   -942.88626    42.435097   -900.45116    1519.8713   -5577.6804    2.1606067     22.82107    0.1345633 
   61500   -943.84351    50.834669   -893.00884    1820.7135   -7749.3764    2.1542835     20.01068   0.14425675 
   61600   -942.41571    53.146723   -889.26899    1903.5229    11037.372    2.1894295    19.701818   0.14569279 
   61700   -940.40855    51.003399   -889.40515    1826.7568   -1275.9233    2.1588386    20.078901   0.14074712 
   61800   -931.45574    52.258173   -879.19757    1871.6983   -12360.908    2.1142645    20.900525    0.1743185 
   61900   -943.28899    59.911801   -883.37719    2145.8234    7625.3445    2.1833724    23.810531   0.13596297 
   62000   -941.18382    52.856573   -888.32724    1893.1307   -9.5043285    2.1651595    21.538799   0.16642617 
   62100   -940.36281    49.152893   -891.20992    1760.4784   -11679.055     2.132806    18.839152   0.13056335 
   62200   -941.15351     52.50422   -888.64929    1880.5108    5980.5253    2.1766599    17.743086   0.13818593 
   62300   -935.99088    58.420038   -877.57084    2092.3939     4409.742    2.1613265    18.125319   0.16312461 
   62400   -937.56516    50.013006   -887.55215    1791.2845   -6219.1395    2.1426373    20.106555   0.14585085 
   62500   -941.84179    50.658661   -891.18313    1814.4095   -4912.5315    2.1570739    19.252865   0.14391049 
   62600   -942.30647    53.319324   -888.98715    1909.7048    9962.3336    2.1912138     21.25695   0.14400205 
   62700   -934.98178    56.510935   -878.47084    2024.0168   -6124.6827    2.1279993    21.639084   0.14798995 
   62800   -938.44123    50.569634   -887.87159    1811.2209   -8621.1888    2.1323662    21.461989   0.15551235 
   62900     -945.343    55.900986   -889.44201    2002.1706    12426.394    2.1992134    19.828414   0.14111638 
   63000   -941.30153    50.921552   -890.37998    1823.8253    1340.9098    2.1656043    18.432686   0.14318463 
   63100    -939.9929     54.67984   -885.31306    1958.4336   -21374.135    2.1020474    25.316565   0.16508277 
   63200   -934.55158    57.313193   -877.23838    2052.7507    7585.8266    2.1636697    24.866789   0.15911456 
   63300   -939.88868    51.719129   -888.16955    1852.3916    12373.084    2.1865808    20.449449   0.13921601 
   63400    -944.3622    53.049037   -891.31317    1900.0241   -14540.195    2.1277862    19.896926   0.13640784 
   63500   -941.44752    53.277401   -888.17012    1908.2033   -2842.4667     2.153565    21.606107   0.13810216 
   63600   -934.87554    55.277108   -879.59843    1979.8256    11970.701    2.1734384    20.220526   0.15906307 
   63700   -940.82123    56.396684   -884.42454    2019.9247   -10656.947    2.1298025    22.670849   0.14681445 
   63800   -943.94333    53.056852   -890.88648     1900.304   -8893.5745    2.1451508    22.221655   0.15117367 
   63900   -943.35739    54.279077   -889.07831    1944.0797    9487.8072    2.1880573    20.242843   0.13367424 
   64000   -944.31094    51.353229   -892.95771    1839.2864   -4587.9164    2.1590591    23.433399      0.13506 
   64100   -943.71844    43.395657   -900.32278    1554.2751   -3593.6797    2.1625314    22.142655   0.14580598 
   64200   -942.47106    50.560632   -891.91043    1810.8985    4193.8212    2.1768642    21.341054   0.15359776 
   64300   -941.32675    52.038678   -889.28807    1863.8367    807.11995    2.1631577    22.414376   0.14828435 
   64400   -943.19027    52.485574    -890.7047    1879.8429   -7452.9079    2.1459363    19.839702   0.14655166 
   64500   -947.52827     48.16322   -899.36505    1725.0319    6471.5485    2.1901523    20.900655    0.1216209 
   64600   -939.98268    50.124442   -889.85823    1795.2757    99.525621    2.1592885     19.80165   0.14561373 
   64700   -940.46788    50.521716   -889.94616    1809.5046   -7396.7577    2.1423934    22.120774   0.13544246 
   64800   -941.45463    49.579156   -891.87548    1775.7456    5602.6887    2.1745294    19.376106   0.13951036 
   64900   -943.19379    43.046338   -900.14745    1541.7637    9143.5904    2.1952049    18.177057   0.14882245 
   65000   -938.27223    48.470761   -889.80147    1736.0469   -15418.726    2.1154222    21.228472   0.14341772 
   65100   -943.50257    53.719524   -889.78305    1924.0385   -263.55587    2.1669138    22.057311   0.14048895 
   65200   -942.98893    52.555347   -890.43359    1882.3419    15212.914    2.2033064    20.445711   0.14160593 
   65300    -934.6379    54.106165   -880.53173    1937.8866   -13692.313    2.1132397    21.898596   0.15869152 
   65400   -936.79997    51.498921   -885.30105    1844.5046   -2923.9022    2.1447945    20.419642   0.16771788 
   65500   -941.99886    52.526735   -889.47212    1881.3172    6961.5036    2.1783839    22.343287   0.15882147 
   65600   -941.32574    50.093277   -891.23246    1794.1595   -3386.0495    2.1542162    3.4142457    0.1697636 
   65700   -932.97216    51.406818   -881.56534    1841.2058   -4377.6399    2.1345892    6.0260867   0.17111347 
   65800   -939.22068    50.139327   -889.08135    1795.8089    5307.2611    2.1687409     4.258051   0.16928251 
   65900   -940.77246    49.772729   -890.99973    1782.6787    34.405153    2.1594523     12.56622   0.17144105 
   66000   -939.88724    53.401935   -886.48531    1912.6637   -3906.8049      2.14518    6.5032598   0.16713012 
   66100   -935.24985    52.465124   -882.78472    1879.1105    2403.8423     2.150518    6.0583889   0.16941467 
   66200   -940.78587    47.140368    -893.6455     1688.397    8901.1388    2.1861449    6.5814323   0.17369144 
   66300   -941.47266    51.288259    -890.1844    1836.9594   -7802.8631    2.1407923    3.5782018     0.122483 
   66400   -939.54535    51.275393   -888.26995    1836.4986   -5196.3852    2.1457483    3.9032913   0.15147188 
   66500   -946.56128    48.916122   -897.64516    1751.9981    11902.388    2.2000086    3.2659053   0.14707029 
   66600   -941.89112    51.434761   -890.45636    1842.2066   -3391.3385    2.1494668    3.3004577   0.14440616 
   66700   -936.45456    47.350255   -889.10431    1695.9144   -4474.5465    2.1411925    5.1641606   0.15230162 
   66800   -943.17473    52.316519   -890.85822     1873.788    9320.5035    2.1851607     3.893521   0.13029016 
   66900   -942.70622    44.223273   -898.48295    1583.9172    6685.4252    2.1846615    3.9246184   0.13335452 
   67000   -936.25912    49.672255   -886.58687      1779.08   -20029.608     2.095582    5.9796041   0.14128442 
   67100   -939.78544    51.429373   -888.35607    1842.0136    11187.869    2.1857451    3.7440758   0.12754171 
   67200    -937.2223    46.916959   -890.30534    1680.3953    12922.307    2.1872202    3.8727413   0.14858037 
   67300   -937.26658    46.378554   -890.88803    1661.1116   -11686.005    2.1245509    4.1339878   0.13608305 
   67400   -950.04537    48.259174    -901.7862    1728.4686   -3095.0543    2.1737899    5.5002282   0.14032726 
   67500   -948.61017    52.233219   -896.37695    1870.8045    3534.7141    2.1859916    4.3063758    0.1495714 
   67600   -941.08689    49.864002   -891.22289    1785.9477   -1695.2649    2.1548197    4.7387371   0.14533899 
   67700   -939.21044    50.039325   -889.17111    1792.2272   -2386.6664    2.1488045    5.4952668   0.15590704 
   67800   -937.94374    53.362409   -884.58133     1911.248    4743.5534    2.1679579    4.5050348   0.14147416 
   67900   -931.97886    55.098797   -876.88007    1973.4391   -3147.2185     2.129096    5.6512594    0.1441969 
   68000   -945.96162    57.318235   -888.64338    2052.9313   -3322.1733    2.1543237     12.03383   0.14238502 
   68100   -941.68562    52.804172   -888.88145    1891.2539    3533.2297    2.1697067    10.527313   0.16451964 
   68200   -941.43804    50.926072   -890.51197    1823.9872   -3849.7875    2.1532079      8.95208   0.16353375 
   68300   -941.97026    53.217462    -888.7528    1906.0565   -2191.4476    2.1536506    4.9234527   0.16322763 
   68400    -936.7945    57.321545   -879.47296    2053.0499    1240.1796    2.1481072    5.0338756   0.17563774 
   68500   -939.63136    54.024023   -885.60733    1934.9446   -2515.7451    2.1482498    2.7391051   0.15760094 
   68600   -939.88508    50.235307   -889.64978    1799.2465   -1394.9733    2.1588836    6.9427577   0.15751173 
   68700   -940.06443    47.980072   -892.08436    1718.4722     2582.422    2.1718716    2.8448672   0.16532948 
   68800   -936.13085    55.555499   -880.57536    1989.7965   -2545.4001    2.1360737    7.6182176   0.15660585 
   68900    -940.8526     54.84859   -886.00402    1964.4776    3407.8772    2.1691082    5.2290122   0.16906331 
   69000   -937.64694    47.252381   -890.39456    1692.4089    857.29275    2.1587647    6.2636418   0.18561521 
   69100   -935.34804    46.366502   -888.98154      1660.68   -3432.1671    2.1441043     2.986867   0.18092215 
   69200   -934.25635    56.053862   -878.20249    2007.6461    6202.4074    2.1554693     14.07444   0.17194226 
   69300   -939.88969    53.088925   -886.80076    1901.4528    6222.4355     2.170895     14.47591   0.16250894 
   69400   -938.21974    47.368657   -890.85108    1696.5735   -9542.7659    2.1353592    15.467965   0.14952852 
   69500    -934.1109    49.542805    -884.5681    1774.4436    1607.9966    2.1545932    9.8765307   0.15912104 
   69600   -937.91431    56.293519   -881.62079    2016.2297    5204.0657    2.1718514    14.823987   0.15970407 
   69700   -941.53784    49.241353   -892.29649    1763.6467    -792.7583    2.1544763    12.904177   0.16064243 
   69800   -939.55947    49.121664    -890.4378    1759.3599   -4908.9213    2.1471683    13.596433   0.17905548 
   69900    -932.1195    46.262467   -885.85703    1656.9538    9820.6192    2.1647928    12.658844   0.17965182 
   70000   -942.18762    47.461224    -894.7264    1699.8889   -869.58984       2.1609    12.014359   0.16948805 
   70100   -942.09685     48.02138   -894.07547    1719.9517   -9530.4026    2.1376448    14.588369   0.16140126 
   70200   -941.79442    54.117784   -887.67663    1938.3028    8797.8523     2.179098    12.925952   0.14541947 
   70300   -937.29051    48.743669   -888.54684    1745.8214    5316.3468    2.1677399    7.6495913   0.15992745 
[...]
  186800   -945.91194    49.104234   -896.80771    1758.7356   -6239.0211    2.1582933    117.42035   0.15541461 
  186900   -943.34956    49.262524   -894.08704     1764.405   -12409.792    2.1399399    113.62687   0.17111074 
  187000   -939.95199     52.39345   -887.55854    1876.5434    7581.9674    2.1839074    107.70928   0.16701188 
  187100   -940.69976    49.541382   -891.15838    1774.3926   -172.56815    2.1657651    116.39727   0.15952271 
  187200   -944.49036    45.823607   -898.66675    1641.2354   -7442.6415     2.154941    113.67489   0.14865747 
  187300   -944.03652    52.835862   -891.20066     1892.389    2759.1489    2.1749091    106.17062   0.15097989 
  187400   -940.06622    52.088218     -887.978    1865.6111    7754.9831    2.1763073    116.44463   0.14561923 
  187500   -940.07801    46.835624   -893.24239    1677.4822   -6416.7366    2.1457685    116.17501   0.15285725 
  187600   -940.76772    47.163584   -893.60414    1689.2285   -784.79255    2.1622999    117.20547   0.15143666 
  187700   -941.58676    57.609604   -883.97715    2063.3671   -108.05258    2.1578541    113.55608   0.15635075 
  187800   -936.47455    47.006873   -889.46768    1683.6157    1012.4236     2.152569    117.19913    0.1549377 
  187900   -943.89414    50.630509   -893.26363    1813.4012   -3355.9767    2.1581003    115.77814   0.14290472 
  188000   -939.03299     53.54416   -885.48883    1917.7576    6350.4384    2.1700969    113.55125   0.14175954 
  188100   -935.12705    49.755869   -885.37118    1782.0748    1914.1135    2.1510707    109.27817   0.15004191 
  188200   -939.11349    45.725838   -893.38765    1637.7337   -6282.8997    2.1429554    120.81464   0.14685662 
  188300   -940.08698    51.752496   -888.33448    1853.5867    9560.8819    2.1837542    113.05085   0.12790447 
  188400   -936.25698    53.968747   -882.28823    1932.9648    4496.5723     2.164117    115.25004   0.15095583 
  188500   -936.88613    46.013371   -890.87275    1648.0321   -17440.939    2.1163077    117.25554   0.16653687 
  188600   -940.21414    48.006275   -892.20786    1719.4107     3010.158    2.1739952    113.55939   0.14991631 
  188700    -939.8953    53.958516   -885.93678    1932.5984    17190.216    2.2046867    110.93022   0.15191285 
  188800   -936.85227    45.661499   -891.19077    1635.4293   -10436.187    2.1314745    117.84437    0.1483862 
  188900    -943.5269    45.780682   -897.74622     1639.698   -3077.7492    2.1654962    118.38774   0.13160917 
  189000   -939.71725     52.07283   -887.64442    1865.0599    7042.3985    2.1799515    114.03955   0.14076601 
  189100   -938.71855    49.582073   -889.13648      1775.85   -1091.6867    2.1600881    113.50473   0.15267052 
  189200   -940.35283    45.052576   -895.30025    1613.6199   -4751.1877    2.1529824    111.43248   0.14174651 
  189300   -940.19346    49.139599   -891.05386    1760.0022     4867.027    2.1722903    125.25084   0.15614538 
  189400   -939.19278    52.724765   -886.46802    1888.4099    2582.3144    2.1662039    115.66159   0.15489333 
  189500   -940.28483    47.740083   -892.54474    1709.8766   -8357.2539    2.1398938    105.45498   0.16204144 
  189600   -939.48052    49.377112   -890.10341    1768.5091    1378.8811    2.1652965    116.45812   0.15666381 
  189700   -935.62855    54.645141    -880.9834    1957.1908    4546.7071    2.1571732    115.38188   0.16925921 
  189800   -940.06502     49.63348   -890.43154    1777.6912   -3257.3916    2.1502292    114.77813   0.13374589 
  189900   -943.56149    51.832835   -891.72866    1856.4642    -4766.541    2.1554564    112.17949     0.147976 
  190000   -936.58278    52.876285    -883.7065    1893.8368    8542.3963    2.1709761     119.8468   0.15570377 
  190100   -940.04013    53.157481   -886.88265    1903.9082   -3225.3312    2.1509274    116.42905   0.14783351 
  190200   -936.80832    43.466707   -893.34161    1556.8198   -7516.6573    2.1382136    118.59631   0.16007247 
  190300   -938.26649    50.530627   -887.73586    1809.8238    11456.222    2.1859737    108.42109     0.162441 
  190400   -941.28182    52.460981   -888.82084    1878.9621    4156.2526    2.1734023    112.73191   0.15738117 
  190500   -942.50434    44.351112   -898.15323     1588.496   -10789.304    2.1419378    115.44922   0.15905663 
  190600    -942.9431    50.697224   -892.24587    1815.7907    2275.8526    2.1722444    117.36633   0.14130513 
  190700   -939.20146    52.302401   -886.89906    1873.2823    10296.925    2.1824012    118.37391   0.15034353 
  190800   -940.30991     47.23706   -893.07285    1691.8602   -10693.178    2.1343062    112.36792   0.14266561 
  190900    -942.7554    46.324569   -896.43083    1659.1781   -2909.6391     2.159532    112.90316   0.13482479 
  191000   -936.79688    50.711666   -886.08522     1816.308    13209.856    2.1830454    114.14872   0.15268015 
  191100   -943.15187    53.089367   -890.06251    1901.4686   -6298.0308    2.1484178    116.20756   0.14908134 
  191200   -946.22338    51.861586    -894.3618    1857.4939   -7836.1519    2.1526305     122.2386   0.16934359 
  191300    -945.9208    49.219862   -896.70094     1762.877     5249.437     2.184007    115.89919   0.17109635 
  191400   -937.44521    50.860443   -886.58476    1821.6366   -4252.7435    2.1446862    112.81004   0.17222232 
  191500   -935.88729    45.521436   -890.36586    1630.4128   -1880.8945    2.1557972    117.51362    0.1846673 
  191600   -940.67424    48.255391   -892.41885    1728.3331    4768.9691    2.1789981    120.93613   0.15278048 
  191700   -936.49661    54.586797   -881.90981    1955.1011   -460.14836    2.1506943    120.04249   0.15314313 
  191800   -940.94939    54.818097   -886.13129    1963.3855   -4044.3966    2.1504839    122.30135   0.15375513 
  191900   -940.50525    49.092636   -891.41262    1758.3202    1592.8485    2.1628136    107.61914   0.14653339 
  192000   -942.64484    52.161592   -890.48325    1868.2391    3474.8198     2.169311     109.2147   0.15595131 
  192100   -934.57973    53.577476   -881.00225    1918.9509   -5778.9368    2.1357493    120.20373   0.16343592 
  192200   -941.57323    50.107136    -891.4661    1794.6559    1653.7077    2.1680477    115.87421   0.15115924 
  192300   -941.06507    50.054619   -891.01045    1792.7749     2843.393    2.1683472    120.36045   0.16455268 
  192400   -936.05915    52.352598   -883.70655    1875.0802   -2343.8624    2.1396169    120.89183   0.16825045 
  192500   -935.83467    49.233457   -886.60121    1763.3639   -134.25635    2.1476853    119.57529   0.15583304 
  192600   -942.56586      50.6095   -891.95636    1812.6488    5688.4819    2.1732119     144.8266   0.13884988 
  192700   -938.84713    49.999075   -888.84805    1790.7856   -205.54442    2.1566022     151.8087   0.14121919 
  192800   -939.73424    56.640439    -883.0938    2028.6551   -11337.526      2.13004     141.5762   0.15576937 
  192900   -945.53974    50.937139   -894.60261    1824.3836    6430.6776    2.1838986    147.34577   0.15321879 
  193000   -940.46164    49.615967   -890.84567     1777.064    1758.1418    2.1616429    149.12826   0.15644848 
  193100   -939.25383    51.068791   -888.18504    1829.0989   -9620.5334    2.1268734     147.8326   0.14283223 
  193200   -945.10277    50.197138   -894.90563    1797.8795    2639.8428    2.1727211    143.82229    0.1449572 
  193300   -944.23653    48.608481   -895.62805    1740.9795    7992.0083    2.1884654    141.46921   0.13048292 
  193400    -942.5565    53.029531   -889.52697    1899.3255   -8839.6042    2.1387804    146.31177   0.13789022 
  193500   -937.91222    48.769005   -889.14322    1746.7289   -4441.1157    2.1452199    139.60115   0.16917196 
  193600   -943.88881    47.175788   -896.71302    1689.6657     14573.34    2.2022858    142.95792   0.13462401 
  193700   -936.60408    48.180856   -888.42322    1725.6635   -879.70782     2.149997    147.18688   0.14785889 
  193800   -936.16165    47.532273   -888.62938    1702.4336   -5481.2276    2.1411612    151.08679   0.16819487 
  193900    -942.3039    51.424179   -890.87973    1841.8276    7978.2408    2.1846297     141.4232   0.13845869 
  194000   -948.74751    51.343422   -897.40408    1838.9352    545.51398    2.1831537    140.38359     0.149102 
  194100   -935.57309    49.970906   -885.60219    1789.7766   -14172.009    2.1168483     153.8259   0.17674809 
  194200   -939.31785    50.963822   -888.35402    1825.3393    11809.495    2.1893753    145.63599    0.1468549 
  194300   -943.57631    52.741749   -890.83456    1889.0182    9410.5295    2.1932271    139.72319   0.14827074 
  194400   -936.11422    47.543149   -888.57107    1702.8232   -13744.865    2.1196081    143.94668   0.15782238 
  194500   -934.84537    53.503787   -881.34158    1916.3116   -465.22671    2.1474492    142.17477   0.14714091 
  194600   -938.42213    49.057024    -889.3651    1757.0447     11326.73    2.1897495    144.12445   0.16381169 
  194700   -942.34956    49.841724   -892.50783    1785.1498   -3496.9917    2.1561044     153.8247    0.1553448 
  194800   -940.17107     56.54338   -883.62769    2025.1788   -5283.8583    2.1460829    142.62944   0.15698037 
  194900   -940.67165    51.769492   -888.90216    1854.1955     5945.743    2.1736682    148.30042   0.14123321 
  195000   -943.42524    50.419526   -893.00572    1805.8446   -1750.6773    2.1621601    153.11759    0.1505794 
  195100    -935.1294    47.407258   -887.72214     1697.956    2101.3199    2.1580865    144.35159   0.16614263 
  195200   -936.81302    50.054024     -886.759    1792.7536    3414.4959    2.1613404    152.38736   0.17233881 
  195300   -946.82361    50.890955   -895.93266    1822.7294    2517.4838    2.1805773    144.54439   0.16034953 
  195400   -937.48811     49.06502   -888.42309    1757.3311   -1615.2681    2.1492912    145.99608   0.15945401 
  195500   -938.19561    51.056029   -887.13958    1828.6418   -1626.2129    2.1492723    139.34789   0.15004746 
  195600   -944.43743    47.964757   -896.47267    1717.9236    4826.7011    2.1838184    145.28559   0.15662911 
  195700   -939.77315    49.763882   -890.00927    1782.3618   -2462.6715    2.1546172    141.97797   0.16650514 
  195800   -937.50775    49.571813   -887.93594    1775.4826   -4492.5841    2.1490931    140.84876    0.1692572 
  195900   -942.65859    48.379613   -894.27898    1732.7823    2793.3725    2.1739089    144.69268   0.15100203 
  196000    -940.5508    46.833473   -893.71733    1677.4052      3699.52    2.1733503     141.6981   0.12879403 
  196100   -932.14939    45.864941   -886.28445    1642.7159   -5142.0923    2.1345857    138.46111   0.16833569 
  196200   -940.07548    47.661819   -892.41367    1707.0735   -247.65099    2.1620153    142.25342   0.14215634 
  196300   -942.18411    50.624008    -891.5601    1813.1684    11715.772    2.1909441    145.17762   0.14968701 
  196400   -936.56827    53.598786   -882.96949    1919.7141   -8545.8152     2.125393    143.11049   0.15848086 
  196500   -938.66707    46.721464    -891.9456    1673.3934   -6629.0251    2.1460909     151.7963   0.15715392 
  196600   -941.28096    51.377029   -889.90393    1840.1389     11263.17      2.18907    142.90255    0.1714121 
  196700   -933.60172    49.169705   -884.43202    1761.0805    959.99988    2.1509134    137.57078   0.17603414 
  196800   -932.89557     46.82333   -886.07224    1677.0419   -9551.7518    2.1188934    145.40547   0.17883305 
  196900   -944.30356    52.383807   -891.91975     1876.198    8583.9408    2.1847063    135.44686   0.15891083 
  197000    -934.0708    49.424124   -884.64668    1770.1929    6871.6191    2.1660858    149.59943   0.15575069 
  197100   -938.97298    51.601311   -887.37167    1848.1718   -11602.871    2.1257758    146.32848   0.16230578 
  197200   -941.18472    46.737776   -894.44695    1673.9776     2473.866      2.16844    140.88981   0.15482627 
  197300   -938.72877    50.485238   -888.24353    1808.1981    6573.1834    2.1747822    129.05329    0.1451057 
  197400   -937.90571    51.084943   -886.82077    1829.6774   -2473.8537    2.1453395    145.98759    0.1548574 
  197500   -942.83265    47.600809   -895.23184    1704.8884   -408.93032    2.1609999    141.92029   0.12337381 
  197600   -936.27196    47.351354   -888.92061    1695.9538    7019.1004    2.1693467    142.86658    0.1507924 
  197700   -937.33776    51.053301   -886.28446    1828.5441    363.97428    2.1545102    146.24405   0.14704115 
  197800   -944.04193    48.213614   -895.82832    1726.8368   -4060.2852    2.1583932    150.12035   0.12660149 
  197900   -937.49728    48.235856   -889.26143    1727.6334    3378.5847    2.1617743    143.22763   0.13842169 
  198000   -938.34436    52.095733   -886.24863    1865.8802    2635.9779    2.1615989    146.65824   0.16304727 
  198100   -944.50261    48.616294   -895.88632    1741.2593   -4495.0507    2.1608549    141.89145   0.14973136 
  198200   -940.63601    50.755764   -889.88025    1817.8874   -3562.8772     2.147007    153.12519   0.17141307 
  198300   -937.05303    51.732949   -885.32008    1852.8866    8411.4672    2.1731078    145.96279   0.15421098 
  198400   -940.99046    46.772386   -894.21807    1675.2172    320.92286    2.1638544    147.82207   0.13970645 
  198500   -939.71377    50.138656   -889.57511    1795.7848   -11767.169    2.1272437    147.27178   0.14796996 
  198600   -937.67925    53.374157   -884.30509    1911.6687    10520.167    2.1742858    143.77648   0.14038879 
  198700   -938.14342    47.502139   -890.64129    1701.3543    6955.6139    2.1732043    146.61881   0.15784753 
  198800   -938.47748    44.260029   -894.21745    1585.2337   -11857.972    2.1296253     152.5425   0.17873399 
  198900   -937.11805    52.518995   -884.59906    1881.0399    4796.6955     2.162351     149.3187   0.15262299 
  199000   -941.00881    54.262607   -886.74621    1943.4898     8108.443    2.1809711    139.98812   0.13699665 
  199100   -939.06103    45.205428    -893.8556    1619.0945   -5731.7823    2.1413126    150.58884   0.14413996 
  199200   -939.39704    51.022472   -888.37457    1827.4399   -1932.3507      2.15544     144.3282   0.15072177 
  199300   -937.26722    53.497789   -883.76943    1916.0968    5777.5212    2.1681858    148.42397   0.15332179 
  199400   -944.93314    50.336583   -894.59656    1802.8738   -4408.9367    2.1585378    153.34048   0.13972039 
  199500   -940.63839    48.143659   -892.49473    1724.3313   -7287.5067    2.1430065    141.85188   0.14669591 
  199600   -935.10607    48.221539   -886.88453    1727.1207     5824.157     2.165887    145.41722   0.15001561 
  199700   -944.80447    50.319798   -894.48467    1802.2727   -391.92662    2.1678187    145.08484   0.13279167 
  199800   -944.22251    49.061027   -895.16149    1757.1881   -3657.9902    2.1527865    147.38956   0.14865482 
  199900   -941.03958    53.058822   -887.98076    1900.3746    385.39235    2.1612074     156.8267   0.14515102 
  200000   -944.37462    52.690825   -891.68379    1887.1943    10.953119    2.1668876    143.00829   0.15023656 
  200100   -942.30226    43.697616   -898.60464    1565.0901   -1421.6088    2.1638467    140.89693   0.14208503 
  200200   -939.33168    50.937868   -888.39381    1824.4097    -2173.709    2.1485628    137.58965   0.14126462 
  200300   -943.97539    55.347646   -888.62774    1982.3519    7455.7448    2.1787757    145.12495   0.14077585 
  200400   -943.28498    49.098241   -894.18674     1758.521   -2500.0937    2.1587933    143.22965   0.15663969 
  200500   -937.76058    52.684073   -885.07651    1886.9524   -12573.908    2.1238639    148.20977   0.17176616 
  200600   -938.33842    53.434825   -884.90359    1913.8417    15355.772     2.195914    151.70752   0.16279595 
  200700   -941.68056    51.298602   -890.38196    1837.3299    -888.0104    2.1579461    137.39912   0.13858219 
  200800   -938.86529    46.693226   -892.17206     1672.382   -14859.523    2.1206926    150.60355    0.1415256 
  200900   -936.80111    52.278726   -884.52238    1872.4344    12415.224    2.1879145    141.12891   0.16280826 
  201000   -938.43815    53.599806   -884.83835    1919.7507    1708.1692    2.1640309    148.35819   0.16662119 
  201100   -940.48771    46.972482   -893.51522    1682.3839   -8839.9681    2.1423043    150.41942   0.16899053 
  201200   -942.13549    52.490626   -889.64487    1880.0239    2011.6816    2.1660074    147.37158   0.14038105 
  201300   -935.84366    51.288634   -884.55503    1836.9729    6493.3303    2.1670409    142.22744   0.16723265 
  201400   -939.81101    50.830032   -888.98098    1820.5474   -10495.321    2.1353908    140.33917   0.14165118 
  201500   -944.67014    50.758488   -893.91166    1817.9849   -1913.7817    2.1624918    144.31023   0.13992658 
  201600   -943.73342    55.207419   -888.52601    1977.3295    7787.1293    2.1836979    145.34557   0.14662092 
  201700   -940.62753    50.714441   -889.91309    1816.4074    -6026.467    2.1430555    144.75699   0.14407594 
  201800   -942.35147    42.171031   -900.18044    1510.4134    1022.8911    2.1677262    142.28496   0.15813648 
  201900    -942.6984    50.677613   -892.02078    1815.0883     4900.275    2.1778394    139.94467   0.15097921 
  202000   -941.25604    52.649346   -888.60669    1885.7086    1293.3007    2.1599798    147.75965   0.12244689 
  202100   -942.78945    50.680333   -892.10911    1815.1858   -8658.6864     2.145792    143.28496   0.15105337 
  202200   -946.43624    47.743559   -898.69268    1710.0011    4125.8301      2.18683    144.72925   0.13594462 
  202300    -941.2508    52.963947   -888.28685    1896.9765    2602.5494    2.1648887    144.86963   0.14181959 
  202400    -937.9855    48.109705    -889.8758    1723.1152    -6929.145    2.1386518    143.18272   0.14588954 
  202500   -945.16574    51.578263   -893.58748    1847.3463    1308.3232    2.1727053    143.40493    0.1126572 
  202600   -944.81886    46.716591   -898.10227    1673.2189    12426.721    2.2056976    138.50571   0.13560319 
  202700   -935.72275    48.005091   -887.71766    1719.3683   -14046.559    2.1132684    150.88051   0.15554234 
  202800   -939.90189    50.261063   -889.64082     1800.169   -5263.9873    2.1452998    159.53417   0.16072222 
  202900   -943.77482    53.171903   -890.60292    1904.4247    20136.605    2.2147502    148.55326   0.16034842 
  203000   -936.39613    53.895563   -882.50057    1930.3436   -5777.5888    2.1330983    139.80529   0.14803118 
  203100   -936.75134    52.808838    -883.9425    1891.4211   -8326.3992    2.1311987    145.84791   0.12257513 
  203200    -943.9494    54.487576   -889.46182    1951.5474    3688.5385    2.1745263    136.14376   0.12943441 
Loop time of 140.775 on 1 procs for 200000 steps with 217 atoms

Performance: 368.246 ns/day, 0.065 hours/ns, 1420.702 timesteps/s
100.0% CPU use with 1 MPI tasks x no OpenMP threads

MPI task timing breakdown:
Section |  min time  |  avg time  |  max time  |%varavg| %total
---------------------------------------------------------------
Pair    | 133.99     | 133.99     | 133.99     |   0.0 | 95.18
Neigh   | 3.6312     | 3.6312     | 3.6312     |   0.0 |  2.58
Comm    | 0.95088    | 0.95088    | 0.95088    |   0.0 |  0.68
Output  | 0.069137   | 0.069137   | 0.069137   |   0.0 |  0.05
Modify  | 1.8302     | 1.8302     | 1.8302     |   0.0 |  1.30
Other   |            | 0.3078     |            |       |  0.22

Nlocal:    217 ave 217 max 217 min
Histogram: 1 0 0 0 0 0 0 0 0 0
Nghost:    957 ave 957 max 957 min
Histogram: 1 0 0 0 0 0 0 0 0 0
Neighs:    4202 ave 4202 max 4202 min
Histogram: 1 0 0 0 0 0 0 0 0 0
FullNghs:  8404 ave 8404 max 8404 min
Histogram: 1 0 0 0 0 0 0 0 0 0

Total # of neighbors = 8404
Ave neighs/atom = 38.7281
Neighbor list builds = 6164
Dangerous builds = 67
Total wall time: 0:02:23
