LAMMPS (3 Mar 2020)
Reading data file ...
  orthogonal box = (0 0 0) to (17.469 17.469 17.469)
  1 by 1 by 1 MPI processor grid
  reading atoms ...
  217 atoms
  read_data CPU = 0.00101846 secs
Reading potential file library.meam with DATE: 2012-06-29
Reading potential file LiSi.meam with DATE: 2020-11-07
1 atoms in group Li
Neighbor list info ...
  update every 1 steps, delay 10 steps, check yes
  max neighbors/atom: 2000, page size: 100000
  master list distance cutoff = 6
  ghost atom cutoff = 6
  binsize = 3, bins = 6 6 6
  2 neighbor lists, perpetual/occasional/extra = 2 0 0
  (1) pair meam/c, perpetual
      attributes: full, newton on
      pair build: full/bin/atomonly
      stencil: full/bin/3d
      bin: standard
  (2) pair meam/c, perpetual, half/full from (1)
      attributes: half, newton on
      pair build: halffull/newton
      stencil: none
      bin: none
Setting up Verlet run ...
  Unit style    : metal
  Current step  : 0
  Time step     : 0.0027278
Per MPI rank memory allocation (min/avg/max) = 9.27 | 9.27 | 9.27 Mbytes
Step PotEng KinEng TotEng Temp Press Density c_msdli[4] 
       0   -951.04357    50.256344   -900.78722         1800   -114161.75    1.8918427            0 
     100    -926.8366    26.248045   -900.58856    940.10979   -92279.081    1.8918427   0.10595161 
     200     -926.134    25.573542   -900.56046    915.95153   -91458.117    1.8918427  0.096472413 
     300   -928.48694    27.861102   -900.62584    997.88363    -93930.45    1.8918427  0.030451128 
     400   -926.87088    26.270982    -900.5999     940.9313   -93244.556    1.8918427  0.064485946 
     500   -925.67816    25.101466    -900.5767    899.04348   -91073.903    1.8918427  0.024322287 
     600   -927.45815    26.856583   -900.60157    961.90539   -92446.026    1.8918427   0.11416522 
     700   -926.89331    26.300563   -900.59274     941.9908   -92289.083    1.8918427  0.047330504 
     800   -925.60054    25.001855   -900.59868    895.47576   -91572.734    1.8918427  0.045564589 
     900    -927.5724    26.985256   -900.58714      966.514   -91997.163    1.8918427  0.055808887 
    1000   -924.89538    24.324987   -900.57039    871.23283   -91479.018    1.8918427  0.075979316 
    1100   -925.84804    25.278041      -900.57    905.36776   -89952.479    1.8918427  0.080076988 
    1200   -928.30638      27.6838   -900.62258    991.53331   -94397.249    1.8918427  0.087363661 
    1300    -927.4277    26.844506   -900.58319    961.47284   -93121.579    1.8918427  0.041145403 
    1400   -927.01336    26.408616   -900.60475    945.86086   -93443.345    1.8918427 0.0095116983 
    1500   -925.42228    24.833104   -900.58917    889.43172   -91973.868    1.8918427  0.087643149 
    1600    -928.8466    28.226328   -900.62027    1010.9647   -95008.204    1.8918427   0.01812246 
    1700   -925.15082    24.564954   -900.58586    879.82757   -92017.246    1.8918427   0.10200104 
    1800    -927.7771    27.190702    -900.5864    973.87233   -93011.504    1.8918427   0.04638471 
    1900   -926.70625    26.122682   -900.58357    935.61975   -93786.035    1.8918427   0.18978342 
    2000   -926.95751    26.354484   -900.60303    943.92205   -93056.805    1.8918427  0.071801787 
    2100   -925.03937    24.446158   -900.59321    875.57273    -91934.05    1.8918427  0.085368481 
    2200   -926.48781    25.884847   -900.60296    927.10136   -93806.822    1.8918427  0.023471326 
    2300   -928.17888    27.558838   -900.62005    987.05764   -94698.813    1.8918427  0.091382101 
    2400   -927.97562    27.371702   -900.60392    980.35509   -94133.466    1.8918427   0.07441109 
    2500   -925.52549    24.969052   -900.55644     894.3009   -92343.994    1.8918427  0.054162463 
    2600   -927.30411    26.697903   -900.60621    956.22206   -94275.682    1.8918427  0.022735075 
    2700   -926.34067    25.763207   -900.57747    922.74464   -92249.662    1.8918427  0.017011854 
    2800   -926.19483    25.605875   -900.58895    917.10959   -93130.151    1.8918427  0.035003268 
    2900   -926.81447     26.24356   -900.57091    939.94913   -92682.658    1.8918427   0.05860208 
    3000   -925.56586    24.986663    -900.5792    894.93164   -93261.691    1.8918427  0.066958363 
    3100   -927.36226    26.767197   -900.59507    958.70391   -93553.015    1.8918427  0.059449697 
    3200   -927.77772     27.13875   -900.63897     972.0116   -94312.958    1.8918427  0.034201687 
    3300   -927.42399    26.819234   -900.60475    960.56771   -93085.352    1.8918427  0.058914201 
    3400   -926.12207    25.533938   -900.58813    914.53305   -93183.012    1.8918427   0.11853523 
    3500   -925.69605    25.114181   -900.58187     899.4989   -93523.653    1.8918427  0.044264571 
    3600   -928.48975     27.89712   -900.59263    999.17365   -94537.978    1.8918427  0.045718789 
    3700   -928.01945    27.424041   -900.59541    982.22969   -93845.472    1.8918427  0.056288001 
    3800   -927.23365    26.637593   -900.59605    954.06199   -94503.265    1.8918427 0.0088787674 
    3900   -925.48889    24.926755   -900.56214    892.78595   -93253.774    1.8918427  0.014656828 
    4000    -927.0316    26.451645   -900.57996    947.40198   -93506.373    1.8918427  0.065348657 
    4100   -925.35294    24.780632   -900.57231    887.55236    -92909.63    1.8918427   0.10165037 
    4200   -925.38212    24.815175   -900.56695    888.78958   -90381.607    1.8918427   0.15542114 
    4300   -925.40984    24.841759   -900.56808    889.74172   -92629.205    1.8918427 0.0042250777 
    4400   -928.03677    27.435226   -900.60154    982.63029   -94555.372    1.8918427  0.015826473 
    4500   -929.01988    28.406549   -900.61333    1017.4196   -95751.371    1.8918427  0.028715541 
    4600   -925.21401     24.62804   -900.58597    882.08707   -91239.339    1.8918427  0.021036457 
    4700   -926.31695    25.728765   -900.58819    921.51104   -94214.267    1.8918427  0.074706677 
    4800   -927.14509    26.548076   -900.59702    950.85579    -92933.76    1.8918427  0.030750415 
    4900   -925.58702    25.004276   -900.58275    895.56248   -92507.831    1.8918427   0.03458207 
    5000   -925.87575    25.288865   -900.58688    905.75544   -92761.025    1.8918427  0.034564461 
    5100   -925.75188    25.170781    -900.5811    901.52609   -91737.971    1.8918427  0.023773501 
    5200   -924.40378    23.825492   -900.57829    853.34271   -91670.881    1.8918427    0.3475417 
    5300   -926.97333    26.360271   -900.61306    944.12931   -93036.609    1.8918427   0.15968764 
    5400   -928.02616    27.445804   -900.58036    983.00918   -93650.788    1.8918427  0.058413332 
    5500   -926.03123    25.457802   -900.57343    911.80613   -92998.422    1.8918427  0.033085846 
    5600   -926.37066    25.782002   -900.58866    923.41783    -92778.93    1.8918427   0.11378467 
    5700   -926.83775    26.233969   -900.60378    939.60564   -93248.681    1.8918427  0.036198791 
    5800   -924.46373    23.881963   -900.58176     855.3653   -89977.599    1.8918427  0.035686467 
    5900   -927.00237    26.385641   -900.61672    945.03799   -93250.189    1.8918427  0.067895309 
    6000   -927.93597    27.332618   -900.60335    978.95526   -94645.255    1.8918427   0.12381785 
    6100   -925.08075    24.501213   -900.57953    877.54459   -90805.245    1.8918427  0.054308007 
    6200    -928.4764    27.873821   -900.60258    998.33919   -94238.008    1.8918427   0.19716315 
    6300   -928.56696    27.947087   -900.61988    1000.9633   -93655.917    1.8918427  0.015214076 
    6400   -926.48398      25.8969   -900.58708    927.53306   -93499.013    1.8918427  0.030909881 
    6500   -927.77366     27.17009   -900.60357     973.1341   -95236.356    1.8918427  0.016932298 
    6600    -927.1487    26.536946   -900.61175    950.45716   -94442.758    1.8918427   0.15598816 
    6700   -927.62374    27.017407   -900.60633    967.66554   -94084.003    1.8918427  0.032372909 
    6800   -925.79983    25.212136    -900.5877    903.00726   -93123.975    1.8918427  0.054955239 
    6900   -926.53068    25.938916   -900.59176    929.03789   -93893.926    1.8918427  0.043796798 
    7000   -927.24577    26.635552   -900.61021    953.98889   -93120.892    1.8918427   0.27921175 
    7100   -925.58692     24.99605   -900.59087    895.26785   -91536.586    1.8918427  0.086767389 
    7200   -927.05139    26.451503   -900.59989    947.39689    -93927.44    1.8918427  0.081361281 
    7300   -926.29297    25.705086   -900.58788    920.66295   -93460.223    1.8918427  0.025607692 
    7332   -927.47459    26.870677   -900.60391     962.4102   -94362.773    1.8918427 0.0087173109 
Loop time of 3.88363 on 1 procs for 7332 steps with 217 atoms

Performance: 444.949 ns/day, 0.054 hours/ns, 1887.925 timesteps/s
100.0% CPU use with 1 MPI tasks x no OpenMP threads

MPI task timing breakdown:
Section |  min time  |  avg time  |  max time  |%varavg| %total
---------------------------------------------------------------
Pair    | 3.8239     | 3.8239     | 3.8239     |   0.0 | 98.46
Neigh   | 0          | 0          | 0          |   0.0 |  0.00
Comm    | 0.030602   | 0.030602   | 0.030602   |   0.0 |  0.79
Output  | 0.0021521  | 0.0021521  | 0.0021521  |   0.0 |  0.06
Modify  | 0.016499   | 0.016499   | 0.016499   |   0.0 |  0.42
Other   |            | 0.01045    |            |       |  0.27

Nlocal:    217 ave 217 max 217 min
Histogram: 1 0 0 0 0 0 0 0 0 0
Nghost:    957 ave 957 max 957 min
Histogram: 1 0 0 0 0 0 0 0 0 0
Neighs:    3702 ave 3702 max 3702 min
Histogram: 1 0 0 0 0 0 0 0 0 0
FullNghs:  7404 ave 7404 max 7404 min
Histogram: 1 0 0 0 0 0 0 0 0 0

Total # of neighbors = 7404
Ave neighs/atom = 34.1198
Neighbor list builds = 0
Dangerous builds = 0
Total wall time: 0:00:03
