LAMMPS (3 Mar 2020)

# ---------- 1. Initialize simulation ----------
units metal
atom_style atomic
dimension 3
boundary p p p
read_data /home/modeler/RemLabs/Project/Si_3x3x3_supercell_MD/1800/20201204-035759/lammps.data
  orthogonal box = (0 0 0) to (17.469 17.469 17.469)
  1 by 1 by 1 MPI processor grid
  reading atoms ...
  217 atoms
  read_data CPU = 0.00110984 secs

pair_style meam/c
pair_coeff * * library.meam Li Si LiSi.meam Li Si
Reading potential file library.meam with DATE: 2012-06-29
Reading potential file LiSi.meam with DATE: 2020-11-07

group Li type 1
1 atoms in group Li

velocity all create 1800 3320 dist gaussian

# ---------- 2. Describe computed properties----------
compute msdli Li msd
thermo_style custom step pe ke etotal temp press density c_msdli[4]
thermo 100

# ---------- 3. Specify ensemble  ----------
#fix 1 all nve
fix 1 all nvt temp 1800 1800 0.1498710625797352
#fix 1 all npt temp 1800 1800 0.1498710625797352 tchain 2 iso 1.0 1.0 1.0 pchain 2

# ---------- 4. Run -------------
timestep 0.002997421251594704
run 1669
Neighbor list info ...
  update every 1 steps, delay 10 steps, check yes
  max neighbors/atom: 2000, page size: 100000
  master list distance cutoff = 6
  ghost atom cutoff = 6
  binsize = 3, bins = 6 6 6
  2 neighbor lists, perpetual/occasional/extra = 2 0 0
  (1) pair meam/c, perpetual
      attributes: full, newton on
      pair build: full/bin/atomonly
      stencil: full/bin/3d
      bin: standard
  (2) pair meam/c, perpetual, half/full from (1)
      attributes: half, newton on
      pair build: halffull/newton
      stencil: none
      bin: none
Per MPI rank memory allocation (min/avg/max) = 9.266 | 9.266 | 9.266 Mbytes
Step PotEng KinEng TotEng Temp Press Density c_msdli[4] 
       0   -951.06911    50.256344   -900.81276         1800    -114182.3    1.8918427            0 
     100   -919.48943    35.806656   -883.68277    1282.4646   -82346.457    1.8918427  0.047140347 
     200   -904.78278     45.96768    -858.8151    1646.3956   -65552.646    1.8918427   0.23261619 
     300    -894.0375    48.817876   -845.21963    1748.4793   -55773.593    1.8918427   0.14256848 
     400   -904.67682    48.440675   -856.23615    1734.9693   -65513.876    1.8918427   0.24185393 
     500   -901.28653    44.419219   -856.86731    1590.9353   -66784.116    1.8918427  0.061181515 
     600   -896.44665    49.090019   -847.35663    1758.2264   -62068.181    1.8918427  0.068846143 
     700   -904.15951     50.51112   -853.64839    1809.1251   -67301.201    1.8918427  0.088613828 
     800   -905.00186    48.931113   -856.07074     1752.535   -67117.225    1.8918427   0.10933708 
     900   -901.81115    54.116979   -847.69417    1938.2739   -64034.406    1.8918427   0.18358166 
    1000   -904.13626    51.230007   -852.90626    1834.8731   -66097.037    1.8918427  0.037326104 
    1100   -901.63188    48.949502   -852.68238    1753.1937   -62787.602    1.8918427  0.053811824 
    1200   -899.15212    51.485905   -847.66621    1844.0384   -61474.125    1.8918427   0.17756665 
    1300   -902.57425    52.021845    -850.5524    1863.2338   -63433.225    1.8918427   0.10096984 
    1400   -905.16776    49.622969   -855.54479    1777.3148   -69056.291    1.8918427    0.1946788 
    1500   -901.31331    54.581333   -846.73198    1954.9054   -64942.119    1.8918427   0.39887465 
    1600   -903.15493    47.533871   -855.62106    1702.4909   -68233.748    1.8918427    0.4225678 
    1669   -907.47227    50.477091   -856.99518    1807.9064   -69039.867    1.8918427   0.33595163 
Loop time of 0.940572 on 1 procs for 1669 steps with 217 atoms

Performance: 459.543 ns/day, 0.052 hours/ns, 1774.452 timesteps/s
100.0% CPU use with 1 MPI tasks x no OpenMP threads

MPI task timing breakdown:
Section |  min time  |  avg time  |  max time  |%varavg| %total
---------------------------------------------------------------
Pair    | 0.88889    | 0.88889    | 0.88889    |   0.0 | 94.51
Neigh   | 0.033949   | 0.033949   | 0.033949   |   0.0 |  3.61
Comm    | 0.0079193  | 0.0079193  | 0.0079193  |   0.0 |  0.84
Output  | 0.00050326 | 0.00050326 | 0.00050326 |   0.0 |  0.05
Modify  | 0.0071954  | 0.0071954  | 0.0071954  |   0.0 |  0.77
Other   |            | 0.002117   |            |       |  0.23

Nlocal:    217 ave 217 max 217 min
Histogram: 1 0 0 0 0 0 0 0 0 0
Nghost:    904 ave 904 max 904 min
Histogram: 1 0 0 0 0 0 0 0 0 0
Neighs:    3619 ave 3619 max 3619 min
Histogram: 1 0 0 0 0 0 0 0 0 0
FullNghs:  7238 ave 7238 max 7238 min
Histogram: 1 0 0 0 0 0 0 0 0 0

Total # of neighbors = 7238
Ave neighs/atom = 33.3548
Neighbor list builds = 61
Dangerous builds = 0
Total wall time: 0:00:00
