LAMMPS (3 Mar 2020)

    # ---------- Initialize simulation ---------------------
    units metal
    atom_style atomic
    dimension  3
    boundary   p p p
    read_data /home/modeler/RemLabs/Lab4/ProblemEC1_v2_size_4/temp_1150/lammps.data
  orthogonal box = (0 0 0) to (16.36 16.36 16.36)
  1 by 1 by 1 MPI processor grid
  reading atoms ...
  256 atoms
  read_data CPU = 0.00100997 secs

    pair_style eam
    pair_coeff * * /usr/share/lammps-stable/potentials/Ag_u3.eam
Reading potential file /usr/share/lammps-stable/potentials/Ag_u3.eam with DATE: 2007-06-11

    velocity  all create 1150 87287 dist gaussian

    # ---------- Describe computed properties------------------
    compute msdall all msd
    thermo_style custom step pe ke etotal temp press density c_msdall[4]
    thermo 100

    # ---------- Specify ensemble  ---------------------
    #fix  1 all nve
    #fix  1 all nvt temp 1150 1150 0.25
    fix 1 all npt temp 1150 1150 0.25 tchain 2 iso 1.0 1.0 1.0 pchain 2

    # --------- Compute RDF ---------------
    compute rdfall all rdf 100 1 1
    fix 2 all ave/time 1 125000 125000 c_rdfall[*] file /home/modeler/RemLabs/Lab4/ProblemEC1_v2_size_4/temp_1150/lammps.rdf mode vector

    # --------- Run -------------
    timestep 0.005
    run 500000
Neighbor list info ...
  update every 1 steps, delay 10 steps, check yes
  max neighbors/atom: 2000, page size: 100000
  master list distance cutoff = 7.55
  ghost atom cutoff = 7.55
  binsize = 3.775, bins = 5 5 5
  2 neighbor lists, perpetual/occasional/extra = 1 1 0
  (1) pair eam, perpetual
      attributes: half, newton on
      pair build: half/bin/atomonly/newton
      stencil: half/bin/3d/newton
      bin: standard
  (2) compute rdf, occasional, copy from (1)
      attributes: half, newton on
      pair build: copy
      stencil: none
      bin: none
Per MPI rank memory allocation (min/avg/max) = 3.744 | 3.744 | 3.744 Mbytes
Step PotEng KinEng TotEng Temp Press Density c_msdall[4] 
       0       -729.6    37.905538   -691.69446         1150    9246.3245    10.472245            0 
     100   -708.16028    20.010305   -688.14998    607.08414   -9894.1713    9.9856519  0.065057184 
     200   -705.55876    20.966282   -684.59248    636.08713   -1304.6846    10.031304  0.078195863 
     300   -705.56937    24.434433   -681.13494    741.30588    3066.6651    10.066989  0.074088314 
     400   -703.21429    25.344089    -677.8702    768.90355   -5615.5202    9.9392565  0.088523261 
     500   -700.63589    25.944613   -674.69127    787.12259    2491.4251    9.9789991  0.094401728 
     600   -697.93875    26.403636   -671.53511    801.04871    1814.2292    9.9296407   0.11193669 
     700   -696.01751    27.596184   -668.42133    837.22891    649.06594    9.8808072   0.11747963 
     800   -694.45697    29.149412   -665.30756    884.35162     1858.102    9.8573243   0.13233398 
     900   -694.39178    32.254941   -662.13684    978.56894   -10397.677    9.7196939   0.14218736 
    1000   -690.52366     31.48512   -659.03854    955.21367   -426.85397    9.7653275   0.14679062 
    1100   -688.59244    32.495606   -656.09683     985.8704    12416.413    9.8634861   0.15579356 
    1200   -687.57307    34.389605   -653.18346    1043.3316   -11062.598    9.5951506   0.17562547 
    1300   -685.43146    35.227133   -650.20433     1068.741   -6157.0487    9.6076824   0.19297677 
    1400   -686.40184    39.129983   -647.27186    1187.1479    2367.7334      9.70665   0.19624497 
    1500   -684.93544    40.237155   -644.69829     1220.738   -4156.7714    9.5963718   0.19980755 
    1600    -681.5503    37.573571   -643.97672    1139.9286   -5679.5858    9.5436605   0.23075529 
    1700   -678.00086    42.148332   -635.85253    1278.7203    2764.1451    9.5534089   0.22499882 
    1800   -679.46661    39.383218   -640.08339    1194.8307    5747.8212    9.6208524   0.19621297 
    1900   -681.59205    36.900761   -644.69129    1119.5165    -6918.839    9.5350543   0.19328021 
    2000   -684.97978    39.240311   -645.73947    1190.4951    9155.6191    9.7466498   0.16452626 
    2100   -682.12319    40.648093    -641.4751    1233.2052    4476.6578    9.6564069    0.2118012 
    2200    -678.2751    37.596984   -640.67812    1140.6389   -4107.9865    9.5059336   0.24190626 
    2300    -684.3675    37.570167   -646.79733    1139.8253    1528.5493    9.6536172   0.18395184 
    2400   -684.95447    39.166927   -645.78755    1188.2688    -1933.592    9.6244649   0.17365276 
    2500    -677.8687    37.617123   -640.25157    1141.2499   -5096.8626    9.4843327   0.25625234 
    2600   -679.76827    34.161633   -645.60664    1036.4153    2557.4751    9.5932311   0.22585141 
    2700   -684.37415    37.943201   -646.43095    1151.1427   -5136.7053    9.5925095    0.1837437 
    2800   -683.96384    40.593385   -643.37046    1231.5455    5858.6026    9.7097749   0.16786795 
    2900   -680.93895    42.438491   -638.50046    1287.5234    1515.7548    9.6112461    0.2010708 
    3000   -684.40055     39.45467   -644.94588    1196.9985   -8371.4382    9.5507029   0.19229757 
    3100   -684.04805    38.098803   -645.94925    1155.8634    1164.7127     9.646599   0.19540293 
    3200   -681.40048    36.715777   -644.68471    1113.9044    3509.8796    9.6296306   0.19609005 
    3300   -679.58607    36.601471    -642.9846    1110.4365   -1582.6929    9.5465707   0.21011203 
    3400   -684.12641    35.955065   -648.17135    1090.8254    4602.5576    9.6985297   0.19080805 
    3500   -685.72768    36.310748   -649.41693    1101.6164    6320.8811    9.7453622    0.1541275 
    3600   -683.63698    37.685874   -645.95111    1143.3357   -4557.2648    9.5939089   0.20356353 
    3700   -681.68974    38.341194   -643.34854    1163.2172      2615.49    9.6254251   0.19839902 
    3800   -684.78818    34.416206   -650.37198    1044.1387    4937.7991    9.7237376   0.19365728 
    3900    -682.1891    34.607003    -647.5821    1049.9272   -2598.4172    9.5986775   0.22059285 
    4000   -680.73616    37.325377   -643.41078    1132.3988   -6305.5674    9.5101742   0.21821515 
    4100   -687.00477    40.705845   -646.29892    1234.9573     5135.366    9.7261273   0.20105597 
    4200   -686.17313    35.246403   -650.92673    1069.3256    6333.7397    9.7505874    0.1720114 
    4300   -681.53286    37.425537   -644.10732    1135.4375   -5153.3489    9.5275474   0.21056283 
    4400   -681.38358    37.159901   -644.22368    1127.3785   -5054.8922    9.5476946   0.20955468 
    4500   -683.69679     35.64258   -648.05421    1081.3451    5894.0294    9.7088519   0.18297436 
    4600   -682.59525    36.919943   -645.67531    1120.0985    6528.9126    9.6981842   0.19373754 
    4700   -682.74638    41.482898   -641.26348     1258.532   -5906.6237    9.5525572   0.19398529 
    4800   -684.78486     39.39014   -645.39472    1195.0407   -75.509102    9.6591776   0.18482592 
    4900    -684.9974    35.550017   -649.44739    1078.5369   -3902.3231    9.6381693   0.20747411 
    5000   -680.64272    37.899494   -642.74322    1149.8167   -917.80657    9.5801831   0.24306751 
    5100   -684.73612    41.748226   -642.98789    1266.5817    1827.5849    9.6553122     0.181978 
    5200   -683.51343    36.212241   -647.30118    1098.6278   -8884.6798    9.5456429   0.19186207 
    5300   -683.81816    39.316246   -644.50191    1192.7989    3146.7231    9.6772183    0.1606589 
    5400   -684.92821     44.65022   -640.27799    1354.6241      6082.17    9.7113908   0.18516946 
    5500   -684.28887    35.380067   -648.90881    1073.3808    4200.9334    9.7105701    0.1748486 
    5600   -685.86699    37.794274   -648.07271    1146.6244   -8563.1057    9.5874411   0.18227739 
    5700   -684.57826    40.791927   -643.78634     1237.569    3413.6637    9.6884372   0.19240029 
    5800   -681.18462    38.605795   -642.57883    1171.2448     8007.153    9.6690932   0.23652474 
    5900   -686.79685    36.769356    -650.0275    1115.5299   -9399.1466    9.5937239   0.19733932 
    6000   -684.00413    37.924164   -646.07997    1150.5651      5383.39    9.7031269   0.18298055 
    6100   -680.77919     37.41536   -643.36382    1135.1287    5076.8819     9.634321   0.19953895 
    6200   -684.88053    38.010158   -646.87038     1153.174   -7752.6264    9.5719208   0.19400712 
    6300   -689.94185    38.995642   -650.94621    1183.0722   -4746.9379    9.6899166    0.1647738 
    6400   -681.58053    37.457374   -644.12316    1136.4034     4750.475      9.65024   0.21010095 
    6500   -682.27869    38.073912   -644.20478    1155.1083   -5580.6232    9.5380149   0.21463604 
    6600   -686.35116    36.117931   -650.23323    1095.7666   -4505.4851    9.6372229   0.17526283 
    6700   -683.38732    37.297188   -646.09014    1131.5435    12877.943    9.7802188   0.16530109 
    6800   -679.89301    37.448497   -642.44451     1136.134   -662.00377    9.5712409   0.21039208 
    6900    -684.5281    36.368187   -648.15991     1103.359   -11989.054     9.520027   0.19935042 
    7000   -684.49046    36.512896   -647.97756    1107.7492    7397.5729    9.7323714    0.1887476 
    7100   -683.47825     40.76962   -642.70863    1236.8922   -2149.7582    9.6031638    0.2027759 
    7200    -683.1153    36.399575   -646.71572    1104.3112   -3371.8019    9.6053846   0.20477886 
    7300   -686.60996    37.550949   -649.05902    1139.2423    4623.6831    9.7367669   0.17552833 
    7400   -683.46829    41.644137   -641.82416    1263.4238    365.26925    9.6390753   0.19586862 
    7500   -683.35511    38.912567   -644.44254    1180.5518   -2489.2667    9.5991351   0.20324249 
    7600   -685.81703    35.714776   -650.10225    1083.5354   -5673.4431    9.6172115    0.1937458 
    7700   -683.96245    38.949712   -645.01274    1181.6788   -3401.4235    9.5995411   0.19755688 
    7800   -684.00816    41.674496   -642.33366    1264.3448     11460.29    9.7578487   0.17361754 
    7900   -684.83336     36.79172   -648.04164    1116.2084   -1557.3331    9.6340072   0.19078563 
    8000   -682.86646    36.924844   -645.94162    1120.2472   -8454.3946    9.5342624   0.22075446 
    8100   -682.14351    39.592162   -642.55134    1201.1698   -49.151641       9.6048   0.21120503 
    8200   -683.79628    35.732533   -648.06375    1084.0741    4436.5086     9.692495   0.19904659 
    8300   -682.59078    36.455185    -646.1356    1105.9984    6027.3443     9.671923   0.20408379 
    8400   -681.65097    40.522927   -641.12804    1229.4079   -2644.8897    9.5601483   0.22124744 
    8500   -686.34899    38.872825   -647.47616    1179.3461   -7325.6165    9.6040601   0.18781081 
    8600    -683.8748    37.135854   -646.73894    1126.6489    266.92593    9.6371218   0.19252441 
    8700    -680.7944    39.315615   -641.47878    1192.7797   -5721.4931    9.5282278   0.22824129 
    8800   -682.60888    37.246796   -645.36208    1130.0147    10882.706    9.7472385   0.19489307 
    8900   -686.98697    39.482496   -647.50447    1197.8427   -5159.0467    9.6322948   0.17353631 
    9000   -682.41518    37.801277   -644.61391    1146.8369   -3030.3574    9.5801416   0.21021285 
    9100   -679.58645    38.135779   -641.45067    1156.9852    10015.528    9.6798885   0.24873143 
    9200   -686.40655    36.841496   -649.56505    1117.7185   -7656.2405     9.603056   0.21264194 
    9300   -683.13396    35.886246   -647.24772    1088.7376   -4758.6836    9.5817748   0.21060231 
    9400   -682.79943    40.603145   -642.19628    1231.8416   -30.367557    9.6234528   0.19690691 
    9500   -686.76557    39.840164    -646.9254    1208.6938   -999.23657    9.6725579   0.18720247 
    9600   -686.85373    37.703471   -649.15026    1143.8696   -1997.7419    9.6687304   0.17205871 
    9700   -682.04298    39.494161   -642.54882    1198.1966    495.09424    9.6099621   0.19972797 
    9800   -684.63911    39.119096   -645.52002    1186.8176    3438.8242    9.6894692   0.17255708 
    9900   -684.56705    35.648871   -648.91818    1081.5359   -4280.1071    9.6025894   0.19721751 
   10000   -677.58678    34.596305   -642.99048    1049.6026   -2475.3565    9.5159016   0.24449888 
   10100   -680.92058    38.857957   -642.06263     1178.895    2612.7978    9.6132228   0.19954934 
   10200   -686.52172    38.123665   -648.39805    1156.6177   -1103.1138    9.6756443   0.17468743 
   10300   -683.63377    38.452824   -645.18095    1166.6039    3741.1229    9.6866096   0.17750199 
   10400   -682.41891    40.577041   -641.84187    1231.0496   -3245.0926    9.5797557   0.19446529 
   10500    -681.6195     36.19031   -645.42918    1097.9625     2108.452    9.6219219   0.20693853 
   10600   -684.56456    35.328661    -649.2359    1071.8212   -8400.5083    9.5639623   0.18635033 
   10700   -684.81031     39.53889   -645.27142    1199.5536    909.22584    9.6660648   0.17849149 
   10800   -680.67981    36.804429   -643.87538    1116.5939    11701.438     9.711228   0.21002369 
   10900   -685.03099    37.794869   -647.23612    1146.6425   -10776.327    9.5540701   0.20187686 
   11000   -687.44049    36.356592    -651.0839    1103.0072   -3336.1767    9.6660161   0.18768568 
   11100   -686.32645    40.389901   -645.93655    1225.3721    330.62667     9.688566   0.19091696 
   11200   -681.92291    38.329722   -643.59319    1162.8691     2407.485     9.638011   0.22719984 
   11300   -682.18627    37.860456   -644.32581    1148.6323   -6192.5131    9.5554777    0.2270779 
   11400   -685.81708    35.689871   -650.12721    1082.7798    2647.8143    9.7049786   0.19255658 
   11500   -682.48975    36.880754   -645.60899    1118.9095    2601.4664    9.6563883   0.18657438 
   11600   -682.52008    39.466599   -643.05348    1197.3604   -2502.2615    9.5883781   0.19786317 
   11700   -684.53114    39.791088   -644.74005    1207.2049   -4934.6233    9.5876454   0.21255841 
   11800   -684.46348    33.478003   -650.98547    1015.6749   -352.74036    9.6584845   0.18987491 
   11900   -684.78558    38.892917   -645.89266    1179.9557    -7819.075    9.5666964   0.20714041 
   12000   -682.81274    40.184215   -642.62852    1219.1318    8517.5759    9.7061042   0.16821869 
   12100   -686.75972    38.793227    -647.9665    1176.9312   -190.93883    9.6888882   0.17390419 
   12200   -684.17409    36.785345   -647.38875     1116.015   -710.53382    9.6401136   0.17550687 
   12300   -683.25604    39.914894   -643.34115     1210.961    4408.1967    9.6727389   0.18839008 
   12400   -685.80886    38.118721   -647.69013    1156.4677    1285.1928    9.6750602   0.17760638 
   12500   -683.21703    32.558316   -650.65872    987.77293    1177.6087    9.6443977   0.19497412 
   12600   -681.83391    37.451044   -644.38287    1136.2113   -658.05501    9.5901554   0.21390225 
   12700   -682.72843    37.556394   -645.17204    1139.4075   -3258.3188    9.6001458   0.20555327 
   12800   -685.85838    36.229667   -649.62871    1099.1565    10128.329    9.8005962   0.17096886 
   12900   -684.75967    38.431316   -646.32836    1165.9514    1549.2896    9.6697418   0.18709171 
   13000   -681.35721     37.98485   -643.37236    1152.4062   -12001.345    9.4633244   0.22712287 
   13100   -685.28943    38.727561   -646.56187     1174.939    1403.7038     9.676034   0.16702024 
   13200   -684.98882    35.870836   -649.11799    1088.2701    5625.5058    9.7314254   0.16334176 
   13300   -680.75109    38.898131   -641.85296    1180.1139    3952.6124    9.6378326   0.21233654 
   13400   -682.72307    38.061996   -644.66108    1154.7467   -438.80252    9.6157144   0.20753398 
   13500   -684.76018    35.406825   -649.35335    1074.1926   -3522.4846    9.6260379   0.18720894 
   13600   -684.73138    40.241352   -644.49003    1220.8653   -921.09711    9.6361414    0.1847065 
   13700   -681.34118    39.553241   -641.78794     1199.989    5204.5105    9.6550497     0.191222 
   13800    -684.0697    37.478696   -646.59101    1137.0502    764.97575    9.6588184   0.18880544 
   13900   -684.71416    38.248211   -646.46595    1160.3962   -5168.3659    9.5958028   0.20507239 
   14000    -676.5152    37.625016   -638.89019    1141.4894   -6126.5877    9.4379765   0.28342273 
   14100   -683.69847    40.784882   -642.91359    1237.3552    3835.8982    9.6654582   0.19030549 
   14200   -684.11458    38.385662   -645.72892    1164.5663    3173.1247    9.6830583     0.196914 
   14300   -683.01704    38.298952   -644.71809    1161.9356   -1435.8066    9.6016192   0.19797895 
   14400   -679.57041    41.077337   -638.49307    1246.2279    -5021.788    9.4921889   0.23646965 
   14500   -681.67423    36.425001   -645.24923    1105.0826    1732.7877    9.6217887   0.20898515 
   14600   -684.21271    37.471631   -646.74108    1136.8359    1565.8376    9.6622055   0.19962797 
   14700   -682.91453    41.653108   -641.26142    1263.6959    954.86105    9.6113222   0.20037009 
   14800   -682.27368    36.819549   -645.45413    1117.0527   -6054.0798    9.5415614   0.21561711 
   14900   -685.04784    37.279657   -647.76819    1131.0117   -5712.0764    9.6016588   0.19875592 
   15000    -681.6324    38.697048   -642.93535    1174.0133    2226.6184    9.6343147   0.19532135 
   15100    -682.8624    38.320653   -644.54175     1162.594     -6222.79    9.5537788   0.21945225 
   15200   -687.55144     38.65718   -648.89426    1172.8038   -6571.1098    9.6364158   0.16885447 
   15300   -683.75648    39.575813   -644.18066    1200.6738    1383.5564     9.645377   0.18471887 
   15400   -683.23497    40.960458   -642.27451    1242.6819    7271.8127    9.6945736   0.18265747 
   15500   -683.10735    35.120764   -647.98659    1065.5139   -7072.1537    9.5517715   0.19557163 
   15600   -681.66128    36.778208   -644.88307    1115.7984    1520.6595    9.6196977   0.19215368 
   15700   -681.00176    40.563766     -640.438    1230.6468   -198.60541      9.57175   0.21670938 
   15800    -684.9457     37.32959   -647.61611    1132.5266   -5042.5561    9.6028163   0.20837978 
   15900   -681.95112    35.643258   -646.30786    1081.3657   -6989.8556    9.5465349   0.24302824 
   16000   -683.60664    40.815192   -642.79145    1238.2748    357.32454    9.6281857   0.20542142 
   16100   -685.44145    37.973788   -647.46767    1152.0706    9012.8926    9.7771632   0.16685945 
   16200   -684.11451    34.626302   -649.48821    1050.5127   -4559.9874    9.6074937   0.19274708 
   16300   -680.55813    35.451001   -645.10713    1075.5329   -10552.549     9.482438   0.20948839 
   16400   -682.51917    38.104197   -644.41497     1156.027     6283.155    9.6748619    0.1941088 
   16500   -686.73557     36.48508   -650.25049    1106.9053    1429.0285    9.7033656   0.16707881 
   16600   -686.55793    36.641722   -649.91621    1111.6576    3778.0563    9.7247189   0.17115447 
   16700   -682.10452    37.547807   -644.55671     1139.147   -1545.1902    9.5945491   0.20811529 
   16800   -683.23761    37.960085   -645.27753    1151.6549      -503.02    9.6157668   0.18956025 
   16900   -685.67393    34.403999   -651.26993    1043.7683    10949.725    9.7932861   0.16422633 
   17000   -683.66314    37.959436    -645.7037    1151.6352    -4744.879    9.5733459   0.19670665 
   17100   -680.83674    38.329135   -642.50761    1162.8513     1249.458    9.6078701   0.19949123 
   17200   -686.56059    40.312064   -646.24853    1223.0106    9015.0419     9.784285   0.16655774 
   17300    -685.9626    36.923138   -649.03946    1120.1954     5586.327    9.7285387   0.17502029 
   17400   -679.30977     37.31912   -641.99065    1132.2089   -3894.6234    9.5103198   0.22853073 
   17500   -683.02369    40.003422   -643.02026    1213.6468    440.78257    9.6352742   0.17936947 
   17600   -687.28792     39.56805   -647.71987    1200.4382    730.31968    9.6991244   0.17402475 
   17700   -680.87991    35.229172   -645.65074    1068.8029    -6374.809    9.5341802   0.21375028 
   17800   -676.58938    36.301219   -640.28816    1101.3273    2007.2839    9.5484534   0.23407273 
   17900   -682.67792    35.539745   -647.13817    1078.2252    11035.196    9.7373207    0.1781279 
   18000   -682.73025    35.984222   -646.74603      1091.71   -6184.9557    9.5504754   0.22052496 
   18100   -680.28668    38.080304   -642.20637    1155.3022   -6674.7228    9.5078858    0.2347132 
   18200   -687.33774    39.751995   -647.58574    1206.0189   -2084.0967    9.6632875   0.17347616 
   18300   -684.71252    37.028312   -647.68421    1123.3862    8302.5084      9.76183   0.17868955 
   18400   -681.32144    38.099986   -643.22146    1155.8993    135.46737    9.5918775   0.22357136 
   18500   -681.43627    37.201079    -644.2352    1128.6277   -1118.5405    9.5829008   0.20740094 
   18600   -686.75864    38.287058   -648.47158    1161.5748   -1802.0388    9.6704401   0.19773464 
   18700   -680.81431    37.987294   -642.82702    1152.4804    5649.0456     9.635199   0.21377735 
   18800   -682.60781    38.148221   -644.45959    1157.3627     48.14003    9.6130687   0.17579662 
   18900    -686.2745    37.946835   -648.32766    1151.2529    6760.2491    9.7650085   0.16316562 
   19000   -680.40062     37.09937   -643.30125     1125.542    -5116.494    9.5393903   0.20103089 
   19100   -683.35873    38.379742   -644.97899    1164.3867   -10857.259    9.5045895   0.19504239 
   19200    -687.3706    38.980084   -648.39051    1182.6002    15073.302     9.858516   0.15976778 
   19300    -683.6143    38.719383   -644.89492    1174.6909    4988.8625    9.6923875   0.19257967 
   19400   -679.33572    36.499246   -642.83648    1107.3351   -3439.9349    9.5251645   0.22328063 
   19500   -685.02363    36.337062   -648.68656    1102.4147    3890.2173    9.7118995   0.17275634 
   19600   -686.74749    37.190736   -649.55675     1128.314   -1584.3432    9.6728154   0.17707046 
   19700   -681.78122    37.523125   -644.25809    1138.3981   -380.63058    9.5949603   0.22258647 
   19800   -680.22382    36.272039   -643.95178     1100.442    1600.9394    9.5843951   0.22698602 
   19900   -688.37716    37.807586   -650.56957    1147.0283    -2239.871    9.6872083   0.18091857 
   20000   -684.33338    38.112338   -646.22104     1156.274    5709.3039    9.7081231   0.19584078 
   20100   -682.19016    38.847317   -643.34284    1178.5722   -4957.0519    9.5512549   0.23080888 
   20200   -682.19935    35.462351     -646.737    1075.8772   -3681.6542    9.5738312   0.23396492 
   20300   -685.13173     35.34396   -649.78777    1072.2854    8548.2828    9.7462904   0.16965379 
   20400   -680.02518    37.189787   -642.83539    1128.2852    852.93561     9.583667   0.19786273 
   20500   -682.00003    37.216609   -644.78343    1129.0989    4927.6191    9.6650742   0.22351394 
   20600   -687.08312    36.420394   -650.66273    1104.9429   -6873.8494    9.6273472   0.19711657 
   20700    -684.4522    37.553206   -646.89899    1139.3108   -6789.4543    9.5692951   0.20515203 
   20800   -683.43332    40.264139   -643.16918    1221.5566    7471.1479    9.7139629   0.18946013 
   20900   -683.61445     38.33717   -645.27728    1163.0951    4223.7478    9.6864123   0.20328086 
   21000   -685.83554    33.711546   -652.12399    1022.7603   -6200.6347    9.6276091   0.19356409 
   21100   -683.24663    37.229571   -646.01706    1129.4921   -646.30961    9.6228579   0.20755282 
   21200   -686.98946     42.48883   -644.50063    1289.0505   -1995.5483    9.6398827   0.19185646 
   21300   -683.13771    35.973688   -647.16402    1091.3904   -1926.9614    9.6107956    0.2011509 
   21400   -686.66533    34.816116   -651.84922    1056.2714    5007.6054     9.749153   0.15352948 
   21500   -681.11263    36.439102   -644.67352    1105.5104     4457.778    9.6379517   0.19743306 
   21600   -682.71422    37.902589   -644.81163    1149.9106    -645.8963    9.6094569   0.19805896 
   21700   -687.31697    38.426175   -648.89079    1165.7954   -8372.2005     9.609319   0.18703907 
   21800   -688.26105    37.736187   -650.52486    1144.8622    16244.063    9.8843536   0.16673518 
   21900   -682.78891    38.823851   -643.96506    1177.8603   -3770.7373    9.5661932   0.23118642 
   22000   -681.15971    36.387401   -644.77231    1103.9419    -4999.019    9.5361667   0.21627936 
   22100   -685.04764    35.581378   -649.46626    1079.4883   -933.61749    9.6610065   0.18728146 
   22200   -685.31609    38.654778   -646.66131    1172.7309    4880.1315    9.7097761   0.17877122 
   22300   -684.04865    41.020725   -643.02792    1244.5104   -781.97658    9.6320219   0.18437353 
   22400   -684.17325    38.494269   -645.67898    1167.8613    -7027.503    9.5535704   0.18418007 
   22500   -684.50293     33.99704   -650.50589    1031.4217    5528.3522    9.7240792   0.17870046 
   22600   -686.30877    36.639009   -649.66976    1111.5753    7753.2068    9.7607214   0.16377767 
   22700   -680.56425    36.419617   -644.14464    1104.9193    6628.7449    9.6595651   0.18989761 
   22800   -684.06841     39.24023   -644.82818    1190.4927   -3707.2344    9.6018956   0.19737387 
   22900    -686.0217    38.663466   -647.35824    1172.9945   -4394.5716    9.6334662   0.19094117 
   23000   -690.18859    37.932081   -652.25651    1150.8053   -1482.5017    9.7287877   0.17018102 
   23100   -683.68159    37.727662   -645.95393    1144.6035   -204.62278    9.6353967   0.19121256 
   23200   -682.21349    39.436265   -642.77722    1196.4401    8035.1339    9.6870937   0.19203403 
   23300   -683.81723    37.327828    -646.4894    1132.4731     1062.291    9.6515526   0.19732845 
   23400   -682.41567    33.850311   -648.56536    1026.9702   -9655.8596    9.5381105   0.22450868 
   23500   -682.72422    40.229708   -642.49451     1220.512      4034.91     9.672841   0.19565684 
   23600    -684.5827    40.578638   -644.00406     1231.098    1006.7329    9.6667203   0.19782259 
   23700   -686.03539    36.329682    -649.7057    1102.1908   -5779.4749    9.6223956   0.21426524 
   23800   -680.50965    36.397489   -644.11216     1104.248   -3824.0391    9.5422433   0.20387314 
   23900   -684.59711    40.657742   -643.93937     1233.498     717.1137    9.6473891   0.16949366 
   24000   -687.30073    37.989905   -649.31082    1152.5596   -4364.2286    9.6592645    0.1711816 
   24100   -683.05479    39.290675   -643.76411    1192.0231     4403.065    9.6624871   0.20347979 
   24200   -681.68464     36.84098   -644.84366    1117.7028   -1968.6372     9.595025   0.22863582 
   24300   -684.79175    36.034918   -648.75683    1093.2481   -6957.4089    9.5875886   0.19822033 
   24400   -683.56942    36.861696   -646.70772    1118.3313    342.35046    9.6413456   0.20259978 
   24500   -680.82812    39.051658   -641.77646    1184.7717   -2133.6506    9.5727345   0.21273236 
   24600   -683.89696     39.11501   -644.78195    1186.6937   -5040.8171    9.5847724    0.1990271 
   24700    -685.0286    35.838676   -649.18992    1087.2944   -3469.8957    9.6229627   0.18052113 
   24800   -683.21089     38.28955   -644.92134    1161.6504    4812.9501    9.6783891   0.18922377 
   24900   -680.55323    38.475699   -642.07753    1167.2979    6601.8111    9.6625195   0.19283245 
   25000   -685.42391    38.508508    -646.9154    1168.2933   -194.67201    9.6624845   0.18582662 
   25100   -687.23909    38.299743   -648.93935    1161.9596   -443.16496    9.7022255   0.16017884 
   25200   -680.06735    38.704527   -641.36282    1174.2402   -149.53854    9.5739464   0.22810833 
   25300   -682.74736    40.522333   -642.22502    1229.3898   -4904.4695    9.5603418    0.2021341 
   25400   -684.75458    38.075755   -646.67883    1155.1642    615.85221    9.6603819   0.19561818 
   25500   -682.77076    37.319613   -645.45115    1132.2239    7466.7008    9.7058667   0.19502339 
   25600   -678.96788    40.609589   -638.35829    1232.0371   -1668.2454     9.517436   0.22628503 
   25700   -679.78309    35.417945   -644.36515      1074.53   -4435.9667    9.5140888   0.21721703 
   25800   -683.62065    37.568259   -646.05239    1139.7674    5155.8074    9.6991379   0.16984967 
   25900   -683.43976    40.148276   -643.29148    1218.0415    8424.8282    9.7264516   0.18117281 
   26000   -676.61239    40.361207   -636.25118    1224.5015   -505.11266    9.5033463   0.29188577 
   26100   -682.47892    39.273969   -643.20495    1191.5163   -2374.5992    9.5837688    0.2284693 
   26200    -683.4789     38.54788   -644.93102    1169.4878    5646.5484    9.6962445   0.20240451 
   26300   -685.73795    38.539991   -647.19796    1169.2484   -5829.5741    9.6095643   0.20095738 
   26400   -684.28423    35.994489   -648.28974    1092.0215   -8604.2319    9.5712059   0.19161838 
   26500   -681.56272     41.68084   -639.88188    1264.5373   -1424.3743    9.5653726   0.21525668 
   26600   -684.56734    40.814002   -643.75334    1238.2387   -223.76182    9.6457534   0.19855646 
   26700    -684.2401    37.703568   -646.53653    1143.8725   -5504.9986     9.590059    0.2050907 
   26800   -685.57016    39.129084   -646.44107    1187.1207   -400.88115    9.6627174   0.17377317 
   26900   -675.86311    38.089393   -637.77372    1155.5779    3822.4967    9.5398852    0.2572009 
   27000    -680.1217    38.029636   -642.09206     1153.765   -7642.7663    9.5007436   0.24152827 
   27100   -682.36415    37.973733   -644.39041    1152.0689    10060.882    9.7336329   0.19959741 
   27200   -686.63291    38.612993   -648.01992    1171.4632    2879.0025    9.7187998   0.16406649 
   27300   -681.11666    35.649051   -645.46761    1081.5414   -2530.9132    9.5840427   0.19628746 
   27400   -679.87183    38.788709   -641.08312    1176.7942    1317.1172     9.590489   0.20749638 
   27500   -684.83073    37.927525    -646.9032    1150.6671    9822.1957    9.7650334    0.1784898 
   27600   -684.53179    37.568918   -646.96287    1139.7874   -6057.1662    9.5863062     0.192342 
   27700   -678.49544    37.650545    -640.8449    1142.2639    -1396.302    9.5310059   0.27116319 
   27800   -681.14192    38.678326   -642.46359    1173.4453    2683.7651    9.6284225   0.21190174 
   27900   -682.29102    35.505146   -646.78587    1077.1755   -1783.7621    9.5998973   0.19928419 
   28000   -682.41951     37.49082   -644.92869    1137.4181   -3067.7705    9.5785931   0.21683293 
   28100   -680.02722    39.543185   -640.48403    1199.6839    5611.9922    9.6360676   0.23224884 
   28200   -682.70885    35.568192   -647.14065    1079.0883   -6714.3703    9.5492901   0.24834758 
   28300   -681.35192    35.663936   -645.68798     1081.993   -6524.2536      9.53836   0.22306351 
   28400   -680.25266    38.528866    -641.7238    1168.9109    8829.5496    9.6695689   0.19602386 
   28500   -686.01784    39.147266   -646.87058    1187.6723   -1586.0116    9.6575705   0.19024917 
   28600   -684.07275    35.523244   -648.54951    1077.7246   -2514.2934    9.6295553   0.18555938 
   28700   -680.72655    37.619099   -643.10745    1141.3099    2958.5159    9.6090527   0.21710613 
   28800   -680.85229    39.367286     -641.485    1194.3474    1082.4283    9.5970926   0.23112604 
   28900   -683.65548    37.051921   -646.60355    1124.1025    4239.0166    9.6937621   0.20308525 
   29000    -683.6697    38.270691     -645.399    1161.0782    1842.0501    9.6525748   0.21498712 
   29100   -681.55039    40.809642   -640.74075    1238.1064   -2164.7176     9.572218    0.2177864 
   29200    -682.7942    35.485719   -647.30848    1076.5862    6073.5328    9.6849479   0.18537396 
   29300   -683.55055    36.978476   -646.57208    1121.8743   -5250.9794    9.5819972   0.20533941 
   29400   -681.00681    39.819449   -641.18736    1208.0654   -4058.2602    9.5438109   0.23741359 
   29500   -684.65231    38.834526   -645.81778    1178.1842    8442.3691    9.7422947   0.18424368 
   29600   -681.79712    33.682997   -648.11413    1021.8941    5215.1514    9.6938519   0.19677503 
   29700   -682.04641    38.577471   -643.46894    1170.3855   -8037.7511    9.5245687    0.2146054 
   29800   -683.47722    37.333324    -646.1439    1132.6398   -111.15016     9.643171   0.18110608 
   29900   -689.35263    39.692385   -649.66025    1204.2104    290.94184    9.7312676   0.15255576 
   30000   -680.09686    36.969585   -643.12728    1121.6045    3416.8577    9.5953505   0.20922472 
   30100   -679.02947    34.579726   -644.44975    1049.0996   -645.37939    9.5328744   0.22850179 
   30200   -686.85792    36.909565   -649.94835    1119.7836   -6491.0483    9.6318746   0.19526313 
   30300   -683.65161    37.887231   -645.76438    1149.4446     15810.04    9.8205903   0.17314892 
   30400   -681.66434    39.116367   -642.54797    1186.7348    2826.6703    9.6337114   0.19091326 
   30500   -683.97453     38.48796   -645.48657    1167.6699   -7139.9142    9.5518677   0.18358729 
   30600   -686.08704    35.678214   -650.40883    1082.4262   -1404.8323    9.6666624   0.17342586 
   30700    -680.1585     36.75084   -643.40766    1114.9681    1450.7713    9.5800503   0.24061227 
   30800   -681.84063     39.73884   -642.10179    1205.6198   -724.63627    9.5888596   0.20416437 
   30900   -685.90367    39.081654   -646.82201    1185.6817    4731.6543    9.7244157   0.16812807 
   31000   -685.07127    37.084424   -647.98684    1125.0886   -718.62451    9.6471765   0.17070608 
   31100   -677.88883    37.051554   -640.83727    1124.0914   -5101.1866    9.4845796   0.22809424 
   31200   -683.02391    38.495438   -644.52847    1167.8967    4147.2975    9.6679201     0.185522 
   31300   -684.62575    35.938763   -648.68699    1090.3308    343.76762    9.6467336    0.1925499 
   31400    -679.1248    36.087493   -643.03731    1094.8431    928.70522    9.5743373    0.2519808 
   31500   -681.54244    39.487303   -642.05514    1197.9885    4771.0486    9.6393943     0.235623 
   31600   -682.90715    36.291898   -646.61525    1101.0445   -4410.2442    9.5820623   0.19319312 
   31700    -687.2678    38.847564   -648.42024    1178.5797   -947.67752    9.6836651   0.18985104 
   31800   -680.17448    38.690472   -641.48401    1173.8138    1783.9961    9.6071354   0.21573721 
   31900   -681.33786    39.082852   -642.25501     1185.718   -4580.0718     9.544818   0.20471681 
   32000   -683.89985    38.152999   -645.74685    1157.5076    4914.1575    9.6919116   0.16925448 
   32100   -686.55257    39.363733   -647.18884    1194.2396    13753.844    9.8312766   0.14163031 
   32200   -682.29144    37.916803   -644.37464    1150.3418   -201.95226    9.6164119   0.20789849 
   32300   -680.93538    39.495161   -641.44022    1198.2269   -10853.804    9.4663636   0.23277287 
   32400   -682.45853    37.207545   -645.25098    1128.8239    1072.8441    9.6194844   0.20441969 
   32500   -683.99698    37.588206   -646.40878    1140.3726    2351.4413    9.6835629   0.18485688 
   32600   -682.81275    42.083909   -640.72884    1276.7658    1206.5421    9.6232751   0.18071459 
   32700    -681.8664    40.012728   -641.85367    1213.9291   -448.98722    9.5778874   0.20011417 
   32800   -683.74556    36.762741   -646.98282    1115.3292    1269.7899    9.6441939   0.19311787 
   32900   -682.13407    36.553383   -645.58069    1108.9776   -6782.0458    9.5429888   0.21642432 
   33000   -681.30251    40.772695   -640.52982    1236.9855   -2575.9874    9.5560933   0.24041778 
   33100   -685.66989     38.28843   -647.38146    1161.6164    2696.7521    9.7071573   0.16923194 
   33200   -681.80427    34.790588   -647.01368    1055.4969    7115.1588    9.6824688   0.16511805 
   33300   -679.37391    37.008541   -642.36537    1122.7864   -8810.1144    9.4706064   0.21852671 
   33400   -683.60382    39.642777   -643.96104    1202.7054   -3754.2116    9.5967387   0.22380103 
   33500   -686.92301    37.479978   -649.44303    1137.0891    12218.023    9.8252385   0.16023979 
   33600   -684.20364    39.006786   -645.19686    1183.4103    -4731.123    9.5904443   0.20306117 
   33700   -680.57092    38.428259   -642.14266    1165.8586   -2684.3293    9.5687654    0.2211162 
   33800   -686.64054    38.834723   -647.80582    1178.1902    4837.5646    9.7433561   0.15732421 
   33900   -686.47351    37.421807    -649.0517    1135.3243   -1967.5762    9.6675887   0.17321653 
   34000   -682.49177    39.034042   -643.45773    1184.2372    298.74299     9.609298   0.21525567 
   34100   -683.72264    38.451814   -645.27083    1166.5733   -1223.2973    9.6167241   0.19440358 
   34200   -685.05129    35.518073   -649.53322    1077.5677   -707.76022    9.6570505   0.18134733 
   34300   -683.44251    40.812215   -642.63029    1238.1844    4563.1673     9.690375    0.2083707 
   34400   -681.68142    38.456031   -643.22539    1166.7012    2980.0269    9.6277231   0.20126135 
   34500   -681.02001    32.946554   -648.07345     999.5515   -8003.2704    9.5087532   0.22980488 
   34600    -682.8222    38.991582   -643.83062     1182.949   -1832.3633     9.591355   0.21682599 
   34700   -682.54921    40.472549   -642.07666    1227.8795   -4484.3475    9.5692744   0.22258831 
   34800   -685.42458    38.690383    -646.7342    1173.8111    5345.3583    9.7279598   0.18497257 
   34900   -683.54197    37.158327   -646.38364    1127.3307   -1482.0249    9.6270952   0.20422576 
   35000   -681.84551    40.860068   -640.98544    1239.6362   -6465.2962    9.5248706   0.24000569 
   35100   -684.62693    37.881531    -646.7454    1149.2717     8226.115    9.7472989   0.18347014 
   35200    -684.4949    38.529497    -645.9654      1168.93    -1458.198    9.6236014    0.1888554 
   35300   -680.49036    39.040477   -641.44988    1184.4324   -1477.0783    9.5528354   0.24402078 
   35400    -680.3942    38.005894   -642.38831    1153.0447   -4321.0744    9.5218835   0.19960955 
   35500   -684.22712    36.407919    -647.8192    1104.5644    3316.3538     9.693572   0.17954431 
   35600   -684.06759    38.149351   -645.91824    1157.3969    563.29953    9.6490306   0.18419909 
   35700   -681.79465    38.960709   -642.83394    1182.0124   -1021.4353    9.5884471   0.20056205 
   35800   -678.42112    41.421836   -636.99929    1256.6795   -2500.3349    9.5089312   0.24855766 
   35900   -683.96632    39.157143   -644.80917    1187.9719   -752.67521    9.6388537   0.21752643 
   36000   -683.26366    38.053119   -645.21054    1154.4774    1286.4281    9.6385052   0.20539266 
   36100   -683.18247    37.998646   -645.18382    1152.8248   -9585.4933    9.5263282   0.20354926 
   36200   -687.09284    34.970184   -652.12265    1060.9456   -931.61815    9.6963199   0.15785437 
   36300   -685.33568     38.93386   -646.40182    1181.1978    2463.0409    9.6892095   0.18505456 
   36400   -684.78248    40.974381    -643.8081    1243.1043   -548.05585    9.6345145   0.19467675 
   36500   -681.15413      35.7455   -645.40863    1084.4675    187.06871    9.6013864   0.21569864 
   36600     -686.731    34.482854   -652.24815    1046.1607   -3136.1571    9.6653895   0.17855429 
   36700   -682.94002    36.409689   -646.53033    1104.6181   -5412.6801    9.5759726   0.20941846 
   36800   -683.15752    39.288463   -643.86906     1191.956    5223.1458    9.6761073    0.1796763 
   36900    -686.6953    39.402472   -647.29283    1195.4149    4415.4373    9.7303131   0.16559158 
   37000   -686.26054    34.123261   -652.13728    1035.2511   -2013.5905    9.6795227    0.1768749 
   37100   -681.13098     35.57749   -645.55349    1079.3704   -3548.4534     9.572864    0.2083462 
   37200   -682.80622    38.324106   -644.48211    1162.6988    11219.201    9.7552551   0.19255168 
   37300   -682.20111    37.574118     -644.627    1139.9452   -3942.5828    9.5643775    0.2328839 
   37400   -677.93096    38.723082   -639.20788    1174.8031   -5322.3941    9.4755999   0.23881212 
   37500   -680.40198    39.046654   -641.35533    1184.6198    3301.0314    9.6026354   0.22378301 
   37600    -684.3131    38.561485   -645.75161    1169.9005    3588.9396    9.6978394   0.18709344 
   37700   -683.49706    37.008278   -646.48879    1122.7784   -3447.3105    9.6068447   0.18307893 
   37800   -683.18427    36.566872    -646.6174    1109.3868   -5700.8072    9.5614095   0.22068277 
   37900   -678.70252    38.847414   -639.85511    1178.5752    7722.4522    9.6304121   0.20902532 
   38000   -683.18696    39.109193   -644.07777    1186.5172    827.08437    9.6242922   0.20062628 
   38100   -684.59535    37.688363   -646.90698    1143.4112   -1149.5314    9.6277842   0.19736153 
   38200    -684.0602    34.584397    -649.4758    1049.2413   -7626.4194    9.5646257     0.185916 
   38300   -680.78452    38.597808   -642.18671    1171.0025    2277.6819    9.6003291    0.2255738 
   38400   -679.54033    37.253338   -642.28699    1130.2132    4435.1138    9.6128896    0.2226894 
   38500    -682.5931    35.809251   -646.78384    1086.4017   -4184.3186    9.5650291    0.2075556 
   38600     -682.147    36.887923   -645.25908     1119.127   -4199.5731    9.5656079   0.20728708 
   38700   -678.58843    37.269644   -641.31878    1130.7079    3756.1623    9.5922845   0.24982412 
   38800   -684.53417    35.757496   -648.77667    1084.8315    1148.2377     9.670552   0.18408437 
   38900   -682.75837    35.100468    -647.6579    1064.8982    4752.1499    9.6772225   0.17803061 
   39000   -681.23795    36.268571   -644.96938    1100.3368   -5846.5008    9.5408055   0.22392955 
   39100   -680.93553    41.986959   -638.94857    1273.8245    2385.0434    9.5941513   0.20675758 
   39200   -681.93605    37.107697   -644.82836    1125.7947    5231.4756    9.6558995   0.20896085 
   39300   -682.13781    34.522669   -647.61514    1047.3686    -1028.292    9.6110633   0.21281568 
   39400   -681.42449    40.090978   -641.33351    1216.3032    8271.7039    9.6961448   0.19169516 
   39500   -681.93808    37.512641   -644.42544    1138.0801    -3830.806    9.5589517   0.18851754 
   39600   -682.00895    34.629061   -647.37989    1050.5964   -1789.0973    9.5902307   0.21023125 
   39700   -680.64981     36.62143   -644.02838     1111.042    8035.6072    9.6614218   0.21289026 
   39800   -679.23498    41.139908   -638.09508    1248.1262     -568.967    9.5543018   0.21868229 
   39900    -683.2726    38.541277   -644.73132    1169.2874    1800.3724    9.6483066   0.19751405 
   40000   -686.71303     40.42522   -646.28781    1226.4436    7159.4014    9.7593598   0.17322981 
   40100   -681.74899    39.554513   -642.19447    1200.0276    387.23342    9.6053799   0.20806237 
   40200   -679.19795    38.065773   -641.13217    1154.8613   -5304.9375    9.4902688   0.23448203 
   40300   -685.73401    37.381168   -648.35285    1134.0914     340.1354    9.6775802   0.17642939 
   40400   -683.12348    36.923211   -646.20026    1120.1976   -2023.4639    9.6113823   0.19451519 
   40500    -679.4904    37.522337   -641.96806    1138.3742   -4258.8572    9.5157319     0.239366 
   40600   -681.48275    35.128935   -646.35381    1065.7618    448.57762    9.6168218   0.21917244 
   40700   -684.85121    37.295117   -647.55609    1131.4807    12397.841     9.797763   0.19435478 
   40800   -680.30424    37.383814   -642.92043    1134.1716   -1304.7668    9.5712105   0.22233868 
   40900   -681.73263    40.367991   -641.36464    1224.7073   -4191.6583    9.5512757   0.20239969 
   41000   -684.24688    36.193227   -648.05365    1098.0509    1584.5738    9.6762041   0.18963022 
   41100   -685.04017    41.356703   -643.68347    1254.7035    4829.9256    9.7143165   0.19459222 
   41200   -679.56775    36.147726   -643.42003    1096.6705   -4590.1923    9.5315627   0.23976634 
   41300   -684.08372      34.7876   -649.29612    1055.4062   -8901.6607    9.5573471   0.20966817 
   41400   -682.71365    37.564418   -645.14924    1139.6509    6990.8007     9.705584   0.19586297 
   41500   -681.62068    40.268951   -641.35173    1221.7026   -5093.6273    9.5483229   0.21733303 
   41600   -683.50425    36.090906   -647.41334    1094.9467    1867.3425    9.6346465   0.19786815 
   41700   -684.80159    38.499475   -646.30211    1168.0192    -2842.619    9.6284555   0.19106022 
   41800   -680.52762    40.409836   -640.11778    1225.9768    -3818.145    9.5394566   0.21455702 
   41900   -681.68934    37.694168   -643.99517    1143.5873    849.17534    9.6027337   0.20907877 
   42000   -686.12474    38.386524   -647.73822    1164.5925    10173.208     9.788021   0.14359142 
   42100   -682.99587        38.44   -644.55587    1166.2148    2015.8157    9.6508651   0.19246418 
   42200   -679.48736    37.698329   -641.78903    1143.7136   -8560.2686    9.4708208   0.23368843 
   42300   -686.50429    37.970126   -648.53416    1151.9595   -237.09928    9.6834163   0.15832507 
   42400   -686.51589    40.055131   -646.46075    1215.2156    2300.7573    9.7120829   0.15778076 
   42500   -680.88396    39.743116   -641.14085    1205.7495   -3362.7094    9.5361354   0.21415256 
   42600   -681.77832    37.155969   -644.62235    1127.2591    1368.8959      9.61874   0.21275947 
   42700   -684.64713    36.269499   -648.37763    1100.3649    4482.9695    9.7041751   0.18321606 
   42800   -683.73854    38.565039    -645.1735    1170.0083   -915.11333    9.6296324   0.22277758 
   42900   -681.49866    41.241409   -640.25725    1251.2056   -3354.4612    9.5637003   0.21229823 
   43000   -683.92954    36.773306   -647.15623    1115.6497    1465.3862    9.6450163   0.18035607 
   43100   -684.45556    36.746776   -647.70878    1114.8448    1296.9799    9.6665395   0.16627847 
   43200    -682.8678    40.550951   -642.31685    1230.2581    350.52996    9.6243107   0.17888859 
   43300   -683.64074    38.610901   -645.02984    1171.3997   -151.87372    9.6182193   0.20191448 
   43400   -685.14254    35.278549   -649.86399    1070.3009    3363.0072    9.7083703   0.18785966 
   43500   -683.05232    39.331265   -643.72106    1193.2545   -4839.3486    9.5652179   0.21361043 
   43600   -680.98066    38.767941   -642.21272    1176.1641    635.40883    9.6041358   0.20057315 
   43700   -686.81184    38.564418   -648.24743    1169.9895    13515.727    9.8314712   0.17350864 
   43800   -684.67468     38.30125   -646.37344    1162.0053   -3843.0222    9.6066958   0.20056912 
   43900   -679.36642    37.653352   -641.71306     1142.349    451.56173    9.5704998   0.19903481 
   44000    -685.1032    37.106644   -647.99655    1125.7627    6637.8284    9.7378169   0.19329977 
   44100   -681.17976    35.373631   -645.80613    1073.1856    275.46612    9.6140686   0.19297081 
   44200   -680.50518     38.52516   -641.98002    1168.7985     7438.995    9.6575656    0.2046962 
   44300   -677.63302    38.668072   -638.96495    1173.1342    8392.1865     9.608389   0.22146489 
   44400   -685.34617    38.093341   -647.25283    1155.6977   -932.63916    9.6546474   0.18626322 
   44500   -684.58899    38.609848   -645.97915    1171.3678   -7965.9955    9.5731238   0.20425277 
   44600   -680.14423    38.626952   -641.51727    1171.8867     3481.743     9.607001   0.22132985 
   44700   -682.91957    40.999937   -641.91963    1243.8797   -3755.6904     9.582715   0.17478319 
   44800   -684.24853    37.461249   -646.78728    1136.5209   -836.52948    9.6441667   0.17743971 
   44900   -683.23085    38.075299   -645.15555    1155.1503    3364.7684    9.6648912   0.17511779 
   45000   -680.08082    38.491315    -641.5895    1167.7717    9196.4351     9.681742   0.21209155 
   45100   -675.18428    37.817349   -637.36693    1147.3245   -8968.2736    9.3898675   0.28698337 
   45200   -680.70402    34.986315    -645.7177     1061.435    2041.7438    9.6276378   0.22763931 
   45300   -684.60702    39.187184   -645.41983    1188.8833    1902.3587    9.6573462     0.216365 
   45400   -681.53275    40.207818   -641.32493    1219.8479    438.28956    9.6072074   0.20737445 
   45500   -682.97386    35.675158    -647.2987    1082.3335    851.98136     9.642527   0.20517668 
   45600   -686.80776     38.82486    -647.9829    1177.8909   -3271.4562    9.6612747   0.19921249 
   45700   -684.49414    42.657015   -641.83712     1294.153    9135.7196    9.7241199   0.16262771 
   45800   -683.91223    39.963634    -643.9486    1212.4397    892.42304    9.6452494   0.18434809 
   45900   -686.27346    36.155834   -650.11762    1096.9165    -9455.403    9.5811626   0.19092951 
   46000    -683.8253    39.322355   -644.50295    1192.9842    817.69834    9.6412728   0.18239532 
   46100   -681.86007    38.170992   -643.68908    1158.0535    8886.2971    9.6922354   0.18444966 
   46200   -686.45161    37.180381   -649.27123    1127.9998   -2559.9951    9.6558402   0.16781729 
   46300   -684.23848    35.435616   -648.80287    1075.0661   -1333.5973    9.6448234   0.18905022 
   46400   -682.52041    38.384507    -644.1359    1164.5313   -2356.7237    9.5902363   0.21399878 
   46500   -683.16596    37.663261    -645.5027    1142.6497    4191.4227    9.6690357   0.18513824 
   46600   -688.18608    37.150233   -651.03585    1127.0851   -1495.2032    9.7050864   0.16407865 
   46700   -682.91773    38.075187   -644.84255    1155.1469    -4348.909    9.5819774   0.18820534 
   46800    -682.7746    39.219678   -643.55492    1189.8691    6509.5667     9.687967   0.20031832 
   46900   -682.53699    36.913075   -645.62391    1119.8901    3648.1122    9.6559919   0.19610203 
   47000   -685.86965    34.655882   -651.21377    1051.4101   -8498.4075    9.5950096   0.19197266 
   47100   -682.37733     38.09942   -644.27791    1155.8821    4468.5523    9.6634093    0.2218814 
   47200   -680.43217    36.295717   -644.13645    1101.1603    756.27046    9.5889724   0.23630774 
   47300   -683.89407    36.264747   -647.62933    1100.2208   -4765.2049    9.5906714   0.21001005 
   47400   -685.23334    35.012698   -650.22064    1062.2354    1760.3644    9.6969355   0.19856794 
   47500   -680.71836    37.035574   -643.68279    1123.6065   -3030.8902    9.5662425   0.22086321 
   47600   -681.31876    36.561929   -644.75683    1109.2368    4467.1351    9.6500349   0.21104079 
   47700   -688.04423    37.730386   -650.31384    1144.6862   -53.269093    9.7171252   0.15471489 
   47800   -687.48938    41.081146   -646.40824    1246.3434   -2497.5261    9.6534185   0.16157635 
   47900   -682.71983    38.437338    -644.2825    1166.1341   -10813.793    9.4991494   0.21791366 
   48000    -682.9682    35.701303    -647.2669    1083.1267     1699.351    9.6477009   0.21181308 
   48100   -688.49306    37.310781   -651.18228    1131.9559    3738.3259    9.7728184   0.16854074 
   48200   -681.10467    36.143644   -644.96103    1096.5467   -4994.0934    9.5379004   0.20909232 
   48300   -683.46172    39.045187   -644.41653    1184.5753   -6750.9863    9.5672173   0.19858845 
   48400   -686.59372    37.523481   -649.07024    1138.4089    1394.2328    9.7034849   0.17284007 
   48500   -685.61341     36.08383   -649.52958     1094.732    501.90244    9.6904679   0.17893306 
   48600   -682.62405    39.233199   -643.39085    1190.2794    1235.7085     9.629562    0.1997469 
   48700   -680.99315    35.888498   -645.10465    1088.8059   -5443.5448    9.5372818   0.24984333 
   48800   -682.16688     38.31382   -643.85306    1162.3867    6272.5734    9.6741318   0.19341333 
   48900   -685.68665    35.329436   -650.35721    1071.8447    5982.7074    9.7431039   0.16714484 
   49000   -682.78531    37.617138   -645.16817    1141.2504   -10284.517    9.5164998    0.2178511 
   49100   -681.63204    39.289156   -642.34288     1191.977     -4073.48    9.5547032   0.22993912 
   49200   -685.35307    37.881964    -647.4711    1149.2848    1748.9461    9.6829512   0.20966219 
   49300   -685.37361     39.78166   -645.59195    1206.9189    4967.9613    9.7149819   0.18564724 
   49400   -679.74441    39.490065   -640.25435    1198.0723   -3566.8346     9.525232   0.22074721 
   49500   -681.58082    35.855285   -645.72554    1087.7982   -4497.8143     9.549127   0.20597744 
   49600   -682.38398    35.059027   -647.32495    1063.6409    4977.2159    9.6763666   0.20237838 
   49700    -682.9703    42.100218   -640.87008    1277.2606   -4615.3258    9.5593006   0.21917417 
   49800   -684.01303    39.909296   -644.10373    1210.7912   -2533.8296    9.6064093   0.22035281 
   49900   -684.25349    37.163765   -647.08973    1127.4957   -7668.7535    9.5589112   0.22263727 
   50000   -682.88378    39.114228   -643.76955    1186.6699   -3932.6968    9.5828801    0.2038537 
   50100   -680.30272    40.460316    -639.8424    1227.5083    6904.8062    9.6527367   0.18635895 
   50200   -684.49344    37.490797   -647.00264    1137.4174    6693.6511    9.7373657   0.18181161 
   50300   -681.73297    35.206428   -646.52654    1068.1129   -219.45568    9.6048707   0.18841307 
   50400   -682.45258    38.270655   -644.18193    1161.0771    4878.9531    9.6602339   0.23863483 
   50500    -680.0146    40.040775   -639.97383    1214.7801   -9166.5124     9.467431   0.25974923 
   50600   -686.33363     38.81147   -647.52216    1177.4847   -4272.3325    9.6344415    0.1863028 
   50700   -685.44733    39.669535    -645.7778    1203.5172    2409.3886    9.6859314   0.17454501 
   50800   -682.39034    40.050934   -642.33941    1215.0883   -656.66291    9.6265779   0.21900694 
   50900   -680.54741    42.207517   -638.33989    1280.5159    1327.2315    9.5829725   0.20996955 
   51000   -686.19726    39.281948   -646.91531    1191.7583   -3041.5257    9.6524759   0.17533486 
   51100   -682.94954       36.599   -646.35054    1110.3615   -3118.4335     9.591736   0.21873065 
   51200   -680.54255    37.932903   -642.60965    1150.8302     819.2729    9.6013234   0.22444331 
   51300   -682.96434    37.819512   -645.14483    1147.3901    4723.1768    9.6788431   0.21157335 
   51400   -683.69281    35.571667   -648.12114    1079.1937   -12351.592    9.4931803   0.20588751 
   51500   -682.84664     38.65517   -644.19147    1172.7428    14054.992    9.7559357   0.17628651 
   51600   -682.45496    39.641495   -642.81347    1202.6665    12913.221    9.7601128   0.17463097 
   51700   -686.32465    35.517396   -650.80725    1077.5472   -3391.7365    9.6589555   0.16081072 
   51800   -682.68943    35.282738   -647.40669     1070.428   -860.73253    9.6162436   0.19622145 
   51900   -682.96223     38.95216   -644.01007     1181.753   -6774.1118    9.5467925   0.23807641 
   52000   -684.20587    39.112785   -645.09308    1186.6262    5774.4344     9.707982   0.18302648 
   52100   -688.32655    38.489668   -649.83688    1167.7217    8455.6777    9.7987806   0.14215013 
   52200   -680.34897    36.026894   -644.32208    1093.0046   -2780.0418    9.5410014   0.22052831 
   52300   -681.71733    37.990334     -643.727    1152.5726   -5462.9372    9.5295629   0.19507559 
   52400   -687.31381    37.345848   -649.96796    1133.0198    3378.8246    9.7425499    0.1691992 
   52500   -683.00761    37.372267   -645.63534    1133.8213    2419.8033    9.6480677   0.20245751 
   52600   -681.18367    39.411439   -641.77223    1195.6869   -10270.233    9.4795627   0.21735899 
   52700    -682.9262    36.102244   -646.82395    1095.2907    8551.5341    9.7307575   0.20914563 
   52800   -684.92319    40.034689    -644.8885    1214.5954     5921.585    9.7097105   0.18878317 
   52900   -679.70202    38.562593   -641.13943    1169.9341   -4324.6122    9.5197144   0.24065322 
   53000   -682.57616    34.905976   -647.67018    1058.9976    1687.0199    9.6519344   0.17488676 
   53100    -685.8562    37.427864   -648.42833    1135.5081    414.63467    9.6825895   0.16151962 
   53200   -684.70289    42.654929   -642.04796    1294.0898    4959.8766     9.691556   0.17223186 
   53300   -681.40717    35.181817   -646.22535    1067.3662    381.00137    9.6179685    0.1975879 
   53400   -684.08364    36.174097   -647.90954    1097.4706   -1770.0407     9.629273   0.19906688 
   53500   -679.00825      38.0435   -640.96475    1154.1856    3802.2331    9.5916281   0.25429402 
   53600   -680.81032    37.373075   -643.43725    1133.8459   -4821.7592    9.5400647   0.23530269 
   53700   -684.19986    36.756425   -647.44343    1115.1376   -1242.2164    9.6183196   0.19860298 
   53800   -683.52806    40.357311   -643.17075    1224.3833     7082.583    9.7002997   0.18590278 
   53900   -680.69512     41.30374   -639.39138    1253.0966   -1521.5104     9.563863    0.1967185 
   54000    -684.5539    38.563376   -645.99052    1169.9579    1254.3526    9.6641471   0.18353564 
   54100   -683.60917    37.237062   -646.37211    1129.7194   -789.56493    9.6280125   0.18441321 
   54200   -681.12055    39.222563   -641.89798    1189.9567   -8620.6807    9.4798117   0.23331142 
   54300   -676.95559    39.134654   -637.82093    1187.2896    -3789.971    9.4872324   0.26645418 
   54400   -686.21311    41.082838   -645.13027    1246.3948    5022.4266    9.7292901   0.18449054 
   54500   -685.69465    40.907872   -644.78678    1241.0866    359.42904    9.6731777    0.1916709 
   54600   -681.82993    37.487639   -644.34229    1137.3215    1809.2372    9.6315174   0.21887258 
   54700   -679.16667    40.857444   -638.30923    1239.5566   -6490.3674    9.4822584   0.22979257 
   54800   -682.71905    40.611997   -642.10706    1232.1101    -2299.098    9.5980085   0.19513715 
   54900   -684.18995    39.117778   -645.07217    1186.7777    9421.3182    9.7459695   0.17327349 
   55000   -683.06106     38.37359   -644.68747       1164.2   -4594.5095    9.5789383   0.19004206 
   55100   -681.70747    39.420659   -642.28681    1195.9666    9540.3734    9.7031596   0.18312334 
   55200   -686.56596    38.476178   -648.08978    1167.3124   -12629.219    9.5411305    0.1979789 
   55300   -685.10069    36.367314   -648.73338    1103.3325    1914.6041    9.6763996   0.18255877 
   55400   -685.78967    41.036747   -644.75292    1244.9964    5931.4707    9.7289441   0.16864893 
   55500   -681.96219    36.820244   -645.14194    1117.0737    989.68216    9.6174003   0.20169957 
   55600     -679.978    40.598185   -639.37981    1231.6911    4207.3474     9.599057   0.21574456 
   55700   -677.91737    38.086839   -639.83054    1155.5004   -3010.5315    9.4898433   0.24809615 
   55800   -683.36278    37.181666   -646.18111    1128.0388   -676.59179    9.6286357   0.18813556 
   55900   -684.42317    37.653033   -646.77013    1142.3394     3284.822    9.6840121   0.18724355 
   56000   -681.26443    40.359753   -640.90468    1224.4574    2743.8605    9.6251527   0.19528433 
   56100   -681.82431    39.214589   -642.60972    1189.7148    -2572.949    9.5863738   0.20340967 
   56200   -682.11925    34.019131   -648.10012     1032.092    -3260.256    9.5809435   0.21076173 
   56300   -682.58498    38.655707   -643.92928    1172.7591    395.67077    9.6188804    0.2026855 
   56400   -683.17219    40.589472   -642.58271    1231.4267    6797.8815    9.7014723   0.19817855 
   56500   -684.97016    37.099544   -647.87061    1125.5473   -5995.3981    9.5998481   0.18934989 
   56600   -682.44578    35.123646   -647.32214    1065.6014   -232.35586    9.6199748   0.22678197 
   56700   -680.52871    39.155166   -641.37354    1187.9119    2.9338401    9.5778615   0.21888314 
   56800   -684.55432    39.360779   -645.19354    1194.1499    4640.2585    9.7003581   0.19496198 
   56900   -685.07315     37.96652   -647.10663    1151.8501    4081.8647    9.7046644   0.17485993 
   57000     -677.321     37.39807   -639.92293    1134.6042   -9126.5191     9.435554   0.22494059 
   57100    -683.9655      42.1542    -641.8113    1278.8984   -3384.7508    9.5875956   0.21105899 
   57200   -685.03526    38.810966   -646.22429    1177.4694    3164.7182    9.6913265   0.18365135 
   57300   -682.11623    36.265534    -645.8507    1100.2446    3036.0569    9.6463506   0.21847498 
   57400   -680.39286    41.062737   -639.33012    1245.7849    185.91429    9.5756208   0.20326126 
   57500   -684.06131    38.570213   -645.49109    1170.1653    6061.1004    9.7005903   0.17241566 
   57600   -686.15079    38.529116   -647.62168    1168.9185   -1260.8756    9.6627315   0.15531018 
   57700   -681.43015    39.774728   -641.65542    1206.7086   -4589.8169    9.5330249    0.1923067 
   57800   -680.89349    38.093436   -642.80005    1155.7006    1116.3813    9.5942988   0.19916201 
   57900   -686.05076     38.47779   -647.57297    1167.3613    1536.2452     9.697698    0.1686976 
   58000   -682.70952    37.388989   -645.32053    1134.3287    624.64359    9.6264729   0.21366829 
   58100   -679.04732    38.374127   -640.67319    1164.2163   -711.82148    9.5486632   0.23746926 
   58200   -686.23903    39.299605   -646.93943     1192.294    7939.6868    9.7695211   0.16645289 
   58300   -685.25451    37.630953   -647.62356    1141.6695    -6141.638    9.5936447   0.17756489 
   58400   -680.18165    39.308159   -640.87349    1192.5535   -9709.0644    9.4691803   0.25451349 
   58500   -678.86334    37.861675   -641.00166    1148.6693    6349.4449    9.6358278   0.22264292 
   58600   -684.25967    37.233042   -647.02663    1129.5974   -1066.4379    9.6316821    0.1931417 
   58700   -683.20949    37.592962   -645.61653    1140.5169   -5935.1105    9.5716922   0.22045726 
   58800    -677.5838    38.214208   -639.36959    1159.3646    2489.5694    9.5530508   0.25693909 
   58900    -684.0101     39.10225   -644.90785    1186.3066    4440.7382    9.6808095   0.19315864 
   59000   -684.67727    37.401776    -647.2755    1134.7166    1457.0578    9.6726181   0.17585499 
   59100   -683.47567    40.119533   -643.35614    1217.1695    -10427.48    9.5147566    0.2107782 
   59200    -677.0136    36.140706    -640.8729    1096.4575   -8371.3136    9.4359574   0.25266579 
   59300   -686.58644    39.901046    -646.6854    1210.5409    9609.5819    9.7972376   0.16232833 
   59400   -685.92824    39.911284   -646.01696    1210.8515    7151.8145    9.7502735   0.16894815 
   59500   -677.93041     37.39573   -640.53468    1134.5332   -3424.0931    9.4957839   0.24810432 
   59600    -681.1184    36.206926   -644.91148    1098.4665    -4384.481    9.5546843    0.2035649 
   59700   -685.86606    39.023072   -646.84299    1183.9044    4446.9832    9.7184826   0.16468432 
   59800   -684.37535    39.380374   -644.99497    1194.7444    6018.6779     9.707452   0.17864174 
   59900   -677.17204     39.07176   -638.10028    1185.3815   -8436.7275    9.4248864   0.25620333 
   60000   -683.20315    39.226081   -643.97707    1190.0634   -1452.3143    9.6065893   0.19138102 
   60100    -684.5453     38.85505   -645.69025    1178.8068   -1622.5953    9.6205903    0.1795882 
   60200   -685.36257    40.202817   -645.15975    1219.6962   -1592.7742     9.636526   0.19507972 
   60300   -681.84634    40.279916   -641.56642    1222.0353    7550.7428    9.6930706   0.18458129 
   60400   -679.94032    40.384967   -639.55535    1225.2224    3874.6554    9.5983918   0.21592054 
   60500   -681.67365    36.570152    -645.1035    1109.4863   -903.39417    9.6004548   0.20752168 
   60600    -682.6251    35.004098     -647.621    1061.9745     864.3517    9.6262656   0.19849685 
   60700   -682.31593    39.132989   -643.18294    1187.2391     10008.79    9.7142607   0.19161005 
   60800   -679.70266     39.11405   -640.58861    1186.6645   -86.916709    9.5657273   0.23727763 
   60900   -681.46453    34.907285   -646.55724    1059.0373   -6483.1097    9.5446856   0.22715243 
   61000   -685.00877    38.819731   -646.18903    1177.7353   -2265.6242    9.6320197    0.2079195 
   61100   -681.45366    41.469043   -639.98462    1258.1117   -610.76646    9.5894761   0.19790056 
   61200   -682.25127    36.769634   -645.48164    1115.5383   -1919.2347    9.5979516   0.21150959 
   61300   -682.08417    34.293783   -647.79039    1040.4245    209.42523    9.6222492   0.18813394 
   61400   -682.10301    41.218766   -640.88424    1250.5186    2417.8583    9.6262635   0.19647895 
   61500   -680.68322    38.103465   -642.57975    1156.0048   -7462.6193    9.4984133   0.22833638 
   61600   -684.78074    37.140532   -647.64021    1126.7908   -4625.1754    9.6003166   0.19562492 
   61700    -683.0922    38.244655   -644.84754    1160.2883    14490.401    9.7747948   0.17435722 
   61800   -679.79675    40.154182   -639.64257    1218.2207    811.60121    9.5789948    0.2142329 
   61900   -684.69767    38.728946   -645.96873    1174.9811   -1552.3888    9.6346486   0.17786038 
   62000   -683.93468     35.78697   -648.14771    1085.7257   -6586.4107    9.5833953   0.20093069 
   62100   -680.23118    39.698115   -640.53307    1204.3843    9398.4611    9.6876182   0.17213151 
   62200   -681.62913    40.117437    -641.5117    1217.1059    13280.827    9.7461065   0.18407104 
   62300   -683.80474    36.506936   -647.29781    1107.5684   -7508.3583    9.5628466   0.21961689 
   62400   -684.95108    37.940031   -647.01105    1151.0465   -8650.4119    9.5538805   0.20394479 
   62500    -680.7436    41.345879   -639.39772    1254.3751    4531.5692    9.6283864   0.23031661 
   62600   -682.73513    38.396403   -644.33873    1164.8921   -238.35662    9.6116635   0.18478821 
   62700   -684.41309    37.544589    -646.8685    1139.0493   -2739.4822    9.6183339   0.16880414 
   62800   -684.16288    40.545726   -643.61715    1230.0996    2453.3468    9.6593467   0.18092673 
   62900   -677.33352     37.89136   -639.44216    1149.5699    536.01182    9.5353907   0.26464709 
   63000   -681.38373    36.191296   -645.19243    1097.9923   -366.74433    9.5943886   0.20889226 
   63100   -684.63194    38.087073   -646.54487    1155.5075    7983.6877    9.7418891   0.17978926 
   63200   -683.73985    37.420227   -646.31962    1135.2764   -4000.2558    9.5987584   0.19797185 
   63300   -680.60659    36.704207   -643.90239    1113.5534   -7411.8998    9.5041015   0.24983289 
   63400   -677.93892    38.685418    -639.2535    1173.6605   -7733.3855    9.4523046   0.24398767 
   63500   -681.96307    37.254794   -644.70828    1130.2574    12342.056    9.7400802   0.17639828 
   63600   -685.38236    40.579532   -644.80282    1231.1252   -7061.3992    9.5955332   0.21415836 
   63700   -680.93063    41.437033    -639.4936    1257.1406   -5877.2988     9.513215   0.23728459 
   63800    -683.9281     41.45633   -642.47177     1257.726    745.41321    9.6282651   0.19737314 
   63900   -681.48752    34.994712   -646.49281    1061.6897    1774.6713    9.6271828   0.18885314 
   64000    -683.6445      37.5451    -646.0994    1139.0648   -3391.1647    9.6141086   0.22835859 
   64100   -680.14479    39.948515   -640.19628     1211.981    2794.8084    9.5834337   0.21547214 
   64200   -683.67975    37.275819   -646.40393    1130.8952   -8556.2856    9.5485245   0.23026679 
   64300   -683.25114    36.799907   -646.45123    1116.4567    463.77026    9.6262412   0.21107611 
   64400   -682.33019    39.881579   -642.44861    1209.9503    1394.6848    9.6180121   0.21064659 
   64500   -682.81102    39.283793   -643.52722    1191.8143    11151.949    9.7420202   0.20173409 
   64600   -685.44833    36.809711   -648.63862    1116.7542   -7533.4301    9.5886676   0.20743529 
   64700   -679.98491    35.993967   -643.99094    1092.0057    687.82125    9.5798788   0.22734659 
   64800   -680.25363    38.024901   -642.22873    1153.6213    6132.8824    9.6489966   0.18917909 
   64900   -687.92431    37.956513    -649.9678    1151.5465   -5758.1604    9.6432145   0.15677784 
   65000   -682.38006    35.969002   -646.41106    1091.2483   -7822.6008    9.5302727   0.20233288 
   65100   -683.42093    40.132803   -643.28813    1217.5721    8914.1181    9.7296755   0.20014772 
   65200   -682.63957    36.928925   -645.71065     1120.371    484.09479    9.6042499   0.21940896 
   65300   -687.68532    34.829493   -652.85583    1056.6772   -6063.6541    9.6490959   0.16743124 
   65400   -684.47138    36.895077    -647.5763    1119.3441    4178.1338    9.7018802   0.19286018 
   65500   -684.94183    39.768089   -645.17374    1206.5071    3727.1215    9.6952239   0.18621703 
   65600    -682.7774    36.862807    -645.9146     1118.365   -4890.0751    9.5708701    0.1978912 
   65700    -680.0726    37.176488   -642.89612    1127.8817   -2511.4546    9.5409653   0.20710044 
   65800    -678.1155    38.615856   -639.49965    1171.5501     3283.193    9.5693308   0.23840013 
   65900   -684.96499    40.934491    -644.0305    1241.8941    -3422.371    9.6182001   0.19396697 
   66000   -683.99137    36.658239   -647.33313    1112.1587   -170.25294    9.6455631    0.1851041 
   66100   -685.44368    39.715107   -645.72857    1204.8998    4503.6345    9.7082222   0.16594983 
   66200   -679.28435    39.740387   -639.54396    1205.6667    6114.0299     9.624969   0.23854172 
   66300   -681.55929    35.615564   -645.94373    1080.5255   -10592.453    9.4810512   0.23820439 
   66400   -680.91872    34.574322    -646.3444    1048.9357    2069.8935    9.6225333   0.21998352 
   66500   -682.92911    41.133289   -641.79582    1247.9254    6826.1373    9.6862713   0.19851113 
   66600   -680.47241    39.324357   -641.14806     1193.045   -3967.3439    9.5297505   0.23622974 
   66700    -683.7165    34.994817   -648.72168    1061.6929    4352.6191    9.6947311    0.1859497 
   66800   -683.80801    37.089224   -646.71879    1125.2342    1077.5417    9.6599685   0.22068634 
   66900   -680.56205    37.504317   -643.05774    1137.8275   -2887.3003        9.547   0.22528768 
   67000   -681.28491     37.70502   -643.57989    1143.9166    1456.6373    9.6129579   0.22559861 
   67100   -687.96831    37.232674   -650.73564    1129.5863   -1697.1499    9.6935258    0.1862343 
   67200   -683.85188    37.376933   -646.47495    1133.9629   -7195.1746    9.5539255   0.21516511 
   67300   -679.20719    35.598786    -643.6084    1080.0164    8361.1759    9.6435842   0.21327381 
   67400   -682.74013    41.779583   -640.96055     1267.533   -2549.5559    9.5819718   0.18853996 
   67500   -684.60273    35.827257   -648.77547    1086.9479    2256.5981    9.6794318   0.17921187 
   67600   -682.92865    36.948114   -645.98054    1120.9531   -8785.0678    9.5336391   0.19938114 
   67700    -680.8822    38.613908   -642.26829    1171.4909    2500.0391     9.614138   0.19779343 
   67800   -685.09028    37.868276     -647.222    1148.8695    7885.1842    9.7501961   0.16526619 
   67900   -685.81399     36.96376   -648.85023    1121.4278   -6710.1647    9.6127819     0.180742 
   68000   -678.70935    34.919117   -643.79023    1059.3963   -1278.8656    9.5522879   0.23418105 
   68100   -681.61026    37.546324   -644.06393     1139.102   -1292.3737    9.5898799   0.22613737 
   68200   -685.25541    36.339927   -648.91548    1102.5016    7587.7697    9.7399053   0.17409991 
   68300   -682.76736    39.078157    -643.6892    1185.5756   -3870.6483    9.5726422   0.19317417 
   68400   -683.70604    40.918637    -642.7874    1241.4131   -4810.7612    9.5639948   0.19916044 
   68500   -683.07812    34.271751   -648.80637    1039.7561    6221.0596     9.702824   0.17326686 
   68600   -683.31549    38.012032   -645.30346    1153.2309   -4517.3531    9.5850996   0.19544821 
   68700   -683.57082    41.930174   -641.64065    1272.1017    2522.9713    9.6548585   0.19097798 
   68800   -684.36238    37.478147   -646.88423    1137.0336    856.02525    9.6636826   0.19045815 
   68900   -684.48832    37.091996   -647.39632    1125.3183   -1533.3056    9.6421193   0.18500116 
   69000   -680.62265    40.934384   -639.68827    1241.8909   -5986.9108    9.5145825   0.22192762 
   69100   -681.28434    38.584136   -642.70021    1170.5877    2102.2188     9.623694   0.19453733 
   69200   -686.72227    39.945728   -646.77655    1211.8965    5598.6419    9.7396714   0.15829461 
   69300   -682.60305    36.180265   -646.42279    1097.6577   -6885.0298    9.5539892   0.20249739 
   69400   -680.14972    39.639476   -640.51025    1202.6052   -7592.3347     9.480698   0.23976737 
   69500     -683.658    38.403335   -645.25466    1165.1025   -3863.4575    9.5755806   0.21262504 
   69600   -685.92901    37.854659   -648.07435    1148.4564   -2513.5202    9.6460325   0.18984093 
   69700   -679.45839    37.716919   -641.74147    1144.2776    6442.6365    9.6356521   0.21560825 
   69800   -680.52182    37.579695   -642.94213    1140.1144   -5526.2641    9.5169666   0.23482053 
   69900   -683.65596    34.903122   -648.75284     1058.911    2780.4221    9.6685193   0.19098686 
   70000   -684.48701    39.558434   -644.92858    1200.1465    4624.5746    9.7142583   0.18069452 
   70100   -681.36353     39.24207   -642.12146    1190.5485   -1840.9977    9.5769142   0.20113372 
   70200   -684.06626    35.609029   -648.45723    1080.3272   -4661.0509    9.5873288   0.19273962 
   70300   -686.27616    40.224474   -646.05168    1220.3532    2183.6975    9.6961815   0.19207546 
   70400   -677.10484    36.553274   -640.55156    1108.9742    2991.0536    9.5668724   0.24850832 
   70500   -682.80017    37.419052   -645.38111    1135.2407   -4313.3363    9.5824324   0.21573637 
   70600   -685.06521    38.374698   -646.69051    1164.2337    9923.1824    9.7659366    0.1837979 
   70700   -677.33391    36.297559   -641.03635    1101.2162    5571.9382    9.6042982   0.20280769 
   70800   -683.02994    37.118589   -645.91135    1126.1251   -3294.0746    9.5829684   0.19742078 
   70900    -684.9633    36.953099    -648.0102    1121.1044   -1055.2124    9.6493526     0.156707 
   71000   -683.14383    37.102827     -646.041    1125.6469    3714.9275    9.6601611   0.18589125 
   71100   -683.90284    42.334969   -641.56787    1284.3827     1632.788    9.6450796   0.18039379 
   71200   -684.13676    38.950104   -645.18665    1181.6907    2351.7967     9.658964   0.19354354 
   71300   -683.93011    35.441909    -648.4882     1075.257   -7936.2274      9.55796   0.20278548 
   71400   -684.59043    33.510139   -651.08029    1016.6499    5974.1826    9.7358002    0.1819236 
   71500    -684.1117    40.409753   -643.70194    1225.9743   -4082.5393    9.5934904   0.21109932 
   71600   -679.29199    35.784919   -643.50707    1085.6634    5432.6987    9.6258161   0.22481322 
   71700   -685.03611    38.190126   -646.84598     1158.634    -546.6005    9.6498979   0.20137928 
   71800   -686.84328    37.900088   -648.94319    1149.8347   -320.88432     9.689096    0.1759231 
   71900    -681.4491    39.342324   -642.10678      1193.59   -6053.0095    9.5355496   0.22975068 
   72000   -681.39338    36.309363   -645.08401    1101.5743   -6056.0523      9.53837   0.20604695 
   72100   -686.80003    37.685073   -649.11496    1143.3114    6067.2016    9.7600614   0.16931281 
   72200   -681.51851    38.752049   -642.76646     1175.682    5299.1536    9.6537221   0.20925195 
   72300   -682.08849    39.626588    -642.4619    1202.2142   -9921.4364    9.5016469   0.20248588 
   72400    -684.6536    38.107734   -646.54587    1156.1343    826.85466    9.6599248   0.18745457 
   72500   -685.06574    38.581321   -646.48442    1170.5023    2842.6183    9.7039156   0.17091892 
   72600   -678.38037    39.635506   -638.74486    1202.4848    14.140924    9.5308642   0.21983996 
   72700    -681.4081    38.199906   -643.20819    1158.9307    3453.0973    9.6351872   0.20681966 
   72800   -684.67902    38.206746   -646.47227    1159.1382    4825.4331    9.7000764    0.1694256 
   72900   -686.37898    38.707485   -647.67149    1174.3299   -10657.105    9.5549385   0.18817157 
   73000   -679.51373    39.526513   -639.98722    1199.1781    1120.2247    9.5707398   0.21563289 
   73100   -681.40939    36.904083    -644.5053    1119.6173    5345.9827    9.6706315   0.18498008 
   73200   -684.68523    36.861487   -647.82374     1118.325   -4001.7046    9.6169521   0.22258788 
   73300   -678.74756    36.120882   -642.62668    1095.8561   -2737.7552    9.5253721    0.2333676 
   73400   -680.02124    39.207679   -640.81356    1189.5051   -1545.2583    9.5550199   0.22587349 
   73500   -686.36339     38.99246   -647.37093    1182.9757    1045.5731    9.6902375   0.16454054 
   73600   -683.75621    37.380437   -646.37577    1134.0692    3360.0655    9.6720857   0.17976451 
   73700   -677.42496    37.747069   -639.67789    1145.1923   -5852.6338    9.4615834   0.24424472 
   73800   -682.83194    39.579484   -643.25246    1200.7851   -4318.6642    9.5829216   0.20144968 
   73900   -686.68668    39.846339   -646.84034    1208.8811   -521.81638    9.6874174   0.17074854 
   74000   -681.11956    36.018901   -645.10066    1092.7621    5152.0856    9.6533296   0.19475875 
   74100   -678.12601    38.095855   -640.03015     1155.774   -6660.3957    9.4692181   0.22997948 
   74200   -684.60579    38.899234   -645.70655    1180.1473    2799.3964    9.6798644   0.18156907 
   74300   -686.24151    38.819753   -647.42175     1177.736    2353.0151    9.7023054   0.17649433 
   74400   -677.98452     37.19713   -640.78739    1128.5079   -4833.3522    9.4753623    0.2411404 
   74500   -678.61865    36.408618   -642.21004    1104.5856   -3624.1014    9.4989134   0.23108677 
   74600   -686.53951    40.101792   -646.43772    1216.6312    10365.998    9.7889457   0.17908103 
   74700   -682.05788    37.249363   -644.80851    1130.0926    3147.5727     9.643486   0.19964766 
   74800   -678.38046    38.663739   -639.71673    1173.0028   -13056.512    9.3969682   0.27075803 
   74900   -683.76026    37.219122   -646.54114    1129.1751    1281.4521    9.6525491   0.18153203 
   75000   -684.32355    37.077552     -647.246    1124.8801   -3259.9089    9.6189826   0.18808063 
   75100   -681.52426    38.638924   -642.88533    1172.2499    459.91374     9.602004   0.20738514 
   75200   -683.01772    39.239692   -643.77803    1190.4764    2989.7444    9.6578483   0.21988052 
   75300   -684.40955    32.919214   -651.49033    998.72206   -5654.3595    9.6069245   0.20396107 
   75400     -682.725    35.565843   -647.15916     1079.017   -3811.5805    9.5846342   0.19671436 
   75500   -682.71829    38.372753   -644.34554    1164.1746    3829.9672     9.662669   0.18194076 
   75600   -684.25438    40.284388      -643.97    1222.1709   -2082.2055     9.624738   0.19801142 
   75700   -687.58379    37.063282    -650.5205    1124.4472   -2571.7769    9.6698516   0.17255666 
   75800   -683.10028    37.923356   -645.17693    1150.5406    -9402.955    9.5318916   0.22095473 
   75900   -681.20956    37.105414   -644.10414    1125.7254    618.01124     9.595583    0.2046256 
   76000   -685.14405    36.557213   -648.58683    1109.0938    15043.966    9.8344255   0.15956966 
   76100   -684.69248    36.352503   -648.33998    1102.8831   -1019.0879    9.6448577   0.19727086 
   76200   -679.58741    36.157105    -643.4303     1096.955    -2740.366    9.5291416   0.24283381 
   76300   -682.04952    36.792581   -645.25694    1116.2345    2282.0557    9.6328104   0.21770253 
   76400    -686.4639    36.653888   -649.81001    1112.0267    4056.1582    9.7343367   0.16895326 
   76500   -684.73535    40.601108   -644.13424    1231.7798   -1247.6767    9.6411241   0.18498527 
   76600   -682.02474    38.851935   -643.17281    1178.7123   -1797.7942    9.5808742   0.21771946 
   76700    -683.1916    34.743245   -648.44835    1054.0605   -9147.8832     9.541141   0.22029631 
   76800    -682.6542    34.711822   -647.94237    1053.1072   -5739.9617    9.5560694   0.21779796 
   76900   -680.13925     38.18581   -641.95344    1158.5031     4847.183    9.6261005   0.20275289 
   77000   -684.28802    38.862351   -645.42567    1179.0283    15.484888    9.6496485   0.18845423 
   77100   -684.15882    35.119883   -649.03894    1065.4872   -1736.0511    9.6343536   0.19241973 
[...]
  481400   -686.69894    36.002287   -650.69666    1092.2581   -6046.9013    9.6277696   0.17715377 
  481500     -682.838    39.613006   -643.22499    1201.8022    6017.8111     9.680905   0.18212698 
  481600   -683.81183    40.392341   -643.41949    1225.4461    6160.0933    9.6978499   0.17532756 
  481700   -685.49876    38.135337   -647.36343    1156.9718   -2648.9047    9.6425657   0.19430631 
  481800   -683.51265    37.552624   -645.96003    1139.2931     2541.303    9.6590093   0.18744206 
  481900   -678.96278    38.566475    -640.3963    1170.0519     5589.804     9.616179   0.20627797 
  482000   -681.35394    36.130245   -645.22369    1096.1402   -2498.3325    9.5768741    0.2154354 
  482100     -684.502    36.112736   -648.38926    1095.6089   -628.13349    9.6493861   0.20259966 
  482200   -680.40581     38.17133   -642.23448    1158.0638    1511.5857    9.5901019    0.2054461 
  482300   -676.18519    34.398897   -641.78629    1043.6135    12.055595     9.504967   0.27088064 
  482400   -683.93279     36.29442   -647.63837     1101.121   -9609.9868    9.5565805   0.20257727 
  482500   -686.60851    39.610293   -646.99822    1201.7198    4816.1065    9.7291124    0.1704912 
  482600    -681.7144    39.981837   -641.73257     1212.992    3547.6645    9.6387783   0.20768417 
  482700   -684.66019    39.148711   -645.51148    1187.7161   -6382.9922    9.5730455   0.21313177 
  482800   -686.02661     36.24663   -649.77998    1099.6711   -161.07842    9.6836145     0.182168 
  482900   -684.08425    40.943171   -643.14108    1242.1575    -1345.021    9.6246453   0.19950633 
  483000   -681.34231     38.60644   -642.73587    1171.2644    7079.0923    9.6815897   0.19847915 
  483100   -685.23104    36.123484   -649.10755     1095.935   -7289.8216    9.5915208   0.20174556 
  483200   -684.90484    38.625954   -646.27889    1171.8564    -5234.112    9.6054866   0.19352267 
  483300   -682.23992    39.674574   -642.56535    1203.6701    1344.4025    9.6146524   0.19662431 
  483400   -684.36341     36.86745   -647.49596    1118.5059   -759.99363    9.6408218    0.1913558 
  483500   -683.65326    34.347254     -649.306    1042.0467    1905.9123    9.6682396   0.18817617 
  483600   -682.93361    40.255625   -642.67798    1221.2983   -1663.6411    9.6070532   0.19002796 
  483700   -684.04454    37.770689   -646.27385    1145.9089     7829.076    9.7349885   0.17188828 
  483800   -684.58063    35.800874   -648.77975    1086.1475   -5200.9881    9.6014488   0.17635028 
  483900   -680.00771    38.302799   -641.70491    1162.0523    39.766345    9.5762707   0.20919973 
  484000   -682.96576    38.962457    -644.0033    1182.0654     4829.144    9.6884652   0.19665114 
  484100   -686.83904    38.370942   -648.46809    1164.1197   -4560.1179    9.6338102   0.18387525 
  484200   -679.54242    36.706314   -642.83611    1113.6173    6007.2619    9.6341847   0.20713222 
  484300   -680.70125    38.696518   -642.00473    1173.9972   -2182.1423    9.5634753    0.2068473 
  484400   -685.70265    36.841602   -648.86105    1117.7217   -3936.0983    9.6373033   0.18217849 
  484500   -684.61849    38.771962   -645.84653    1176.2861    6518.8598    9.7190466   0.19593858 
  484600   -680.58121     39.56469   -641.01652    1200.3363   -188.68332    9.5595782    0.2177255 
  484700   -683.53302     36.14794   -647.38508     1096.677   -11484.251    9.5122506   0.21183782 
  484800   -685.90751    39.377091   -646.53042    1194.6448     3385.315    9.7050259   0.17139515 
  484900    -681.4836    38.303103   -643.18049    1162.0616    11545.785     9.728794   0.20641708 
  485000   -680.69799    39.818646   -640.87934     1208.041    -3908.052    9.5239879   0.23516013 
  485100    -674.9479    41.590748   -633.35715     1261.804   -9308.9689    9.3818084   0.30405721 
  485200   -678.04627    36.920439   -641.12583    1120.1135     1277.103    9.5419336   0.24642289 
  485300   -680.31074    36.416908   -643.89384    1104.8371    5578.6768    9.6463514   0.20436563 
  485400   -685.41736    39.728601   -645.68876    1205.3092   -64.231515    9.6639465   0.18071995 
  485500   -685.39675    37.080416   -648.31634     1124.967    5855.3453    9.7272529   0.17694106 
  485600   -687.02387     36.19427    -650.8296    1098.0826   -7245.8355    9.6081465   0.16550492 
  485700   -682.93123    39.845443   -643.08579     1208.854    3210.2642    9.6555239   0.21307394 
  485800    -683.7829    39.098523   -644.68438    1186.1935    9595.4388    9.7571047   0.18310574 
  485900    -684.8635    35.744911   -649.11859    1084.4497   -7202.3711    9.5745978   0.19872012 
  486000   -680.84936    36.774841   -644.07452    1115.6963   -3582.4653    9.5498608   0.22444366 
  486100   -682.60981     40.60365   -642.00616    1231.8569    8507.5011     9.698225   0.19661342 
  486200   -683.02262    36.020403   -647.00222    1092.8077    4500.0235    9.6670564   0.18548062 
  486300   -679.99495    34.984951      -645.01    1061.3936   -18314.825    9.3794906   0.25945228 
  486400   -679.77423    38.885147   -640.88909      1179.72   -1129.3769    9.5483695   0.23808287 
  486500   -686.62667    40.051942   -646.57472    1215.1188    8551.5618    9.7707652   0.15936825 
  486600   -683.90906     36.45745   -647.45161    1106.0671    1458.6574    9.6578667   0.18107461 
  486700    -683.2588    40.510708   -642.74809    1229.0372   -8567.4012    9.5326988   0.19500916 
  486800   -684.30112    36.688405   -647.61271    1113.0739   -4684.8624    9.6072755    0.2088259 
  486900   -685.32351    35.651323   -649.67218    1081.6104    3621.5027    9.7124559   0.18885811 
  487000    -681.6283    38.999335   -642.62896    1183.1843   -4253.2749    9.5431899   0.24154558 
  487100   -681.74546    37.569241   -644.17622    1139.7973   -733.75275    9.5832149   0.23111421 
  487200   -685.92207    36.419177    -649.5029    1104.9059    4327.8947    9.7298631   0.16262654 
  487300   -683.81947    38.964474     -644.855    1182.1266    4354.3186    9.6816368   0.17591692 
  487400   -679.74067    35.749549   -643.99112    1084.5904   -592.70882    9.5686541   0.21373234 
  487500   -681.48223    35.390833    -646.0914    1073.7074    1789.7727     9.615958   0.20142125 
  487600   -685.46652    36.153711   -649.31281    1096.8521    1677.4786    9.7041689   0.18032552 
  487700   -688.44687    35.106297   -653.34057     1065.075    2664.4587    9.7539471   0.15239462 
  487800   -684.21062    36.919146   -647.29147    1120.0743    1225.0049    9.6674881    0.2060279 
  487900   -684.05252    39.068438   -644.98408    1185.2807   -2756.1889     9.595939   0.20858798 
  488000   -681.53443    39.190094   -642.34434    1188.9716    8317.7831    9.6849101   0.20706241 
  488100   -681.14799    40.580363   -640.56762    1231.1504    1898.7481    9.6083785   0.22660849 
  488200   -684.33995    36.309926   -648.03003    1101.5914   -8275.3714    9.5647903   0.18592956 
  488300   -682.10594    35.976491   -646.12945    1091.4755    6027.7723    9.6875076   0.18191465 
  488400   -681.55907    37.446711   -644.11236    1136.0799     12277.48    9.7383135   0.18859952 
  488500   -680.17518    37.101799   -643.07338    1125.6157   -5568.1908    9.5140934   0.21904724 
  488600   -685.38296    34.481676   -650.90128    1046.1249   -1839.1212    9.6545375   0.17644833 
  488700   -684.61169    37.829274   -646.78242    1147.6863    6401.7649    9.7131947   0.18567294 
  488800   -681.65285    38.940297   -642.71255    1181.3931   -4998.0802     9.542839   0.22306489 
  488900   -680.97946    38.732214   -642.24725    1175.0802    945.50915    9.6053313   0.21197399 
  489000   -683.74177    33.778491   -649.96327    1024.7913    10585.283    9.7555557   0.16275912 
  489100   -682.75178    36.269815   -646.48196    1100.3745   -4464.3365     9.577808   0.19758067 
  489200    -682.0801    38.668136   -643.41196    1173.1362    1231.0809    9.6169624   0.19782764 
  489300   -685.38614    36.946078   -648.44006    1120.8914   -635.31592    9.6596627   0.19351287 
  489400   -684.38782    36.455037   -647.93279    1105.9939    3874.0399    9.6895863   0.19009324 
  489500   -682.31783    39.745139   -642.57269    1205.8109   -87.248501    9.6119557   0.19422536 
  489600    -686.7054    39.390309   -647.31509    1195.0458   -95.100477     9.688085   0.18825959 
  489700   -685.35916    36.988052   -648.37111    1122.1648   -11496.387    9.5431065   0.19350458 
  489800   -680.72687    38.894234   -641.83263    1179.9956    3828.1259     9.614448   0.21018038 
  489900   -685.22404    39.688239    -645.5358    1204.0846    7752.8996    9.7441585   0.18130483 
  490000   -684.65039    36.554513   -648.09587    1109.0118    699.57004    9.6658319   0.18003494 
  490100   -679.09467    37.263456   -641.83121    1130.5202   -10100.761    9.4631062    0.2187605 
  490200   -683.33666    37.702654   -645.63401    1143.8448    3289.0776    9.6747208   0.19284979 
  490300   -686.61355    39.807074   -646.80647    1207.6899    492.43576    9.6937993   0.17259197 
  490400   -679.66864    39.000794   -640.66784    1183.2285    2804.4902    9.5859451   0.21268665 
  490500   -684.46949    39.149622   -645.31987    1187.7438   -7615.1974    9.5674561    0.2245476 
  490600   -683.91087    35.962917   -647.94796    1091.0637    193.32196    9.6522949   0.19982764 
  490700   -680.47745    38.286131   -642.19131    1161.5467   -524.29559    9.5808824   0.21795521 
  490800   -683.78111    41.548075   -642.23304    1260.5094    4977.2998    9.6799129   0.19683282 
  490900   -682.48281    35.274143   -647.20867    1070.1672   -4434.8298    9.5751189   0.22121618 
  491000    -681.1838    36.354465   -644.82933    1102.9427   -12772.911    9.4610592    0.2126987 
  491100   -682.06326    43.698622   -638.36463    1325.7539    4990.9316    9.6449196   0.18548077 
  491200   -684.19771    38.163772   -646.03394    1157.8345    2402.4031    9.6708804   0.18660757 
  491300   -683.67007    37.969399   -645.70067    1151.9375   -11900.954    9.5173468   0.20667442 
  491400   -683.27464    38.366033   -644.90861    1163.9708    2901.3125     9.664233   0.19212013 
  491500   -678.61118    41.105291   -637.50589     1247.076    5795.6606    9.6033447   0.23179917 
  491600   -679.77926      39.5024   -640.27686    1198.4465    -5602.911    9.5110155   0.23031927 
  491700   -683.58925    38.619015   -644.97024    1171.6459    3038.2443    9.6696309   0.17910939 
  491800   -684.30165     38.70602   -645.59563    1174.2855    5556.5766    9.7147729   0.16712031 
  491900   -683.44374    38.696971   -644.74677     1174.011    1880.4454    9.6478004   0.18521838 
  492000   -674.98212    37.665201   -637.31692    1142.7085   -1344.2952    9.4631119   0.26573596 
  492100   -683.16278    39.388262   -643.77452    1194.9837   -1245.6721    9.6144216   0.19455958 
  492200   -684.08887    38.537281   -645.55159    1169.1662    2267.3869    9.6773938   0.19745071 
  492300   -679.32282    32.925763   -646.39706    998.92075   -9082.8014    9.4688325   0.26082421 
  492400   -676.35926    35.210636   -641.14862    1068.2405    833.52379    9.5248337    0.2656492 
  492500   -683.63308    38.162766   -645.47031    1157.8039   -2611.7925    9.6022279   0.21424237 
  492600   -684.63835    36.123806   -648.51454    1095.9448   -4020.5183    9.6154696   0.20017379 
  492700   -681.88316    39.258782   -642.62438    1191.0555    2896.9617    9.6351741   0.22001415 
  492800   -682.44578    38.300935   -644.14485    1161.9958   -2094.8642    9.5917445    0.2214673 
  492900   -685.56652    36.196295   -649.37023     1098.144   -4466.3353    9.6137789   0.20384374 
  493000   -683.87894    39.878238    -644.0007    1209.8489   -8244.1798    9.5442934   0.22036585 
  493100   -680.25655    39.882205   -640.37434    1209.9693    4924.5564    9.6216057   0.20067323 
  493200   -683.91484    36.223422   -647.69142     1098.967     2643.463    9.6783042   0.18450281 
  493300   -682.05829    35.342146   -646.71614    1072.2304   -3184.8358    9.5947598   0.21240473 
  493400   -679.09466    38.006272   -641.08839    1153.0561   -4273.8925    9.5013093   0.23599312 
  493500   -682.61997    38.393295   -644.22667    1164.7979    98.034268    9.6287443   0.20927636 
  493600   -686.07703     37.71739   -648.35964    1144.2919    3255.7059    9.7203468   0.16711849 
  493700   -682.39004    38.516911   -643.87312    1168.5482    2578.6554    9.6430022   0.18076407 
  493800   -681.55352    38.824972   -642.72855    1177.8943   -1530.9101    9.5805195   0.19782843 
  493900   -685.53876    34.944632   -650.59413    1060.1703   -2275.2626    9.6585414   0.16620342 
  494000    -684.7662    38.034481   -646.73172     1153.912   -3347.2222    9.6207904   0.19493361 
  494100   -684.64294    41.705386   -642.93756     1265.282   -1521.8483    9.6372205    0.2038528 
  494200   -686.81887    39.377769   -647.44111    1194.6654    6417.8087    9.7557924   0.16540699 
  494300   -684.75168    35.404476   -649.34721    1074.1214    -5350.271    9.6049845   0.17679897 
  494400   -680.25393    36.577687   -643.67625    1109.7149   -1581.9639    9.5834477   0.19407142 
  494500   -685.82882    40.052867   -645.77595    1215.1469    7807.3005    9.7529899   0.17089447 
  494600   -684.39424    34.114648   -650.27959    1034.9898    164.47821    9.6619794   0.17288193 
  494700    -679.3831    36.390596    -642.9925    1104.0388   -3290.2775    9.5494489   0.23014967 
  494800   -685.40205    41.398197   -644.00385    1255.9623   -867.93927    9.6484552   0.17634084 
  494900   -685.06412    36.518919    -648.5452     1107.932    -1779.845    9.6510342   0.17703613 
  495000   -680.85528    38.155739   -642.69954    1157.5908    3557.5667    9.6148387   0.20682331 
  495100   -679.15632    35.612625    -643.5437    1080.4363    955.18994    9.5779394   0.21863145 
  495200   -686.23751    38.517671   -647.71984    1168.5712    729.79291    9.6918881   0.18805024 
  495300   -683.39515    38.070427   -645.32473    1155.0025    7002.7071    9.7139653    0.1762897 
  495400   -680.92156    39.731215   -641.19035    1205.3885   -2865.1662    9.5446811   0.21424285 
  495500   -684.29796    37.386031   -646.91193    1134.2389   -1089.1568    9.6317222   0.17724072 
  495600   -684.33517    36.900481   -647.43469     1119.508     6682.279     9.725677   0.16210053 
  495700   -680.31527    39.084435   -641.23083    1185.7661   -1387.6005    9.5562769   0.21135161 
  495800    -681.8636    37.210603     -644.653    1128.9167   -10492.978    9.4880832   0.20438318 
  495900   -684.78377    36.455985   -648.32778    1106.0226    4186.4835    9.7049413   0.17328691 
  496000   -684.34388    41.236336   -643.10755    1251.0517    797.65044    9.6477958    0.1828536 
  496100   -681.68875    38.414636   -643.27411    1165.4453   -556.41091    9.5892378   0.21731633 
  496200    -684.7426    34.646498    -650.0961    1051.1254   -2070.3571    9.6283173   0.19718803 
  496300   -681.53115    36.542891   -644.98826    1108.6593   -10273.428    9.4969869   0.20162658 
  496400   -681.89399    38.135881   -643.75811    1156.9883    10827.714    9.7310656   0.18395273 
  496500   -685.82832    35.873997   -649.95432     1088.366    10629.849     9.797392   0.16704797 
  496600   -682.30025    33.510956   -648.78929    1016.6747   -4263.4867    9.5803728   0.21138082 
  496700   -683.29946     38.91026    -644.3892    1180.4819   -3633.0675     9.582605   0.20377464 
  496800   -682.56844    37.322717   -645.24572    1132.3181     644.6073    9.6355473   0.20005114 
  496900    -686.4433    34.656576   -651.78673    1051.4311    6793.3451    9.7771787   0.16273847 
  497000   -681.69409    32.067854   -649.62624    972.89301    603.50252     9.619504   0.21652425 
  497100    -680.6296    34.877728   -645.75187    1058.1406    -7308.368     9.512746    0.2319937 
  497200   -683.72829    38.516603   -645.21169    1168.5388    2400.9829    9.6605036   0.19612839 
  497300   -683.41463    37.352744   -646.06188     1133.229    6416.8483    9.6987561   0.17806224 
  497400   -690.61039    36.619229   -653.99116    1110.9752   -4546.9031    9.7026776   0.14306663 
  497500   -688.70926    38.865247   -649.84401    1179.1162   -4881.5866    9.6725228   0.15010995 
  497600   -686.85632    41.013434   -645.84289    1244.2892    2553.7585    9.7139254   0.17728343 
  497700   -684.36191    40.022698   -644.33922    1214.2316   -3616.4883    9.6034486   0.21647724 
  497800   -678.03771    37.897752   -640.13996    1149.7638   -5537.4629     9.482897   0.26256724 
  497900   -680.88087    40.585613   -640.29525    1231.3097     -941.484    9.5860565    0.2416317 
  498000   -683.16383    36.244198   -646.91963    1099.5973   -2234.0151    9.6151542   0.20441067 
  498100   -683.30877    37.499801   -645.80897    1137.6905    6772.4494    9.6870048   0.20820991 
  498200   -682.49208    38.889604   -643.60248    1179.8552     4619.837    9.6591266   0.19816897 
  498300   -683.52753     40.47136   -643.05617    1227.8434   -9741.4616    9.5146706   0.20463259 
  498400   -685.14114     35.52775   -649.61339    1077.8613   -932.83187    9.6614191   0.17600695 
  498500   -684.14487    38.566377   -645.57849    1170.0489     1923.845    9.6790895   0.17857935 
  498600   -683.05878    39.499487   -643.55929    1198.3581    5302.6222    9.6831401   0.17459671 
  498700   -686.73169    36.890462   -649.84123     1119.204   -8217.4085    9.5937631   0.18163932 
  498800   -686.76877    39.463013   -647.30576    1197.2516   -1867.3064    9.6714655   0.19254509 
  498900   -682.69207    39.430937   -643.26114    1196.2784    6332.1076     9.689342   0.20608768 
  499000   -683.66155    37.707955    -645.9536    1144.0056   -322.80741    9.6275688   0.20967328 
  499100   -684.21022    32.705004   -651.50521    992.22322   -6784.0941    9.5778933    0.1831457 
  499200   -682.76712    38.210674   -644.55644    1159.2574    6059.3015     9.668271   0.16795581 
  499300   -682.40032    38.249293   -644.15102    1160.4291    5433.2261     9.674207    0.1843302 
  499400   -682.36454    35.223299   -647.14125    1068.6247   -202.05284    9.6211251    0.2096224 
  499500   -688.29621    34.932175   -653.36404    1059.7924   -3083.1326    9.6855311   0.16651558 
  499600   -685.27327    38.114283   -647.15899     1156.333   -4255.4736    9.6203016   0.18503388 
  499700   -683.59782     37.82846   -645.76936    1147.6616     5540.794    9.6820005   0.19348106 
  499800   -683.09875    38.943737   -644.15501    1181.4975   -1863.4147    9.6073758   0.19790624 
  499900   -677.46557    38.992935   -638.47263    1182.9901    544.71722    9.5350321   0.22522327 
  500000   -683.05608    38.846922   -644.20916    1178.5603   -2845.7698    9.5813624   0.19768925 
Loop time of 356.342 on 1 procs for 500000 steps with 256 atoms

Performance: 606.158 ns/day, 0.040 hours/ns, 1403.144 timesteps/s
100.0% CPU use with 1 MPI tasks x no OpenMP threads

MPI task timing breakdown:
Section |  min time  |  avg time  |  max time  |%varavg| %total
---------------------------------------------------------------
Pair    | 214.31     | 214.31     | 214.31     |   0.0 | 60.14
Neigh   | 13.023     | 13.023     | 13.023     |   0.0 |  3.65
Comm    | 3.9038     | 3.9038     | 3.9038     |   0.0 |  1.10
Output  | 0.15259    | 0.15259    | 0.15259    |   0.0 |  0.04
Modify  | 124.12     | 124.12     | 124.12     |   0.0 | 34.83
Other   |            | 0.8376     |            |       |  0.24

Nlocal:    256 ave 256 max 256 min
Histogram: 1 0 0 0 0 0 0 0 0 0
Nghost:    1431 ave 1431 max 1431 min
Histogram: 1 0 0 0 0 0 0 0 0 0
Neighs:    11469 ave 11469 max 11469 min
Histogram: 1 0 0 0 0 0 0 0 0 0

Total # of neighbors = 11469
Ave neighs/atom = 44.8008
Neighbor list builds = 23634
Dangerous builds = 0
    
Total wall time: 0:05:56
