
     Program PWSCF v.6.4.1 starts on 14Dec2020 at  2:48:13 

     This program is part of the open-source Quantum ESPRESSO suite
     for quantum simulation of materials; please cite
         "P. Giannozzi et al., J. Phys.:Condens. Matter 21 395502 (2009);
         "P. Giannozzi et al., J. Phys.:Condens. Matter 29 465901 (2017);
          URL http://www.quantum-espresso.org", 
     in publications or presentations arising from this work. More details at
     http://www.quantum-espresso.org/quote

     Parallel version (MPI), running on     1 processors

     MPI processes distributed on     1 nodes
     Waiting for input...
     Reading input from standard input
Warning: card &IONS ignored
Warning: card / ignored
Warning: card &CELL ignored
Warning: card / ignored

     Current dimensions of program PWSCF are:
     Max number of different atomic species (ntypx) = 10
     Max number of k-points (npk) =  40000
     Max angular momentum in pseudopotentials (lmaxx) =  3

     Subspace diagonalization in iterative solution of the eigenvalue problem:
     a serial algorithm will be used


     G-vector sticks info
     --------------------
     sticks:   dense  smooth     PW     G-vecs:    dense   smooth      PW
     Sum         373     373    129                 5449     5449    1045



     bravais-lattice index     =            0
     lattice parameter (alat)  =       8.8817  a.u.
     unit-cell volume          =     700.6323 (a.u.)^3
     number of atoms/cell      =           10
     number of atomic types    =            4
     number of electrons       =        32.00
     number of Kohn-Sham states=           16
     kinetic-energy cutoff     =      15.0000  Ry
     charge density cutoff     =      60.0000  Ry
     convergence threshold     =      1.0E-07
     mixing beta               =       0.5000
     number of iterations used =            8  plain     mixing
     Exchange-correlation      =  SLA  PW   PBX  PBC ( 1  4  3  4 0 0)

     celldm(1)=   8.881713  celldm(2)=   0.000000  celldm(3)=   0.000000
     celldm(4)=   0.000000  celldm(5)=   0.000000  celldm(6)=   0.000000

     crystal axes: (cart. coord. in units of alat)
               a(1) = (   1.000000   0.000000   0.000000 )  
               a(2) = (   0.000000   1.000000   0.000000 )  
               a(3) = (   0.000000   0.000000   1.000000 )  

     reciprocal axes: (cart. coord. in units 2 pi/alat)
               b(1) = (  1.000000  0.000000  0.000000 )  
               b(2) = (  0.000000  1.000000  0.000000 )  
               b(3) = (  0.000000  0.000000  1.000000 )  


     PseudoPot. # 1 for B  read from file:
     /home/modeler/qe_pseudo/b_pbe_v1.4.uspp.F.UPF
     MD5 check sum: cc6de2960df11db49a60e589f9ebb39b
     Pseudo is Ultrasoft + core correction, Zval =  3.0
     Generated by new atomic code, or converted to UPF format
     Using radial grid of  781 points,  4 beta functions with: 
                l(1) =   0
                l(2) =   0
                l(3) =   1
                l(4) =   1
     Q(r) pseudized with  8 coefficients,  rinner =    1.100   1.100   1.100


     PseudoPot. # 2 for H  read from file:
     /home/modeler/qe_pseudo/H.pbe-rrkjus_psl.1.0.0.UPF
     MD5 check sum: f52b6d4d1c606e5624b1dc7b2218f220
     Pseudo is Ultrasoft, Zval =  1.0
     Generated using "atomic" code by A. Dal Corso v.5.1
     Using radial grid of  929 points,  2 beta functions with: 
                l(1) =   0
                l(2) =   0
     Q(r) pseudized with 0 coefficients 


     PseudoPot. # 3 for N  read from file:
     /home/modeler/qe_pseudo/N.pbe-n-radius_5.UPF
     MD5 check sum: 16739722b17309cd8fe442a2ace49922
     Pseudo is Ultrasoft + core correction, Zval =  5.0
     Generated using "atomic" code by A. Dal Corso v.5.1
     Using radial grid of 1085 points,  4 beta functions with: 
                l(1) =   0
                l(2) =   0
                l(3) =   1
                l(4) =   1
     Q(r) pseudized with 0 coefficients 


     PseudoPot. # 4 for Na read from file:
     /home/modeler/qe_pseudo/na_pbe_v1.5.uspp.F.UPF
     MD5 check sum: 44600605ef58000f06b90626533354dc
     Pseudo is Ultrasoft, Zval =  9.0
     Generated by new atomic code, or converted to UPF format
     Using radial grid of  819 points,  5 beta functions with: 
                l(1) =   0
                l(2) =   0
                l(3) =   1
                l(4) =   1
                l(5) =   2
     Q(r) pseudized with  8 coefficients,  rinner =    1.250   1.250   1.250
                                                       1.250   1.250

     atomic species   valence    mass     pseudopotential
        B              3.00    10.81000     B ( 1.00)
        H              1.00     1.00800     H ( 1.00)
        N              5.00    14.00700     N ( 1.00)
        Na             9.00    22.98977     Na( 1.00)

     No symmetry found



   Cartesian axes

     site n.     atom                  positions (alat units)
         1           Na  tau(   1) = (   0.5000000   0.0000000   0.5000000  )
         2           Na  tau(   2) = (   0.0000000   0.5000000   0.5000000  )
         3           N   tau(   3) = (   0.5000000   0.5000000   0.5000000  )
         4           H   tau(   4) = (   0.6965851   0.5000000   0.4304957  )
         5           H   tau(   5) = (   0.4017064   0.6702489   0.4304957  )
         6           B   tau(   6) = (   0.0000000   0.0000000   0.0000000  )
         7           H   tau(   7) = (   0.2347000   0.0000000  -0.0829787  )
         8           H   tau(   8) = (  -0.1173489   0.2032553  -0.0829787  )
         9           H   tau(   9) = (  -0.1173489  -0.2032553  -0.0829787  )
        10           H   tau(  10) = (   0.0000000   0.0000000   0.2489362  )

     number of k points=     8
                       cart. coord. in units 2pi/alat
        k(    1) = (   0.0000000   0.0000000   0.0000000), wk =   0.2500000
        k(    2) = (   0.0000000   0.0000000  -0.5000000), wk =   0.2500000
        k(    3) = (   0.0000000  -0.5000000  -0.5000000), wk =   0.2500000
        k(    4) = (  -0.5000000  -0.5000000  -0.5000000), wk =   0.2500000
        k(    5) = (  -0.5000000   0.0000000   0.0000000), wk =   0.2500000
        k(    6) = (   0.0000000  -0.5000000   0.0000000), wk =   0.2500000
        k(    7) = (  -0.5000000   0.0000000   0.5000000), wk =   0.2500000
        k(    8) = (  -0.5000000   0.5000000   0.0000000), wk =   0.2500000

     Dense  grid:     5449 G-vectors     FFT dimensions: (  24,  24,  24)

     Estimated max dynamical RAM per process >      19.51 MB

     Check: negative core charge=   -0.000443

     Initial potential from superposition of free atoms

     starting charge   31.98707, renormalised to   32.00000

     negative rho (up, down):  6.201E-05 0.000E+00
     Starting wfcs are   24 randomized atomic wfcs

     total cpu time spent up to now is        0.9 secs

     Self-consistent Calculation

     iteration #  1     ecut=    15.00 Ry     beta= 0.50
     Davidson diagonalization with overlap
     ethr =  1.00E-02,  avg # of iterations =  2.0

     negative rho (up, down):  2.480E-04 0.000E+00

     total cpu time spent up to now is        1.3 secs

     total energy              =    -219.39594960 Ry
     Harris-Foulkes estimate   =    -220.65764393 Ry
     estimated scf accuracy    <       2.22233339 Ry

     iteration #  2     ecut=    15.00 Ry     beta= 0.50
     Davidson diagonalization with overlap
     ethr =  6.94E-03,  avg # of iterations =  2.0

     negative rho (up, down):  2.475E-04 0.000E+00

     total cpu time spent up to now is        1.6 secs

     total energy              =    -219.71606522 Ry
     Harris-Foulkes estimate   =    -219.79410822 Ry
     estimated scf accuracy    <       0.16969048 Ry

     iteration #  3     ecut=    15.00 Ry     beta= 0.50
     Davidson diagonalization with overlap
     ethr =  5.30E-04,  avg # of iterations =  2.1

     negative rho (up, down):  4.071E-04 0.000E+00

     total cpu time spent up to now is        1.9 secs

     total energy              =    -219.73325069 Ry
     Harris-Foulkes estimate   =    -219.74679229 Ry
     estimated scf accuracy    <       0.03180568 Ry

     iteration #  4     ecut=    15.00 Ry     beta= 0.50
     Davidson diagonalization with overlap
     ethr =  9.94E-05,  avg # of iterations =  2.2

     negative rho (up, down):  5.010E-04 0.000E+00

     total cpu time spent up to now is        2.1 secs

     total energy              =    -219.73749574 Ry
     Harris-Foulkes estimate   =    -219.73822791 Ry
     estimated scf accuracy    <       0.00282160 Ry

     iteration #  5     ecut=    15.00 Ry     beta= 0.50
     Davidson diagonalization with overlap
     ethr =  8.82E-06,  avg # of iterations =  2.0

     negative rho (up, down):  5.280E-04 0.000E+00

     total cpu time spent up to now is        2.4 secs

     total energy              =    -219.73775507 Ry
     Harris-Foulkes estimate   =    -219.73775193 Ry
     estimated scf accuracy    <       0.00013361 Ry

     iteration #  6     ecut=    15.00 Ry     beta= 0.50
     Davidson diagonalization with overlap
     ethr =  4.18E-07,  avg # of iterations =  2.0

     negative rho (up, down):  5.279E-04 0.000E+00

     total cpu time spent up to now is        2.7 secs

     total energy              =    -219.73776569 Ry
     Harris-Foulkes estimate   =    -219.73776473 Ry
     estimated scf accuracy    <       0.00000711 Ry

     iteration #  7     ecut=    15.00 Ry     beta= 0.50
     Davidson diagonalization with overlap
     ethr =  2.22E-08,  avg # of iterations =  2.0

     negative rho (up, down):  5.272E-04 0.000E+00

     total cpu time spent up to now is        2.9 secs

     total energy              =    -219.73776641 Ry
     Harris-Foulkes estimate   =    -219.73776632 Ry
     estimated scf accuracy    <       0.00000028 Ry

     iteration #  8     ecut=    15.00 Ry     beta= 0.50
     Davidson diagonalization with overlap
     ethr =  8.74E-10,  avg # of iterations =  2.0

     negative rho (up, down):  5.273E-04 0.000E+00

     total cpu time spent up to now is        3.2 secs

     End of self-consistent calculation

          k = 0.0000 0.0000 0.0000 (   691 PWs)   bands (ev):

   -56.5080 -55.7536 -25.7888 -25.5981 -25.5233 -24.7818 -24.6363 -24.4583
   -15.6951  -7.4700  -6.2210  -2.2751  -1.8436  -1.4766  -1.0006   0.8116

          k = 0.0000 0.0000-0.5000 (   682 PWs)   bands (ev):

   -56.4720 -55.6834 -25.8336 -25.5991 -25.0994 -24.7511 -24.6054 -23.9100
   -15.6781  -7.2662  -6.2028  -3.0146  -1.5302  -1.4833  -1.4164   0.5506

          k = 0.0000-0.5000-0.5000 (   680 PWs)   bands (ev):

   -56.4422 -55.6942 -25.8537 -25.0712 -25.0202 -24.9348 -24.5065 -24.3012
   -15.5745  -7.1296  -6.2588  -3.0149  -2.3772  -1.3827  -1.2494   0.7382

          k =-0.5000-0.5000-0.5000 (   672 PWs)   bands (ev):

   -56.4193 -55.6659 -25.5990 -25.2636 -25.0937 -24.4944 -24.3713 -24.2891
   -15.4485  -7.0090  -6.4167  -2.7156  -2.1283  -1.9839  -1.7493   0.3684

          k =-0.5000 0.0000 0.0000 (   682 PWs)   bands (ev):

   -56.4588 -55.7004 -25.4848 -25.4490 -25.1798 -24.8707 -24.6928 -24.2232
   -15.5768  -7.4748  -6.1718  -2.2717  -2.0578  -1.6032  -1.3968   0.6297

          k = 0.0000-0.5000 0.0000 (   682 PWs)   bands (ev):

   -56.4529 -55.7042 -25.7344 -25.4068 -24.9126 -24.7999 -24.7149 -24.3158
   -15.5929  -7.3964  -6.1897  -2.3021  -2.0788  -1.6268  -1.3980   0.5778

          k =-0.5000 0.0000 0.5000 (   680 PWs)   bands (ev):

   -56.4481 -55.6894 -25.6185 -25.3917 -25.0140 -24.9914 -24.3789 -24.3088
   -15.5530  -7.1363  -6.4068  -2.7814  -2.3659  -1.4194  -1.3143   0.7394

          k =-0.5000 0.5000 0.0000 (   680 PWs)   bands (ev):

   -56.4498 -55.6960 -25.6041 -25.4086 -25.1139 -24.8583 -24.4847 -24.3027
   -15.4645  -7.1858  -6.4618  -2.5555  -2.0718  -1.9795  -1.2552   0.6673

     highest occupied level (ev):     0.8116

!    total energy              =    -219.73776643 Ry
     Harris-Foulkes estimate   =    -219.73776643 Ry
     estimated scf accuracy    <       0.00000003 Ry

     The total energy is the sum of the following terms:

     one-electron contribution =    -185.39728480 Ry
     hartree contribution      =      96.23380737 Ry
     xc contribution           =     -40.23340655 Ry
     ewald contribution        =     -90.34088245 Ry

     convergence has been achieved in   8 iterations

     negative rho (up, down):  5.273E-04 0.000E+00

     Forces acting on atoms (cartesian axes, Ry/au):

     atom    1 type  4   force =     0.01969669    0.08083574    0.02112897
     atom    2 type  4   force =     0.13306791   -0.01127810    0.03919351
     atom    3 type  3   force =    -0.03369905   -0.07638085    0.08146051
     atom    4 type  2   force =    -0.09275893    0.01924523   -0.08003532
     atom    5 type  2   force =    -0.02575193   -0.00983880   -0.06775566
     atom    6 type  1   force =     0.00163646   -0.00354916   -0.03324650
     atom    7 type  2   force =     0.06696981   -0.00005334   -0.01389548
     atom    8 type  2   force =    -0.03513500    0.05854229   -0.01734467
     atom    9 type  2   force =    -0.03519443   -0.05744654   -0.01734399
     atom   10 type  2   force =     0.00116848   -0.00007648    0.08783863

     Total force =     0.290505     Total SCF correction =     0.000130


     Computing stress (Cartesian axis) and pressure


     negative rho (up, down):  5.273E-04 0.000E+00
          total   stress  (Ry/bohr**3)                   (kbar)     P=-2771.17
  -0.01827515   0.00008535   0.00005889      -2688.37     12.56      8.66
   0.00008535  -0.01871408  -0.00006982         12.56  -2752.94    -10.27
   0.00005889  -0.00006982  -0.01952488          8.66    -10.27  -2872.21


     init_run     :      0.57s CPU      0.57s WALL (       1 calls)
     electrons    :      2.21s CPU      2.25s WALL (       1 calls)
     forces       :      0.08s CPU      0.08s WALL (       1 calls)
     stress       :      0.19s CPU      0.19s WALL (       1 calls)

     Called by init_run:
     wfcinit      :      0.13s CPU      0.13s WALL (       1 calls)
     potinit      :      0.01s CPU      0.01s WALL (       1 calls)
     hinit0       :      0.41s CPU      0.41s WALL (       1 calls)

     Called by electrons:
     c_bands      :      1.72s CPU      1.74s WALL (       8 calls)
     sum_band     :      0.34s CPU      0.36s WALL (       8 calls)
     v_of_rho     :      0.06s CPU      0.06s WALL (       9 calls)
     newd         :      0.11s CPU      0.11s WALL (       9 calls)
     mix_rho      :      0.01s CPU      0.01s WALL (       8 calls)

     Called by c_bands:
     init_us_2    :      0.06s CPU      0.06s WALL (     152 calls)
     cegterg      :      1.62s CPU      1.64s WALL (      64 calls)

     Called by sum_band:
     sum_band:bec :      0.00s CPU      0.00s WALL (      64 calls)
     addusdens    :      0.10s CPU      0.10s WALL (       8 calls)

     Called by *egterg:
     h_psi        :      1.15s CPU      1.16s WALL (     203 calls)
     s_psi        :      0.16s CPU      0.17s WALL (     203 calls)
     g_psi        :      0.01s CPU      0.01s WALL (     131 calls)
     cdiaghg      :      0.09s CPU      0.09s WALL (     195 calls)

     Called by h_psi:
     h_psi:pot    :      1.15s CPU      1.16s WALL (     203 calls)
     h_psi:calbec :      0.19s CPU      0.19s WALL (     203 calls)
     vloc_psi     :      0.79s CPU      0.80s WALL (     203 calls)
     add_vuspsi   :      0.17s CPU      0.17s WALL (     203 calls)

     General routines
     calbec       :      0.29s CPU      0.30s WALL (     307 calls)
     fft          :      0.03s CPU      0.04s WALL (     124 calls)
     ffts         :      0.00s CPU      0.00s WALL (       8 calls)
     fftw         :      0.79s CPU      0.80s WALL (    6408 calls)

     Parallel routines

     PWSCF        :      3.42s CPU      3.47s WALL


   This run was terminated on:   2:48:17  14Dec2020            

=------------------------------------------------------------------------------=
   JOB DONE.
=------------------------------------------------------------------------------=
