LAMMPS (3 Mar 2020)
Reading data file ...
  orthogonal box = (0 0 0) to (17.469 17.469 17.469)
  1 by 1 by 1 MPI processor grid
  reading atoms ...
  217 atoms
  read_data CPU = 0.00104547 secs
Reading potential file library.meam with DATE: 2012-06-29
Reading potential file LiSi.meam with DATE: 2020-11-07
1 atoms in group Li
Neighbor list info ...
  update every 1 steps, delay 10 steps, check yes
  max neighbors/atom: 2000, page size: 100000
  master list distance cutoff = 6
  ghost atom cutoff = 6
  binsize = 3, bins = 6 6 6
  2 neighbor lists, perpetual/occasional/extra = 2 0 0
  (1) pair meam/c, perpetual
      attributes: full, newton on
      pair build: full/bin/atomonly
      stencil: full/bin/3d
      bin: standard
  (2) pair meam/c, perpetual, half/full from (1)
      attributes: half, newton on
      pair build: halffull/newton
      stencil: none
      bin: none
Setting up Verlet run ...
  Unit style    : metal
  Current step  : 0
  Time step     : 0.00241647
Per MPI rank memory allocation (min/avg/max) = 9.27 | 9.27 | 9.27 Mbytes
Step PotEng KinEng TotEng Temp Press Density c_msdli[4] 
       0   -951.04357    50.256344   -900.78722         1800   -114161.75    1.8918427            0 
     100    -950.5749    36.777205   -913.79769    1317.2261    45018.802    2.2960401   0.46673159 
     200   -948.06877    38.352285   -909.71648    1373.6398   -21257.945    2.1195452   0.26625621 
     300   -954.27663    47.926345   -906.35029    1716.5479    10156.876    2.2139795   0.18382685 
     400    -945.3175    44.459108   -900.85839     1592.364   -1184.2979    2.1616673   0.11851903 
     500   -942.59917     44.61169   -897.98748     1597.829   -4544.3544    2.1522048    0.4128192 
     600   -941.97108    50.259671   -891.71141    1800.1192    12113.671    2.1901315   0.36008526 
     700   -937.10592    45.615133   -891.49078    1633.7686   -16626.192    2.1128669   0.04578645 
     800   -936.41535    51.453082   -884.96227    1842.8628    20194.697    2.1987221    1.0506105 
     900   -939.76172    46.387025    -893.3747     1661.415   -15150.833    2.1169112   0.10312358 
    1000   -944.01945    54.350297   -889.66915    1946.6306    12416.236    2.1932625  0.085296721 
    1100   -933.08258    47.316868   -885.76571    1694.7186   -3128.7533    2.1336373   0.73805005 
    1200   -940.66362    56.078986   -884.58464    2008.5459   -4235.5195    2.1385162   0.22491825 
    1300   -939.19135    50.483241    -888.7081    1808.1266    11028.025    2.1829431  0.020366671 
    1400   -943.27988    48.739694   -894.54018    1745.6791   -14081.205    2.1285826   0.21795732 
    1500   -938.24098    51.621194   -886.61978     1848.884    15941.271    2.1963436   0.63376556 
    1600   -938.02424    46.999485   -891.02476    1683.3511   -15373.113    2.1218337  0.052787057 
    1700   -946.26314    49.048182   -897.21495     1756.728    9700.0154    2.1961361   0.26491098 
    1800   -938.63182    42.882161   -895.74966    1535.8835    958.30851    2.1611756   0.42850136 
    1900   -939.05812    47.690728   -891.36739    1708.1089   -2382.4363     2.148158   0.33885982 
    2000   -939.57448    51.231367   -888.34311    1834.9218    9037.0744    2.1770492   0.12203925 
    2100   -942.10598    46.562996   -895.54298    1667.7177    -11700.45    2.1345161   0.30282794 
    2200    -945.1477    53.084063   -892.06364    1901.2786    13346.239    2.2005214   0.61203476 
    2300   -937.89183    52.416253   -885.47558    1877.3601   -12108.835    2.1187706   0.19326809 
    2400   -941.89457    51.545188   -890.34938    1846.1617     5596.304    2.1791022  0.059907842 
    2500   -944.41968    51.545422   -892.87426    1846.1701   -2888.9473    2.1607047  0.096946372 
    2600   -938.85084    47.925154   -890.92568    1716.5052   -3833.3128    2.1523529   0.43389372 
    2700   -935.38368    52.640591   -882.74309    1885.3951    9812.3883    2.1711293   0.23347577 
    2800   -936.89477    48.589646   -888.30512    1740.3049   -10906.548    2.1232201   0.20748744 
    2900   -944.68868    52.705972   -891.98271    1887.7368    9827.6584    2.1977159   0.19814116 
    3000   -943.51388    50.848452   -892.66543    1821.2071   -8476.1209    2.1428641   0.22236787 
    3100   -936.23254    50.521727   -885.71082     1809.505    3742.9065    2.1607587   0.59410189 
    3200    -939.4411    48.092614   -891.34848     1722.503    6201.1095    2.1726544   0.41856928 
    3300   -944.58343    46.590727   -897.99271    1668.7109   -9274.4029    2.1496836   0.48655826 
    3400    -939.7777    50.316517   -889.46119    1802.1552     15127.15    2.1996079   0.36792306 
    3500   -935.69767      46.6178   -889.07987    1669.6805    -11239.11    2.1234552   0.10527495 
    3600   -941.46756    50.907695   -890.55987     1823.329    10233.266    2.1911796   0.25061335 
    3700    -944.7691    47.952187   -896.81691    1717.4734   -6511.9681    2.1576461   0.87245887 
    3800     -939.295    49.235932   -890.05907    1763.4525   -1499.2371    2.1563262  0.026636346 
    3900   -939.96657    54.770289   -885.19628    1961.6731    6107.7259    2.1715523    0.3294526 
    4000   -943.57485     50.02058   -893.55427    1791.5558   -14420.157    2.1334323   0.19910269 
    4100   -945.44149    53.320325   -892.12117    1909.7407    12245.074    2.2013275   0.43324282 
    4200     -937.538    49.226172   -888.31182    1763.1029   -10817.481    2.1265701   0.32012557 
    4300   -935.59764    51.172444   -884.42519    1832.8114    7981.4945    2.1692616   0.10202293 
    4400   -939.56301    47.945616   -891.61739    1717.2381    382.16105    2.1594775   0.20077976 
    4500   -942.77887    50.178091   -892.60078    1797.1973   -4537.0858    2.1554232    0.3373143 
    4600      -944.17     60.01565   -884.15435    2149.5429    6070.4043    2.1791658    0.1835032 
    4700   -938.52183    51.840416   -886.68141    1856.7357   -15384.575    2.1180348  0.091049475 
    4800   -941.98132    49.955242   -892.02608    1789.2156    14329.383    2.1977914   0.46652766 
    4900   -940.95674    46.274913   -894.68183    1657.3996   -6680.6163    2.1441297   0.43597645 
    5000   -938.44241    50.642272   -887.80014    1813.8225    2266.8956    2.1629674   0.29440449 
    5100   -940.79113    49.256792   -891.53434    1764.1997    1253.7513    2.1649111    0.3039089 
    5200   -945.61599    45.144447   -900.47154    1616.9104   -6302.0939    2.1589439   0.33568574 
    5300   -942.36947    50.419129   -891.95034    1805.8304    9881.1572     2.186923   0.35697207 
    5400   -941.57329     51.67068   -889.90261    1850.6564   -9111.9509    2.1369453   0.14074884 
    5500   -939.72655    50.706236   -889.02032    1816.1135    5619.4724    2.1785556   0.59004934 
    5600   -944.38322    46.747564   -897.63566    1674.3282   -1482.8629    2.1674812   0.18016606 
    5700   -940.97325    50.487541   -890.48571    1808.2806    -3818.469    2.1543821   0.51968777 
    5800   -941.08804    56.373103   -884.71494    2019.0801    5243.1301    2.1691491   0.23043311 
    5900   -942.47264    47.786046   -894.68659    1711.5229   -9709.7487     2.146438   0.35252287 
    6000   -940.49165    49.233706   -891.25795    1763.3728     10996.63    2.1919805   0.29007423 
    6100   -937.38376    50.410316   -886.97344    1805.5147   -7356.7181     2.138368  0.082017949 
    6200   -934.05811      51.5775   -882.48061     1847.319    3752.9819    2.1645642   0.15178713 
    6208   -938.70046    55.026587   -883.67388    1970.8528   -2358.9539    2.1585222   0.47320967 
Loop time of 4.35585 on 1 procs for 6208 steps with 217 atoms

Performance: 297.559 ns/day, 0.081 hours/ns, 1425.210 timesteps/s
100.0% CPU use with 1 MPI tasks x no OpenMP threads

MPI task timing breakdown:
Section |  min time  |  avg time  |  max time  |%varavg| %total
---------------------------------------------------------------
Pair    | 4.1684     | 4.1684     | 4.1684     |   0.0 | 95.70
Neigh   | 0.091819   | 0.091819   | 0.091819   |   0.0 |  2.11
Comm    | 0.028601   | 0.028601   | 0.028601   |   0.0 |  0.66
Output  | 0.0018992  | 0.0018992  | 0.0018992  |   0.0 |  0.04
Modify  | 0.055623   | 0.055623   | 0.055623   |   0.0 |  1.28
Other   |            | 0.009519   |            |       |  0.22

Nlocal:    217 ave 217 max 217 min
Histogram: 1 0 0 0 0 0 0 0 0 0
Nghost:    953 ave 953 max 953 min
Histogram: 1 0 0 0 0 0 0 0 0 0
Neighs:    4169 ave 4169 max 4169 min
Histogram: 1 0 0 0 0 0 0 0 0 0
FullNghs:  8338 ave 8338 max 8338 min
Histogram: 1 0 0 0 0 0 0 0 0 0

Total # of neighbors = 8338
Ave neighs/atom = 38.424
Neighbor list builds = 156
Dangerous builds = 0
Total wall time: 0:00:04
