LAMMPS (3 Mar 2020)

# ---------- 1. Initialize simulation ----------
units metal
atom_style atomic
dimension 3
boundary p p p
read_data /home/modeler/RemLabs/Project/arrhenius_4/T1600.0/n3_T1600.0_timestep3.000000e-03_eqsteps3200_time600_rseed3322/20201205-124252/lammps.data
  orthogonal box = (0 0 0) to (17.469 17.469 17.469)
  1 by 1 by 1 MPI processor grid
  reading atoms ...
  217 atoms
  read_data CPU = 0.00100564 secs

pair_style meam/c
pair_coeff * * library.meam Li Si LiSi.meam Li Si
Reading potential file library.meam with DATE: 2012-06-29
Reading potential file LiSi.meam with DATE: 2020-11-07

group Li type 1
1 atoms in group Li
group Si type 2
216 atoms in group Si

velocity all create 1600.0 3322 dist gaussian

# ---------- 2. Specify equilibration ensemble  ----------
fix 1 all npt temp 1600.0 1600.0 0.15 tchain 2 iso 1.0 1.0 1.0 pchain 2
# fix 1 all nvt temp 1600.0 1600.0 0.15

# ---------- 3. Run equilibration -------------
timestep 0.003
run 3200
Neighbor list info ...
  update every 1 steps, delay 10 steps, check yes
  max neighbors/atom: 2000, page size: 100000
  master list distance cutoff = 6
  ghost atom cutoff = 6
  binsize = 3, bins = 6 6 6
  2 neighbor lists, perpetual/occasional/extra = 2 0 0
  (1) pair meam/c, perpetual
      attributes: full, newton on
      pair build: full/bin/atomonly
      stencil: full/bin/3d
      bin: standard
  (2) pair meam/c, perpetual, half/full from (1)
      attributes: half, newton on
      pair build: halffull/newton
      stencil: none
      bin: none
Per MPI rank memory allocation (min/avg/max) = 8.895 | 8.895 | 8.895 Mbytes
Step Temp E_pair E_mol TotEng Press Volume 
       0         1600   -951.04357            0   -906.37126   -115280.58    5330.9442 
    3200    1620.6506   -948.03158            0    -902.7827     -3870.08     4645.296 
Loop time of 2.28335 on 1 procs for 3200 steps with 217 atoms

Performance: 363.255 ns/day, 0.066 hours/ns, 1401.449 timesteps/s
100.0% CPU use with 1 MPI tasks x no OpenMP threads

MPI task timing breakdown:
Section |  min time  |  avg time  |  max time  |%varavg| %total
---------------------------------------------------------------
Pair    | 2.2158     | 2.2158     | 2.2158     |   0.0 | 97.04
Neigh   | 0.019071   | 0.019071   | 0.019071   |   0.0 |  0.84
Comm    | 0.014126   | 0.014126   | 0.014126   |   0.0 |  0.62
Output  | 2.4732e-05 | 2.4732e-05 | 2.4732e-05 |   0.0 |  0.00
Modify  | 0.029513   | 0.029513   | 0.029513   |   0.0 |  1.29
Other   |            | 0.004856   |            |       |  0.21

Nlocal:    217 ave 217 max 217 min
Histogram: 1 0 0 0 0 0 0 0 0 0
Nghost:    957 ave 957 max 957 min
Histogram: 1 0 0 0 0 0 0 0 0 0
Neighs:    4268 ave 4268 max 4268 min
Histogram: 1 0 0 0 0 0 0 0 0 0
FullNghs:  8536 ave 8536 max 8536 min
Histogram: 1 0 0 0 0 0 0 0 0 0

Total # of neighbors = 8536
Ave neighs/atom = 39.3364
Neighbor list builds = 32
Dangerous builds = 1

# ---------- 4. Describe computed properties----------
compute msdli Li msd
compute msdsi Si msd
thermo_style custom step pe ke etotal temp press density c_msdli[4] c_msdsi[4]
thermo 100

# ---------- 3. Run production -------------
timestep 0.003
run 200000
Per MPI rank memory allocation (min/avg/max) = 9.658 | 9.658 | 9.658 Mbytes
Step PotEng KinEng TotEng Temp Press Density c_msdli[4] c_msdsi[4] 
    3200   -948.03158    45.248876    -902.7827    1620.6506     -3870.08    2.1710797            0 6.4329627e-32 
    3300   -951.45245    50.667255   -900.78519    1814.7173    4269.1565    2.1971469   0.22044756   0.10419372 
    3400   -951.76783    42.404527    -909.3633    1518.7764    1060.9344    2.1929322  0.021537085   0.11092639 
    3500   -948.13202    43.375568   -904.75645    1553.5556   -8081.4293    2.1581891   0.11886669  0.099035383 
    3600   -945.21162    43.687898   -901.52372    1564.7421    553.47799    2.1761349  0.031469806      0.13144 
    3700   -947.04641    43.045334   -904.00108    1541.7278    8945.2525    2.2026785   0.14847945   0.10546401 
    3800   -953.98284    42.857425   -911.12542    1534.9975    -579.6611    2.1903239  0.080711037   0.11404314 
    3900   -945.16241    43.463476   -901.69893    1556.7041   -9873.1206    2.1507167   0.13462296   0.14151456 
    4000   -948.56573    46.448013   -902.11771    1663.5994    3658.3654    2.1875145  0.052105072   0.10751383 
    4100   -950.01557    46.426639   -903.58893    1662.8338    9646.2918    2.2044976   0.13800384  0.093504909 
    4200   -947.77544    47.680272   -900.09516    1707.7344   -4680.7017    2.1660183   0.37581582   0.10269524 
    4300   -946.64298    49.931513   -896.71146    1788.3657     -13736.6    2.1396707   0.27435551  0.096428446 
    4400   -947.13153    44.224613   -902.90691    1583.9652    2583.7089    2.1837075   0.15938948   0.12506988 
    4500   -947.41513    44.022037   -903.39309    1576.7097    10353.778    2.2037236    0.1214552   0.11201917 
    4600    -943.4773    47.356587   -896.12071    1696.1412   -3969.6199    2.1590008   0.48632198   0.10571538 
    4700   -943.09279    43.858512   -899.23428    1570.8528   -8010.1693    2.1493156    0.2227271   0.12707984 
    4800   -949.30331    45.290247   -904.01306    1622.1324    1233.3298    2.1833274  0.098715978   0.11895368 
    4900   -947.82017    45.769616   -902.05055    1639.3017    9747.4722    2.2014129  0.048060087    0.1245013 
    5000   -943.05816    48.735992   -894.32216    1745.5465   -4751.3819    2.1547886  0.045135665   0.14375044 
    5100   -946.62025     43.92094   -902.69931    1573.0888   -5833.9193     2.161584  0.014595466   0.10281193 
    5200   -945.19725    41.660435   -903.53682    1492.1257    2234.9783    2.1792807   0.21842343  0.090432735 
    5300   -946.87678    45.574603   -901.30217     1632.317    6472.3479    2.1920552   0.30877361    0.1168971 
    5400   -946.65014    50.807764   -895.84238    1819.7498   -3351.8897    2.1655085   0.11991549   0.11585838 
    5500   -943.48584    47.915148   -895.57069    1716.1468   -9504.2389    2.1440251   0.48619358    0.1337001 
    5600   -946.20276    43.691202   -902.51156    1564.8604    1585.2887    2.1843393   0.19489677   0.13133073 
    5700   -946.32891    44.065753   -902.26316    1578.2755    11199.737     2.205211   0.43961857   0.12413477 
    5800   -950.88836    46.411897   -904.47646    1662.3058    -4487.231    2.1750278  0.095684039   0.13257024 
    5900   -951.80066    38.309036   -913.49163    1372.0907   -7954.8326    2.1708724    0.1105471   0.12154649 
    6000   -952.51543    45.799063   -906.71636    1640.3563   -1631.6681     2.185434    0.1801822    0.1081861 
    6100   -950.26524    48.109257   -902.15598    1723.0991    7081.6501    2.2008103   0.13371788   0.12479593 
    6200   -948.64912    45.933994   -902.71512    1645.1891   -3842.6514    2.1701025    0.2057592   0.11125549 
    6300   -950.93501     41.55442   -909.38059    1488.3286   -10051.157     2.161065   0.45689736   0.11236787 
    6400    -951.8985    43.972737   -907.92577     1574.944    3330.0445    2.1924936   0.13894772   0.12042184 
    6500   -947.49217    45.876327   -901.61585    1643.1237    8849.3712    2.2021656   0.40265007   0.11608069 
    6600   -950.36195    46.851412   -903.51054    1678.0477   -7330.3292    2.1652557  0.085147464   0.11895762 
    6700   -951.01548    42.621168   -908.39431    1526.5357   -9467.7922    2.1596975    0.2272886   0.11531845 
    6800   -947.68611    38.896285   -908.78982    1393.1239    9873.6313    2.2044722  0.052843411   0.12263378 
    6900   -949.34625       47.435   -901.91125    1698.9497    4309.4659    2.1909312   0.21978297    0.1150289 
    7000   -947.76147    44.536443   -903.22503    1595.1339   -6184.2055     2.160338   0.30948113   0.10881411 
    7100   -952.07833    46.376734    -905.7016    1661.0464   -5670.8902    2.1699526   0.15449978   0.10403322 
    7200   -951.79695    39.558321   -912.23862    1416.8356    8702.1303    2.2097366   0.21983589   0.11017388 
    7300   -949.09651    45.410593   -903.68591    1626.4428    43.864745    2.1820268   0.11586326   0.11973849 
    7400    -946.3779    43.611975   -902.76592    1562.0228   -4333.2726    2.1660668   0.26539815   0.11300832 
    7500     -945.404    43.056491   -902.34751    1542.1273    81.255325    2.1736698  0.032081514   0.11873726 
    7600   -952.96621    41.085671   -911.88053    1471.5397     4378.953    2.2015539  0.057675625  0.099874978 
    7700   -952.15369    46.197972   -905.95572    1654.6438   -3155.4129    2.1758739  0.025778944   0.10817118 
    7800   -947.64619    45.097288    -902.5489    1615.2213   -3387.1303    2.1677564   0.14876414    0.1170492 
    7900   -949.10535    47.247916   -901.85744     1692.249    2198.8946    2.1824446   0.28310083   0.11218934 
    8000   -953.65396    42.571666   -911.08229    1524.7627    3801.2283    2.2010528  0.085524878   0.10146491 
    8100   -947.81014    43.659189   -904.15095    1563.7138   -5601.1213    2.1640798  0.051109077   0.10764771 
    8200   -944.99574    43.002752   -901.99299    1540.2026    175.34525    2.1698289   0.14725381   0.12534474 
    8300   -950.47146    47.037478   -903.43399    1684.7119    5872.3986    2.1980599   0.10270958   0.11130473 
    8400   -952.51286    41.539505   -910.97336    1487.7944    4970.9054    2.2020202  0.054644545    0.1166169 
    8500   -944.37911     42.98967   -901.38944    1539.7341   -17553.519    2.1266117   0.12354159   0.11160935 
    8600   -950.86959    48.352986   -902.51661    1731.8286   -6005.4095    2.1675437   0.13922795   0.10951192 
    8700   -950.10992    47.429137   -902.68078    1698.7397    18884.628    2.2240638   0.12969824   0.11094639 
    8800   -945.89363    45.027427    -900.8662    1612.7191    1173.7339      2.17671   0.47356723    0.1125724 
    8900   -943.35777     47.63613   -895.72164    1706.1534    -15360.08    2.1250889   0.53959566   0.11947707 
    9000   -950.33085    46.948721   -903.38213    1681.5329   -1331.5165    2.1771479   0.13595284    0.1053446 
    9100   -951.68889    48.264107   -903.42478    1728.6453    7507.7295    2.2016254   0.20734103   0.10432792 
    9200   -944.71999    47.661002   -897.05899    1707.0443   -640.86737    2.1699895   0.10412863   0.12268394 
    9300   -946.92206    48.041446   -898.88062    1720.6704   -10262.907    2.1480673   0.24850232   0.11798621 
    9400   -950.71798    46.167362   -904.55062    1653.5475   -1336.2236    2.1785426   0.07621419   0.10684255 
    9500   -948.20791    46.808183   -901.39973    1676.4994    8155.8713    2.1971476  0.026104726   0.10956759 
    9600   -941.28384    45.928652   -895.35519    1644.9978    2943.8962    2.1678295   0.16775215   0.12074661 
    9700   -946.16178    41.556843   -904.60494    1488.4154   -5908.0844    2.1646632  0.052357138   0.12339557 
    9800   -949.77903    45.491997   -904.28704    1629.3584   -5442.7904    2.1686796  0.039841682   0.12323149 
    9900   -950.14696    49.490442   -900.65652    1772.5682    5540.7042    2.1926155   0.20475805   0.12544033 
   10000   -948.94649    44.433638   -904.51286    1591.4518    2939.6125    2.1885212   0.23307735   0.12456182 
   10100   -948.06894    39.095671   -908.97327    1400.2652   -4944.4885    2.1694038   0.61391674   0.12244518 
   10200   -950.77857    47.519977   -903.25859    1701.9932   -4180.4008    2.1744343   0.24971464   0.11022032 
   10300   -946.29897    45.529411   -900.76956    1630.6984    7587.6975    2.1907758   0.21385127   0.10953114 
   10400   -949.69769     40.61022   -909.08748    1454.5108     1355.617    2.1893412   0.17463611   0.11817935 
   10500   -947.68798    42.737699   -904.95028    1530.7094   -12215.737    2.1466637  0.079909422   0.11063719 
   10600   -946.61209    44.974117   -901.63798    1610.8098    3009.2228     2.184522  0.069659872   0.13558817 
   10700   -946.99485    44.963119   -902.03173    1610.4159    18161.275    2.2241926   0.13317382   0.13842084 
   10800   -948.55539    38.841473   -909.71392    1391.1607   -3890.1074    2.1739795   0.28657766   0.12387502 
   10900   -942.78307    41.009457   -901.77361      1468.81   -12440.855    2.1377773    0.6590962   0.14072493 
   11000   -944.67119    44.041684    -900.6295    1577.4134    6487.0456    2.1912315   0.12532806   0.12473759 
   11100   -949.64562    45.594624     -904.051    1633.0341    6536.6377    2.1989711    0.1436053   0.10896797 
   11200   -947.60397    43.192677   -904.41129     1547.005   -5649.8113    2.1683637   0.40997725   0.11942144 
   11300   -943.23035      47.2263   -896.00405    1691.4748   -9999.9774    2.1426463  0.065259081    0.1259157 
   11400   -947.20625    44.076932   -903.12932    1578.6758    7835.3518    2.1918773   0.13525586   0.11261201 
   11500    -949.0204    45.148119   -903.87228    1617.0419    6803.7885      2.19779   0.30118935    0.1125554 
   11600   -947.80438    50.883152   -896.92123      1822.45   -7719.5094    2.1546381   0.24547163   0.12457513 
   11700   -945.29365    44.297105   -900.99654    1586.5616   -6118.9541    2.1584176   0.14785578   0.13441896 
   11800   -947.22488     42.81615   -904.40873    1533.5192    3113.9144    2.1897136    0.3745138   0.14558046 
   11900   -946.36286     45.60758   -900.75528    1633.4981    7924.7041     2.192988  0.048015857   0.13362494 
   12000   -943.76761    45.321047   -898.44656    1623.2355   -3534.8848    2.1593507   0.43326359   0.12677817 
   12100   -952.43913    44.251312   -908.18782    1584.9215   -3535.7094    2.1789931  0.032151681   0.10168179 
   12200   -948.44525    44.865182   -903.58006    1606.9081    3501.3055    2.1931934  0.076621584   0.11468849 
   12300   -944.47159    44.289812   -900.18177    1586.3005    3949.5332    2.1815119   0.06913442   0.12052299 
   12400   -951.25438    44.700034   -906.55435    1600.9931    -9282.637     2.165225     0.283945   0.10127249 
   12500   -948.04357     40.87077    -907.1728    1463.8428     -5408.87    2.1735511   0.35286631    0.1139349 
   12600   -948.66751    48.324551   -900.34296    1730.8102    11730.383    2.2084393   0.16898379   0.13839631 
   12700   -948.23819    44.874251   -903.36394    1607.2329    4514.0165    2.1913304   0.20758161   0.14896528 
   12800   -950.70791    40.362827   -910.34508    1445.6501   -16828.246    2.1449224   0.21592423    0.1378158 
   12900   -947.59918    44.202375   -903.39681    1583.1688   -2419.4934    2.1701117    0.1191596   0.12751357 
   13000   -947.00551    47.648171   -899.35734    1706.5847    16190.343     2.216978  0.075677973   0.11783262 
   13100   -948.74674    42.651191   -906.09555     1527.611    1757.8568    2.1871818  0.098536867   0.12116457 
   13200   -942.35265    40.058153    -902.2945    1434.7378   -5243.3599    2.1582361   0.13046438   0.12574019 
   13300   -942.31959    43.905632   -898.41395    1572.5405    568.07672    2.1684816   0.30372341   0.11281317 
   13400   -950.28926    46.271483   -904.01778    1657.2767    4005.1744    2.1966598   0.09574216   0.11275981 
   13500   -951.13734    45.785337   -905.35201    1639.8647    287.92108    2.1859529   0.32346983    0.1136395 
   13600   -944.26243    47.728244   -896.53419    1709.4526   -8070.5084    2.1514247   0.11429005   0.15060838 
   13700   -948.25828      43.9106   -904.34768    1572.7184    2512.8306    2.1877614  0.098019811   0.14685101 
   13800   -947.42821    43.436541   -903.99167    1555.7394    7281.9346     2.196419   0.19509067   0.12934716 
   13900   -945.01967     47.80728   -897.21239    1712.2834   -2297.2344    2.1620504   0.19336204   0.12423558 
   14000   -946.17878    42.634711   -903.54406    1527.0207   -4751.0283    2.1631803   0.12559046   0.11549307 
   14100    -944.0645    38.875659   -905.18884    1392.3851    5203.0492    2.1897836   0.34122145   0.13142347 
   14200    -947.1572    48.480224   -898.67698    1736.3858    6423.7993    2.1909998  0.058912207   0.11738486 
   14300   -946.60535    43.402994   -903.20236    1554.5378   -5033.2745    2.1646357   0.19911195   0.11620525 
   14400   -949.11461    41.341133   -907.77347    1480.6895   -9293.9227    2.1602489    0.1693223   0.11979997 
   14500   -950.46382    50.211814   -900.25201    1798.4051    7374.0717    2.1978371   0.30705141   0.12669435 
   14600    -945.1806    43.067018   -902.11358    1542.5044    12950.735    2.2089228  0.036820965   0.13546213 
   14700   -952.44366    43.061552   -909.38211    1542.3086   -10923.029    2.1643495   0.04624339   0.12185757 
   14800    -943.5476     41.83203   -901.71557    1498.2716   -9328.4157    2.1459484   0.23326525   0.13839186 
   14900   -948.87336    48.668561    -900.2048    1743.1314    5405.8372    2.1919636    0.1224773   0.10282626 
   15000   -950.93844    43.964573   -906.97386    1574.6516     8396.374    2.2033103    0.1885696   0.11142754 
   15100   -942.82299    43.102154   -899.72083    1543.7628   -3429.3266    2.1583767   0.17664055   0.11892627 
   15200   -945.16189    44.558175   -900.60371    1595.9122   -2438.3809    2.1648586   0.14950515   0.11374708 
   15300   -950.08916      44.1366   -905.95256    1580.8129    1989.8075    2.1882169    0.1453061   0.11205725 
   15400   -947.10537    47.264051   -899.84132    1692.8269    3762.2496    2.1820291   0.19784273   0.11131683 
   15500   -942.12162    42.396138   -899.72548    1518.4759   -951.98114    2.1608144   0.16018242   0.12726633 
   15600   -948.93192    42.386514   -906.54541    1518.1312   -3309.8819    2.1724668   0.10333752   0.11453038 
   15700   -946.23999    45.744106   -900.49588     1638.388    3516.9495    2.1830284   0.12366451   0.12958748 
   15800   -944.07974    44.949825   -899.12991    1609.9397    4448.6963    2.1799989    0.1529059   0.12972712 
   15900   -954.48947    47.275018   -907.21445    1693.2197   -5590.0394    2.1738314   0.27037658   0.10832444 
   16000   -947.27272    45.242414   -902.03031    1620.4192   -3124.9329    2.1668928   0.20512276   0.11511813 
   16100   -948.57057    49.959847   -898.61072    1789.3805     3830.752    2.1836698   0.23910614   0.11947249 
   16200   -953.55121    46.127572   -907.42364    1652.1224    4735.2691    2.2001565   0.20456564   0.11515079 
   16300   -947.30649    45.163141   -902.14335    1617.5799   -10513.136    2.1508143  0.094278857   0.10794999 
   16400   -946.12094    45.566121   -900.55482    1632.0132   -7550.7021    2.1564537   0.34690172   0.11944563 
   16500   -951.37517    44.962048   -906.41312    1610.3775    12507.679    2.2164872  0.058489029   0.10745386 
   16600   -951.08005    47.055355    -904.0247    1685.3522     7255.942    2.2005228   0.09785631   0.12483214 
   16700   -943.27059    43.181505   -900.08909    1546.6049   -12019.193    2.1403345   0.15063907   0.14208776 
   16800   -948.40604    42.609451   -905.79659     1526.116   -5922.1824    2.1671876   0.18504226   0.12344164 
   16900   -951.19051    46.827491   -904.36302    1677.1909    10504.068    2.2111487   0.25987692   0.11477167 
   17000   -944.08847    46.608518   -897.47995    1669.3481    3891.7025    2.1792671   0.17675806   0.11742136 
   17100   -948.33636    43.021907   -905.31445    1540.8887   -7002.4476    2.1642055  0.073365154   0.12562576 
   17200    -949.5261     45.39339   -904.13271    1625.8266   -3735.6781    2.1754283   0.14149572     0.111364 
   17300   -944.54587    47.911451   -896.63441    1716.0144    4951.0402    2.1803194   0.50784139   0.12499523 
   17400   -952.26635    47.343328   -904.92302    1695.6663    1564.0966    2.1894188  0.056673204   0.11190224 
   17500   -949.81774    45.136702   -904.68104     1616.633    -6663.482    2.1662647   0.12885485   0.12598455 
   17600   -945.43072    46.994978   -898.43574    1683.1897   -5693.7092    2.1588481   0.14729606   0.13476371 
   17700   -949.21251     42.73437   -906.47814    1530.5902    5829.3508    2.1974666   0.13377079   0.11429317 
   17800    -949.7911    45.187362   -904.60373    1618.4474    1396.5396    2.1840416   0.11776905   0.11458486 
   17900   -945.69956    45.832612   -899.86695     1641.558   -5521.8915    2.1581159   0.13174224   0.11214977 
   18000   -948.59108    41.131915   -907.45917     1473.196   -731.82032    2.1803477   0.11539879   0.10972197 
   18100   -947.13396    42.169426   -904.96453    1510.3559    9256.3652    2.2009577   0.09763924   0.12841344 
   18200   -946.17492    47.257834   -898.91709    1692.6042    3385.4647    2.1775919   0.21989691   0.11705371 
   18300    -947.4178    41.891922   -905.52587    1500.4167   -11825.042    2.1467655    0.3837944   0.12586264 
   18400   -948.68243    43.275566   -905.40686    1549.9738   -6588.7276    2.1680287   0.22085033   0.12044403 
   18500   -947.82688    50.971711   -896.85517    1825.6218    14670.796    2.2108547    0.3554351   0.11700613 
   18600   -947.18554    44.816563   -902.36898    1605.1668    3817.8449     2.184535   0.14870724   0.11863875 
   18700   -949.12307    42.527353   -906.59572    1523.1756   -13164.131    2.1462085   0.35587922    0.1091559 
   18800   -947.34389    48.426937   -898.91695    1734.4773    -3869.165    2.1669614   0.12890545   0.11060094 
   18900   -946.55376    46.856893   -899.69686     1678.244    9442.4692    2.1971298  0.011764257   0.12426502 
   19000   -948.18643    42.525347   -905.66109    1523.1037    870.70941    2.1800012   0.06154191   0.11130752 
   19100   -944.87645    44.141744    -900.7347    1580.9972   -5453.5095    2.1589574   0.09490005   0.11852901 
   19200   -943.23427    45.742116   -897.49216    1638.3167   -597.33327    2.1697504   0.17005103   0.13900778 
   19300   -949.12362    43.108938   -906.01469    1544.0058      8473.18    2.2048639   0.36342349   0.12399805 
   19400   -948.64574    46.835661   -901.81007    1677.4835   -1676.8809       2.1767  0.051846908   0.12564924 
   19500   -946.33622    46.816194   -899.52002    1676.7863   -8477.2069    2.1530218   0.05623668   0.13008645 
   19600   -949.88269     41.05699    -908.8257    1470.5125    3159.2438     2.193717    0.0546928   0.11495129 
   19700   -945.21338    42.785561   -902.42782    1532.4236    8352.9747    2.1937435   0.16874414   0.11826149 
   19800   -948.26174    47.236069   -901.02567    1691.8247    -3834.547      2.16931   0.13113618   0.10713121 
   19900   -950.16601     41.17733   -908.98868    1474.8226   -6406.1544    2.1703178 0.0048210651   0.12250751 
   20000   -945.18042    41.077413   -904.10301     1471.244    5402.7133    2.1877801    0.1051449    0.1270758 
   20100   -945.70919    46.456148   -899.25304    1663.8907    12219.654    2.2029665   0.25045211    0.1143492 
   20200   -948.70731    42.605387   -906.10192    1525.9705   -5807.8264     2.168114   0.20324923   0.11991944 
   20300   -948.40734    45.415549   -902.99179    1626.6203   -15102.789    2.1448493   0.30606803   0.12007189 
   20400   -945.14246    47.262596   -897.87987    1692.7748    6546.5333    2.1917914   0.25704046   0.13115816 
   20500   -947.51169    44.965916   -902.54578     1610.516     12462.01    2.2131561  0.024331203   0.13514258 
   20600   -949.10641    42.678585   -906.42782    1528.5921    -9850.935    2.1611052  0.015494887   0.13091382 
   20700   -943.62749    45.922094    -897.7054    1644.7629   -10574.257    2.1459726   0.12662352    0.1323426 
   20800   -945.19346     43.19315   -902.00031     1547.022    9858.0931    2.1992113  0.081157118    0.1222352 
   20900   -948.29312    43.167661   -905.12546    1546.1091    4232.6394    2.1940372   0.24899777   0.13030744 
   21000   -944.29791    43.968733   -900.32917    1574.8006    -2082.707    2.1652919   0.26168446   0.12408543 
   21100   -944.26928    45.550661   -898.71862    1631.4595   -1079.0698    2.1658734   0.11318233   0.12537947 
   21200   -951.22807    44.360881   -906.86719    1588.8459    5287.9282    2.2016866   0.18739524   0.11667272 
   21300   -946.03509     44.44968   -901.58541    1592.0263    3604.9046    2.1849645   0.12086863    0.1366417 
   21400   -946.47171    45.469209    -901.0025    1628.5422   -6029.5763    2.1619185    0.2026353   0.14629469 
   21500   -951.94684    42.342492   -909.60435    1516.5545   -804.35439     2.189372  0.060863555   0.13247233 
   21600   -946.39484    44.156474   -902.23836    1581.5248    4173.0728     2.187616   0.10012731   0.13313755 
   21700   -945.26702    44.316329   -900.95069    1587.2502    1808.6447    2.1799919    0.2438289   0.13300593 
   21800    -951.8554    43.239786   -908.61561    1548.6923   -5119.4862    2.1763219   0.29495721    0.1114732 
   21900   -948.26096    45.264202   -902.99676    1621.1996   -2475.6692    2.1754608   0.24440598   0.12700407 
   22000   -948.04005    48.277611   -899.76243     1729.129     6203.084    2.1938523   0.23895263   0.12919121 
   22100   -947.71079    41.516813   -906.19398    1486.9817    1253.7277    2.1856875   0.31319667   0.12451576 
   22200   -949.46511    47.535412   -901.92969    1702.5461   -11223.621    2.1519554  0.077229833   0.12675749 
   22300   -946.79736    48.128158    -898.6692    1723.7761   -79.631117    2.1780721   0.11565824   0.13590401 
   22400   -947.60379    43.854165   -903.74962    1570.6972    9761.7246    2.2078923   0.32184963   0.14519747 
   22500   -948.34698    42.696338   -905.65064     1529.228   -1833.1408    2.1786703   0.34632975   0.12160356 
   22600   -943.18473    46.409121   -896.77561    1662.2064   -14330.925    2.1349519  0.045035485   0.14929364 
   22700    -948.0026    43.556817   -904.44578    1560.0472    4830.1156    2.1983079   0.17947029   0.13523608 
   22800    -950.1013    46.010638   -904.09067    1647.9342    9364.7383    2.2091414  0.098970457   0.12770944 
   22900   -942.85853    43.687882   -899.17065    1564.7415   -5738.8254     2.157716   0.23752613   0.14304841 
   23000   -947.16379     47.27247   -899.89132    1693.1284   -10368.755    2.1531634   0.23369041   0.10932227 
   23100   -947.17369    41.596063   -905.57762    1489.8201    7791.2587    2.2017362  0.052296009   0.11633873 
   23200     -944.125    44.120813   -900.00419    1580.2475    5269.2726    2.1894694  0.025609745     0.128299 
   23300   -945.90023    45.070725    -900.8295    1614.2699   -3898.0079    2.1634116  0.047172246   0.13840861 
   23400   -947.99145    40.430452     -907.561    1448.0722    669.00155    2.1828859  0.083771738   0.13221374 
   23500   -945.81322    45.583025    -900.2302    1632.6187    2396.0831    2.1841153   0.09054195   0.14632391 
   23600   -946.19854    44.188617   -902.00993     1582.676    1105.5942    2.1793872   0.17054291   0.12916812 
   23700   -949.78255    41.311203   -908.47135    1479.6175   -1502.7169    2.1807395  0.022912396   0.12257812 
   23800    -943.6941    43.512809    -900.1813     1558.471    220.05422    2.1708178    0.2042766   0.12379543 
   23900   -946.24327    44.567343   -901.67593    1596.2406    4560.8792    2.1858533   0.12523538   0.11743053 
   24000   -951.10967    42.993037   -908.11663    1539.8547    1110.1642    2.1941236   0.19269726   0.11681545 
   24100   -945.83721    46.271428   -899.56579    1657.2748   -5489.7162    2.1638284  0.045695555   0.11388014 
   24200   -946.39441    44.281837   -902.11257    1586.0148   -1203.2623    2.1760748  0.097258063     0.126634 
   24300   -946.78154    40.449068   -906.33247    1448.7389     9616.746    2.2030021   0.12461639   0.13461668 
   24400   -945.49471    47.821401   -897.67331    1712.7891     18.84202    2.1749615   0.31918663   0.12154481 
   24500   -946.96902    45.255134   -901.71388    1620.8748   -8436.3054    2.1577927   0.26199579   0.13340348 
   24600   -951.29365    45.004845   -906.28881    1611.9103    -2896.537    2.1797052   0.13317673    0.1239669 
   24700   -948.12331    49.062344   -899.06096    1757.2352    10761.622    2.2057221   0.11996639   0.12291583 
   24800    -945.8691    45.894798    -899.9743    1643.7852    1193.1837    2.1807031   0.29986907   0.14768143 
   24900   -948.52639    41.488717   -907.03767    1485.9754   -10116.316    2.1583091  0.081346011   0.11199686 
   25000   -945.68758    44.177425   -901.51015    1582.2752   -275.02471    2.1759704    0.0867129   0.10305785 
   25100    -944.3083    46.623443   -897.68485    1669.8827    11028.237    2.2015622   0.15085595   0.13753104 
   25200   -949.38662     42.54964   -906.83698    1523.9738     1292.828    2.1892096   0.20599156   0.12569928 
   25300   -947.50004    44.796433    -902.7036    1604.4458   -9065.7206    2.1550853  0.038013901   0.12048306 
   25400   -944.44397    45.433412   -899.01056    1627.2601    95.606882    2.1728609  0.045046208   0.13165584 
   25500   -950.27508    43.076644   -907.19843    1542.8492    8510.4746    2.2104627   0.11206952    0.1161735 
   25600   -949.38244    46.890439     -902.492    1679.4455   -454.30186     2.178768   0.17220124   0.12275444 
   25700   -945.63134    45.181702   -900.44964    1618.2447   -5789.1307    2.1593596  0.032103224    0.1397201 
   25800   -949.86505    42.763022   -907.10203    1531.6164    1884.4939     2.188448  0.075750419   0.11196595 
   25900   -948.07011    44.757271   -903.31283    1603.0431    6214.0595     2.194518  0.054350282   0.11120896 
   26000   -945.88554    46.212708   -899.67284    1655.1716   -1562.9005    2.1713581   0.01004382   0.11534323 
   26100   -949.52561    42.969721   -906.55589    1539.0196   -4654.1071    2.1754467   0.14418995   0.12332805 
   26200   -948.24071    45.486143   -902.75457    1629.1487    1330.6735    2.1835733   0.10715566    0.1350427 
   26300     -945.011    46.418083   -898.59292    1662.5274    1883.4407    2.1775727  0.061014368    0.1373339 
   26400   -949.43524    43.269497   -906.16575    1549.7565    57.056659    2.1859157   0.21538958   0.12671332 
   26500    -945.6344    43.582878   -902.05152    1560.9806   -202.87108    2.1732855   0.23657515   0.13089059 
   26600   -942.78756    44.298974   -898.48859    1586.6286    1261.6041    2.1703743   0.23536159   0.13680425 
   26700   -950.97949    44.514402   -906.46509    1594.3444    135.37583    2.1895513   0.11461316   0.12714756 
   26800   -945.66058    43.835737   -901.82484    1570.0371    112.28803    2.1779745   0.15989233    0.1375003 
   26900   -944.33424    45.411161   -898.92308    1626.4631   -868.47956     2.165944    0.2113557    0.1311634 
   27000   -945.82388    38.710194   -907.11369    1386.4588    3473.6152    2.1880664    0.4125499   0.14198528 
   27100   -945.24175    43.713839   -901.52792    1565.6712    4067.2333    2.1887396   0.21935047   0.13682427 
   27200     -946.769    47.105666   -899.66333    1687.1541   -4717.4252    2.1665881  0.099498556   0.12627652 
   27300   -949.50549    41.218635   -908.28686     1476.302   -2806.2161    2.1769395  0.026807827   0.13810338 
   27400   -948.03038    45.630483   -902.39989    1634.3184    3908.1899    2.1884079   0.13784669   0.12208175 
   27500   -946.66046     47.06838   -899.59208    1685.8187    5285.9643    2.1861096   0.20813179   0.14254639 
   27600   -950.80168    42.460774   -908.34091    1520.7909   -2225.6088    2.1760502   0.24710599   0.12667319 
   27700   -949.30312    45.883339   -903.41978    1643.3748   -7327.5796    2.1619762  0.042127602   0.12036278 
   27800   -946.54704    47.163825   -899.38322    1689.2372     4806.416    2.1866587   0.13824615   0.13806163 
   27900   -950.46614    44.047445   -906.41869    1577.6197    6514.7814     2.199453    0.1366077    0.1191136 
   28000     -947.721     44.71989   -903.00111    1601.7043   -6509.6962    2.1638061   0.25140085   0.11117959 
   28100   -946.78579    47.388205   -899.39759    1697.2736   -6286.1082    2.1580918   0.60348821   0.12301464 
   28200   -949.96713    44.848184   -905.11894    1606.2993    3547.7152    2.1938822   0.21871189   0.12271681 
   28300   -948.65394    43.408848   -905.24509    1554.7475    5924.3777    2.1995044  0.039766658   0.12751493 
   28400   -946.27681    48.458051   -897.81876    1735.5917   -7970.5234    2.1571354   0.18085798   0.14696555 
   28500   -948.55864    43.203466   -905.35518    1547.3915   -4073.6292    2.1720581  0.028720239   0.11906478 
   28600   -950.28931    46.756574   -903.53274    1674.6509    6145.6201    2.2021143  0.055209977   0.12824796 
   28700   -944.16278    48.007566   -896.15522    1719.4569    4655.0906    2.1819942  0.096651206   0.13725703 
   28800   -948.67499    44.464998   -904.20999     1592.575   -7043.8859    2.1639343  0.065979553   0.12137891 
   28900   -948.73075    44.014071   -904.71667    1576.4244    -7828.531    2.1656856   0.18120988   0.13247803 
   29000   -944.32274     47.16472   -897.15802    1689.2692    11328.854    2.2006902   0.27381653   0.12255212 
   29100   -950.24733    46.177535   -904.06979    1653.9118      8994.49    2.2066157    1.0954464   0.11166638 
   29200   -948.13291    41.512103   -906.62081     1486.813   -12792.645    2.1511834   0.10414899   0.12109953 
   29300   -941.68932    40.980858   -900.70846    1467.7857   -4215.7398    2.1561432   0.14935611   0.13210981 
   29400   -946.50946    43.809766   -902.69969    1569.1069    12273.004    2.2076016  0.058269637   0.13258826 
   29500   -951.01939    42.431266   -908.58812    1519.7341    5577.4556    2.2025542  0.042989782   0.12223949 
   29600   -949.84877    48.741225   -901.10754    1745.7339   -10337.567    2.1586855  0.070083752   0.11570345 
   29700   -949.00705    47.038673   -901.96838    1684.7547    -3401.303    2.1711641   0.20573335   0.11579535 
   29800   -948.19704    40.328077   -907.86896    1444.4055     6830.802    2.2024715   0.23447548   0.12149398 
   29900   -944.08084    45.011594   -899.06925    1612.1521    2313.9612     2.177236   0.31716827   0.11689041 
   30000   -948.88254    47.131934   -901.75061    1688.0949   -4345.1125    2.1724097   0.13523121   0.12519724 
   30100   -950.84191    43.761479   -907.08043    1567.3775    -1391.288    2.1842603  0.086266097   0.12037478 
   30200   -945.28024    45.750883   -899.52935    1638.6307    3766.2089      2.18416   0.14026032   0.12091092 
   30300   -944.12789    44.125222   -900.00267    1580.4054    4216.9095    2.1838214  0.059236058   0.13184846 
   30400   -950.74851    44.393893   -906.35462    1590.0283   -6304.6818    2.1729228  0.001889377   0.12989299 
   30500   -949.09034    49.080348   -900.00999    1757.8801   -4378.4087    2.1711887   0.19471527   0.12760217 
   30600    -944.6856    46.503527   -898.18208    1665.5877    8103.0019     2.192817  0.019684941   0.13215026 
   30700   -950.20859    44.958073   -905.25052    1610.2351    452.14673    2.1881755   0.27105207   0.11682736 
   30800   -942.95608    41.041968   -901.91411    1469.9745   -6388.9148    2.1570601   0.21927549    0.1330612 
   30900   -941.04211    43.992276   -897.04984    1575.6438   -1818.4962    2.1680537  0.014494859   0.13878855 
   31000   -948.38704     42.65487   -905.73217    1527.7427    14503.649    2.2217592   0.30884548   0.12154585 
   31100   -947.25056     44.57996    -902.6706    1596.6925   -602.49512    2.1798033    0.1555386   0.12777989 
   31200   -946.43254    46.086138    -900.3464    1650.6383   -14856.509    2.1378007  0.094977258   0.12682884 
   31300   -948.64045    39.846607   -908.79384     1427.161     2607.293    2.1899403  0.058567478   0.12036381 
   31400   -950.92031     47.17355   -903.74676    1689.5855     9212.264    2.2079035   0.03238087   0.12807869 
   31500    -948.0627    47.511256   -900.55144    1701.6809   -1567.1189    2.1741254   0.34854595   0.12547015 
   31600    -945.7793    39.021267   -906.75803    1397.6003   -6330.0524    2.1610869   0.22474278   0.11677542 
   31700   -947.39535    41.563203   -905.83215    1488.6432    1793.9018    2.1860143   0.14946246   0.12053553 
   31800   -947.64505    48.504519   -899.14053     1737.256    3184.1788    2.1852367   0.23486436   0.11961362 
   31900   -948.43782    43.247337   -905.19048    1548.9628   -2369.4389    2.1792596   0.23373736   0.11843778 
   32000   -948.39813    42.320785   -906.07735     1515.777   -2002.9731    2.1756205  0.033168574   0.12626216 
   32100    -943.6594     45.80348   -897.85592    1640.5146   -1647.0412    2.1679702   0.24768087   0.13318356 
   32200   -950.88301    46.853595   -904.02941    1678.1258    2681.0695    2.1910363    0.3152759   0.12689535 
   32300   -950.99898    45.551981     -905.447    1631.5067    111.28679    2.1848536  0.046981615   0.11929295 
   32400   -942.52423     45.73533    -896.7889    1638.0737   -4586.3347    2.1561975   0.20231061   0.13088545 
   32500   -948.84917    44.338112   -904.51106    1588.0304    1379.6301    2.1853696   0.19930364   0.13048753 
   32600   -947.35154     43.18647   -904.16507    1546.7828    5770.4552    2.1941623   0.40149613   0.13168726 
   32700    -944.1242    46.666887   -897.45731    1671.4387   -2908.6202    2.1645051   0.66956379   0.11597059 
   32800   -948.12134    44.041886   -904.07945    1577.4207   -8678.9658    2.1609288   0.47956872   0.12692055 
   32900   -950.35069    45.006631   -905.34406    1611.9743     1064.037     2.185772  0.046030582   0.12062739 
   33000   -942.09179     43.74116   -898.35063    1566.6497    17110.814    2.2043262  0.074385185   0.13532463 
   33100   -946.46037    42.509348   -903.95102    1522.5307   -2616.6243    2.1736361   0.13315943   0.12679678 
   33200   -950.74574     42.60554    -908.1402    1525.9759   -13160.883    2.1536022   0.21581067    0.1161616 
   33300   -945.93413    45.211564   -900.72257    1619.3142    2919.7102    2.1824941   0.16999852   0.12369849 
   33400    -949.5434     47.34081   -902.20259    1695.5761     8978.933    2.2057523   0.23595328   0.13248415 
   33500   -947.76468    38.507613   -909.25706     1379.203     544.2548    2.1835206   0.25302738    0.1246089 
   33600   -944.01714    43.328638   -900.68851    1551.8747   -9123.7757    2.1490717   0.11212224   0.11862327 
   33700   -948.80153    47.507043   -901.29449      1701.53    2349.0871    2.1842482  0.026647274    0.1154038 
   33800   -951.61844    45.175057   -906.44338    1618.0067    8256.3408    2.2086601  0.029690969   0.10645074 
   33900   -944.72123    46.317874   -898.40335    1658.9383   -3870.2877    2.1638935  0.022903765   0.12772055 
   34000   -945.31672     44.41642    -900.9003    1590.8351   -5548.2094     2.161583 0.0080888653   0.12236033 
   34100   -949.36153    43.845699   -905.51584    1570.3939    1492.1838    2.1889639 0.0076726659   0.12033254 
   34200   -945.90616     45.70324   -900.20292    1636.9243     4226.916    2.1868537   0.12689195   0.13206022 
   34300   -948.02262    49.334956   -898.68767    1766.9992   -6188.8715    2.1652696  0.044042945   0.12993256 
   34400   -947.35214    41.274675   -906.07747    1478.3092   -3539.6872    2.1733802   0.06772527   0.12962551 
   34500   -948.47046    47.112555   -901.35791    1687.4009    2018.5654    2.1853461    0.3090884   0.12433934 
   34600   -944.63838    47.079059   -897.55932    1686.2011    2341.2367    2.1789752  0.042674475   0.11994038 
   34700   -951.22647    44.621785   -906.60469    1598.1905   -2494.2894    2.1797118   0.21176716   0.10552826 
   34800    -948.7477    45.893018   -902.85468    1643.7215   -4379.9291    2.1684881  0.049560778   0.12016948 
   34900   -948.86788    50.602721   -898.26516     1812.406   -3164.5272     2.173809   0.16141378   0.11930867 
   35000    -951.2233    43.715557   -907.50774    1565.7327    4991.9995     2.200499   0.18270104   0.11446604 
   35100    -948.6746    44.992526   -903.68207    1611.4691   -9303.5313    2.1580465   0.18938832   0.12315732 
   35200   -944.09698    43.147215   -900.94976    1545.3768   -8776.1286    2.1449001   0.17788476   0.13478272 
   35300   -948.14275    41.910665   -906.23208     1501.088    15125.957    2.2192752   0.22840686     0.127494 
   35400   -952.16654    45.176753   -906.98979    1618.0675    12168.036    2.2160896   0.49418591   0.12229814 
   35500   -945.65312    44.307119     -901.346    1586.9203   -10884.859    2.1441198  0.049745603   0.11844093 
   35600   -947.74017    44.274578   -903.46559    1585.7548   -11752.836    2.1510994  0.084391197   0.11106383 
   35700   -953.32217    45.872509   -907.44966    1642.9869    9772.0356    2.2106896   0.12263891  0.097073336 
   35800   -945.30366    47.347895   -897.95576    1695.8299    5070.8608    2.1820683   0.15056976   0.10833473 
   35900    -945.2668    44.022921   -901.24388    1576.7414   -5858.0795     2.155125   0.16303993   0.10581794 
   36000   -945.56147    40.249203   -905.31227    1441.5805   -1676.6392    2.1697377   0.18932268   0.10720301 
   36100   -947.98687    44.604704   -903.38217    1597.5787    9085.3594    2.2008074  0.082091623   0.13488372 
   36200   -943.92402    46.918409   -897.00561    1680.4473    1507.6404    2.1668273  0.051297196   0.13715961 
   36300   -950.94197     46.55276   -904.38921     1667.351   -9771.0164    2.1595101   0.46954527   0.11893751 
   36400   -950.03517    46.616451   -903.41872    1669.6322   -2277.2708    2.1771169  0.050128337   0.10844641 
   36500   -940.22556    45.480158    -894.7454    1628.9343    6741.5044    2.1810615   0.15558949   0.12065763 
   36600    -946.9848    43.887192   -903.09761    1571.8801    177.57544    2.1827315  0.044331736   0.11982485 
   36700   -944.90675    40.274823   -904.63193    1442.4981   -6022.2437    2.1587776   0.12141491   0.11657524 
   36800   -945.92961    47.491931   -898.43768    1700.9888    236.25001    2.1731678   0.32712524   0.11362111 
   36900   -948.57125    46.036661   -902.53459    1648.8662    9321.7539    2.2053112   0.23396932   0.12387692 
   37000   -946.79757    40.415324   -906.38224    1447.5303    647.75934    2.1815059   0.32267842   0.13421457 
   37100   -950.13956    47.713833   -902.42573    1708.9365   -10868.218    2.1576872  0.079996956   0.14671409 
   37200   -945.78637    46.465373     -899.321    1664.2211    3149.0166    2.1863064   0.25034737   0.15910419 
   37300   -952.76546    44.888018   -907.87745     1607.726    15859.615    2.2313839   0.10037181    0.1234561 
   37400   -950.98578    48.320232   -902.66555    1730.6555   -11299.977     2.158573  0.017550788    0.1203775 
   37500   -942.68619    41.177414   -901.50878    1474.8256   -15159.205    2.1336738   0.18159148   0.12045569 
   37600   -952.34042    48.876951   -903.46347    1750.5951    6363.1087    2.2028601   0.21521916   0.11378676 
   37700   -952.05542    43.460788   -908.59463    1556.6078    13273.858    2.2244381   0.23723979   0.11037853 
   37800   -947.35475    48.331061   -899.02369    1731.0433   -8517.4548    2.1579044   0.53371994   0.12387646 
   37900   -945.92201    43.290509    -902.6315     1550.509   -3010.4481    2.1683517   0.13583041   0.14140182 
   38000    -948.4103     42.70545   -905.70485    1529.5544    5214.8344    2.2000182   0.83405228   0.12920705 
   38100   -948.24821    51.608282   -896.63993    1848.4215    2760.9757    2.1828143  0.062891825   0.13491789 
   38200   -949.62285    49.288932   -900.33392    1765.3508   -4981.1007      2.17208  0.019398595   0.13804151 
   38300   -951.44951    46.146375   -905.30313    1652.7958   -6671.6616    2.1726107  0.036474894   0.11073626 
   38400   -948.32573    48.231465   -900.09426    1727.4762     1360.423    2.1850218  0.047161401   0.10761252 
   38500   -943.36341    46.084945   -897.27846    1650.5956    4575.6647    2.1808738   0.25463747   0.11360263 
   38600   -951.08999    45.921569   -905.16842    1644.7441   -3656.8218    2.1755753   0.12845259   0.10194746 
   38700   -947.86992    45.527105   -902.34281    1630.6158   -4223.7572    2.1690346  0.090838682   0.11764673 
   38800   -942.81781    46.924199   -895.89361    1680.6546    5895.3789    2.1799098   0.22666572   0.12969528 
   38900   -952.42524    46.913227   -905.51201    1680.2617    4193.2955     2.199124  0.076466698   0.12173102 
   39000   -948.01397    44.013864   -904.00011     1576.417   -8745.5949     2.158422   0.10865004   0.13195045 
   39100   -943.70126    44.139984   -899.56127    1580.9341   -5634.3029    2.1578873 0.0057697976   0.13612846 
   39200   -947.64253    39.702602   -907.93992    1422.0032    15207.432    2.2190809   0.17173624   0.12788088 
   39300   -950.56045    45.236358    -905.3241    1620.2023    5196.9214    2.1945944   0.11349773   0.10431986 
   39400   -944.46959     42.87974   -901.58985    1535.7968   -9765.1112    2.1481492   0.21126121   0.11476497 
   39500   -947.69113    44.899389   -902.79174    1608.1333    -4544.755     2.168141   0.27853918   0.11147045 
   39600   -952.05442     43.29441   -908.76001    1550.6488    12754.277    2.2220619   0.19289727   0.11414472 
   39700   -945.04332    45.064139   -899.97918     1614.034    1042.0228     2.178414   0.27309029   0.12726345 
   39800   -946.84344    44.236517   -902.60692    1584.3916    -8731.606    2.1581904   0.11149379   0.12029045 
   39900   -947.33249    40.634753   -906.69774    1455.3895   -470.48626    2.1839208   0.35352418   0.13676404 
   40000   -944.83108    40.814646   -904.01643    1461.8326    7169.9983    2.1976515   0.18353534   0.14146703 
   40100   -946.93278    47.689765   -899.24302    1708.0744   -3971.8272    2.1723456  0.010891527   0.14701419 
   40200   -950.99081    47.104365   -903.88645    1687.1075   -6867.1458    2.1693326  0.047511248    0.1290859 
   40300   -948.60966     44.12194   -904.48772    1580.2879    1924.1913    2.1860098   0.10975329   0.10248045 
   40400   -941.99674    47.212068   -894.78467    1690.9651     3971.375    2.1745229  0.032732658   0.11481246 
   40500   -948.36125    46.381213   -901.98004    1661.2068    891.10657    2.1824884   0.25332182   0.10609908 
   40600   -950.19975    45.431822   -904.76793    1627.2031   -3367.4331    2.1734665   0.20435528   0.10848562 
   40700   -947.47147    49.190298   -898.28118    1761.8181   -1731.1104    2.1706268     0.118841   0.11582529 
   40800   -945.50472    47.342596   -898.16212    1695.6401    3923.8513    2.1823153   0.33114141   0.12186609 
   40900   -948.48863    43.796861   -904.69177    1568.6447    976.96052    2.1827052  0.033062574   0.12980163 
   41000   -945.64493    43.337589   -902.30734    1552.1953   -2225.3059    2.1698589  0.036325153   0.13203907 
   41100   -947.24427    51.061778   -896.18249    1828.8477   -582.63914    2.1705765  0.057604205   0.11930042 
   41200   -952.21969    46.940084   -905.27961    1681.2236    4754.7994    2.2009588   0.16565577   0.11626032 
   41300   -946.38954     41.89521   -904.49433    1500.5345   -6862.0074    2.1640664   0.79241615   0.12232248 
   41400   -946.39487    44.735117   -901.65975    1602.2497   -6022.6487    2.1622125   0.12017651   0.12190237 
   41500   -947.29526    46.749714   -900.54555    1674.4052    8169.6213    2.1991553   0.21721071   0.12101224 
   41600   -953.41237    43.599253   -909.81312    1561.5671    7257.4866    2.2108434  0.096709186   0.11274487 
   41700   -945.61782     41.52625   -904.09157    1487.3197   -9762.0464    2.1501286    0.1739917   0.12249013 
   41800   -947.75603    45.692245   -902.06378    1636.5305   -8507.3551    2.1606635  0.021447977   0.12287973 
   41900   -947.01147    42.881682   -904.12979    1535.8663    11445.998    2.2056687   0.12386726   0.11867437 
   42000   -953.58181    42.789633   -910.79218    1532.5695     6791.461    2.2073569  0.067246036   0.10837988 
   42100   -945.31504    43.265712   -902.04932    1549.6209   -7408.3861    2.1525029   0.10177437   0.13516229 
   42200   -946.70227    44.122898   -902.57937    1580.3222   -5201.9513    2.1668322   0.35775372   0.13412668 
   42300   -949.65597    42.757087   -906.89888    1531.4038    6766.2801    2.2035661   0.31516036   0.12541586 
   42400   -951.25741    40.592803    -910.6646     1453.887    3711.4772    2.1971708   0.26376352   0.11130447 
   42500   -947.12343     45.86365   -901.25978    1642.6696   -9796.3275    2.1515385   0.26321573   0.11946496 
   42600   -948.62892     45.74651   -902.88241    1638.4741   -883.28989    2.1751733  0.083514334   0.10848593 
   42700   -946.91228    42.609281     -904.303    1526.1099    9121.6966    2.1988617  0.028190991   0.11224004 
   42800   -944.84382    46.380539   -898.46328    1661.1827     2702.731    2.1781763   0.17323168   0.11734848 
   42900   -944.89335    47.516346   -897.37701    1701.8632   -6677.9914    2.1543306   0.14273082   0.10637969 
   43000    -943.0829    39.927568   -903.15533    1430.0607     195.7101    2.1728836   0.09018691   0.14065059 
   43100   -948.72327     45.08775   -903.63552    1614.8797    6076.4598    2.1960719   0.16902049   0.13629969 
   43200   -940.76263    45.980234    -894.7824    1646.8452    4299.1332    2.1753565  0.037739558   0.13710252 
   43300    -943.5739    43.010647   -900.56325    1540.4854   -2527.6549     2.169021   0.23587789   0.13279541 
   43400   -946.29119    41.881162   -904.41003    1500.0313   -1053.2143    2.1725455   0.05118829   0.10511649 
   43500   -942.47338    42.072167   -900.40121    1506.8725    7100.4101    2.1900541   0.18970773   0.12293707 
   43600   -942.15195    47.620091   -894.53186     1705.579    4797.8556    2.1767976   0.07000571   0.12167664 
   43700   -947.77065    43.161564   -904.60908    1545.8907   -2994.4583    2.1717865   0.11635869   0.11538927 
   43800   -946.48306    42.858085   -903.62497    1535.0212   -5490.4992    2.1669169   0.16966148   0.10895614 
   43900   -948.10973    48.587477   -899.52225    1740.2272    8096.1124    2.1957424   0.13903943   0.11562004 
   44000   -952.18669    46.435867   -905.75082    1663.1644    7532.5423    2.2047664   0.25829166   0.12063072 
   44100   -947.80281    40.172094   -907.63071    1438.8187   -14791.268    2.1454141   0.10638288   0.13173375 
   44200   -949.36093    45.737549   -903.62338    1638.1531   -5670.8803    2.1670693   0.11045348    0.1284896 
   44300   -946.52821    47.385231   -899.14298    1697.1671     13731.93    2.2119157  0.082284487   0.11925107 
   44400   -951.61519    44.589878   -907.02532    1597.0477    3037.0513    2.1944282   0.15544829   0.10550915 
   44500   -948.61623    42.506082   -906.11015    1522.4137   -10368.861    2.1571136  0.086217671    0.1112613 
   44600   -945.58401     44.62618   -900.95783    1598.3479   -368.21436    2.1751545  0.091435849   0.12354968 
   44700   -949.93168     46.63911   -903.29257    1670.4438    8550.3514    2.2044823    0.1171225   0.11425133 
   44800   -948.86996    39.024943   -909.84502    1397.7319    2220.9625    2.1923195   0.22244312   0.10172699 
   44900   -941.61294    41.416563   -900.19638    1483.3911    -7039.346    2.1497696   0.39764699   0.11943267 
   45000   -949.24488    47.341441   -901.90344    1695.5987   -526.27835    2.1838629   0.17790821   0.12646567 
   45100   -954.11426    48.732336   -905.38193    1745.4155    4467.0259    2.2033393   0.12988451   0.12019977 
   45200   -946.82611    47.960451   -898.86566    1717.7694   -1505.8352    2.1714921    0.1467334   0.13261697 
   45300   -943.79826    45.315818   -898.48244    1623.0483   -3475.6197    2.1575073  0.042375439   0.12698386 
   45400   -949.28455    45.145437   -904.13911    1616.9458    562.15442    2.1833012   0.21190781   0.11096224 
   45500   -945.65049    42.111643   -903.53885    1508.2863    7260.8089    2.1963137   0.14334629   0.10660457 
   45600   -943.50808    48.563696   -894.94439    1739.3755   -3630.0543    2.1627095  0.087478837   0.11800365 
   45700    -947.6243    43.955879   -903.66842    1574.3402   -4571.1754    2.1691192   0.25040218   0.10938855 
   45800   -949.43865    45.440717   -903.99793    1627.5217    341.65484    2.1846973   0.17406819    0.1133682 
   45900   -946.84015    49.283441   -897.55671    1765.1541    7061.7835    2.1948479   0.15236412   0.12796952 
   46000   -946.33348    45.322887   -901.01059    1623.3015   -6149.6804    2.1605418   0.32721663   0.12565746 
   46100   -947.22776    40.851372   -906.37639     1463.148   -13157.725    2.1468444   0.10170554   0.11977141 
   46200   -947.29773    46.134558   -901.16317    1652.3726    8796.6327    2.2016725   0.15974192   0.13271341 
   46300   -946.68468    45.473145   -901.21153    1628.6831    12603.277    2.2074156   0.11230395   0.12658465 
   46400   -954.41138    44.131375      -910.28    1580.6258   -10153.502    2.1705645   0.39942318   0.11369513 
   46500   -945.08577    40.774829   -904.31094    1460.4065   -8590.7228    2.1564001   0.24098649   0.12461703 
   46600   -946.10919      45.7712   -900.33799    1639.3584    7304.3946    2.1923459   0.16299332   0.10366172 
   46700   -950.38584    44.206036   -906.17981    1583.2999    6443.1339    2.1999229   0.12113043   0.10633571 
   46800   -947.88636    39.103726   -908.78263    1400.5536   -3932.9802    2.1735211    0.1364447   0.12473868 
   46900   -943.96999    43.203048   -900.76694    1547.3765   -3985.2255    2.1598557   0.13138321   0.11644333 
   47000   -949.56789    46.701997   -902.86589    1672.6962    4929.7043    2.1912798   0.17075084   0.12224318 
   47100   -954.78281    47.359945   -907.42287    1696.2615    3489.8876    2.2019629   0.19910104   0.10796315 
   47200   -944.39246    46.750746   -897.64171    1674.4422   -5720.3768    2.1570194  0.073656042   0.12033552 
   47300   -947.50383    46.657835   -900.84599    1671.1144   -2236.2274    2.1724757   0.11274683    0.1453387 
   47400   -950.39587    46.055603   -904.34026    1649.5447     4132.767    2.1936315   0.35725351   0.11641431 
   47500   -948.11813    43.907378   -904.21075     1572.603    1276.8685    2.1858835   0.31686343   0.11020909 
   47600   -944.29411     48.05522   -896.23889    1721.1637   -9778.2219    2.1459369   0.11686211   0.11774448 
   47700   -951.82434    47.523291   -904.30105    1702.1119   -3195.7172    2.1767875   0.25193465  0.099311747 
   47800   -947.45581    44.621925   -902.83389    1598.1955    14290.189    2.2130223  0.045154956   0.12195468 
   47900    -944.2818    48.221166   -896.06063    1727.1073    1719.3588    2.1714633   0.10060408   0.14024226 
   48000   -942.91887    42.096778    -900.8221    1507.7539   -16092.617    2.1251893   0.17913062   0.12496941 
   48100   -950.54625    45.696344   -904.84991    1636.6773   -3790.1498    2.1764753  0.017222405   0.12289462 
   48200   -951.31625    51.553982   -899.76226    1846.4767    15385.338    2.2215492   0.20768009   0.10987213 
   48300   -945.98666    46.118682   -899.86797     1651.804   -2684.7082    2.1695956   0.26683043   0.13128021 
   48400   -948.94424    40.597594   -908.34664    1454.0586    -6283.073    2.1696361   0.13352045   0.14141798 
   48500    -944.6134    41.496077   -903.11733     1486.239    2500.0059    2.1844343   0.15011255   0.14300117 
   48600   -943.32014    43.577784   -899.74235    1560.7982    7369.0269    2.1882762   0.19865974   0.12142932 
   48700   -952.99013    44.615994   -908.37414    1597.9831   -2440.5138    2.1831729   0.10218582  0.095395101 
   48800   -948.87067    43.982477   -904.88819    1575.2928   -7241.1693    2.1634211   0.11519839   0.12439219 
   48900    -947.9883    47.629925   -900.35838    1705.9312    128.61345    2.1817564  0.088809831   0.12161817 
   49000   -949.82824    43.961801   -905.86644    1574.5523    8088.5186    2.2021594  0.024250008   0.12391139 
   49100   -951.45973     43.51951   -907.94022     1558.711   -3125.2521    2.1813754 0.0094784287   0.11236841 
   49200    -944.9082    44.651906    -900.2563    1599.2693    -8223.895    2.1553725   0.10714058   0.11509446 
   49300   -947.75292    43.843385   -903.90954     1570.311    2011.0463    2.1860794   0.13031998   0.12679271 
   49400   -949.95362    43.263011   -906.69061    1549.5242    9094.6295    2.2094762   0.11343876   0.12946634 
   49500    -947.4739    50.240972   -897.23293    1799.4494   -7714.7772    2.1578848   0.17175887   0.12907573 
   49600   -945.23024    42.035201   -903.19504    1505.5485   -7906.4223    2.1592159  0.075927445   0.12602782 
   49700   -948.99305    44.460054     -904.533    1592.3979     5509.617    2.1994053  0.061361539   0.11484863 
   49800   -941.08094    45.063442    -896.0175    1614.0091    12968.094    2.1964432  0.040171689   0.12038748 
   49900   -944.31071    43.436125   -900.87459    1555.7245   -5264.3492    2.1587587    0.1094209   0.13884934 
   50000   -944.36048    38.391111   -905.96936    1375.0304   -9420.5393    2.1509006  0.093449419   0.12981645 
   50100   -946.32114    46.596844   -899.72429      1668.93    10219.087    2.2041965  0.071825715   0.12156882 
   50200   -947.04998    48.335457   -898.71452    1731.2008    13148.824     2.210984   0.10689746   0.11776682 
   50300   -950.49262     43.24702    -907.2456    1548.9514   -8902.3314    2.1660437  0.075962433   0.11133029 
   50400   -947.84159    44.285341   -903.55625    1586.1403   -7974.7935    2.1654573    0.3261735   0.14163637 
   50500   -945.02873    45.990441   -899.03829    1647.2108    5841.9888    2.1860384  0.052669396   0.13985479 
   50600   -948.05898    40.443872   -907.61511    1448.5528    5601.8854    2.1962653   0.04261644   0.11304409 
   50700   -949.93454    44.585365   -905.34918    1596.8861   -4985.0572    2.1727286  0.059704359   0.11182567 
   50800   -950.31796    49.787656   -900.53031    1783.2133   -3832.0619     2.170896  0.022662813   0.10322451 
   50900   -949.03318    43.231283    -905.8019    1548.3878     4311.307    2.1955719   0.18418844   0.13282892 
   51000   -950.69925    43.075419   -907.62383    1542.8053    3486.9194    2.1966695 0.0051534181   0.13340096 
   51100   -949.48982    49.195735   -900.29409    1762.0128   -7588.5541    2.1638036  0.064891864    0.1152031 
   51200   -947.75041    43.618616   -904.13179    1562.2606   -3472.7757    2.1728955   0.19136775   0.11255996 
   51300   -951.14089    43.964928   -907.17597    1574.6643    6279.9069    2.2058317   0.05934326   0.11291014 
   51400   -942.30991    44.709771   -897.60013    1601.3418    2113.8493    2.1777182   0.26780062   0.13824219 
   51500   -946.44597    43.719581   -902.72639    1565.8768   -6432.8099    2.1642981   0.03317502    0.1355029 
   51600   -950.88467    45.284816   -905.59986    1621.9379   -1487.7967    2.1821821  0.056703056   0.11342445 
   51700   -944.55669     47.04058   -897.51611     1684.823    10573.329    2.1974963   0.56773168   0.10682547 
   51800   -947.67846    47.831376   -899.84709    1713.1464    3260.3909    2.1839336  0.035847387   0.12361438 
   51900   -950.79814    44.987164   -905.81098    1611.2771   -13955.857    2.1524484    0.1516902   0.12605533 
   52000   -945.05141    44.115845   -900.93556    1580.0696    457.76025    2.1722681    0.1220355   0.13560987 
   52100   -945.63603    50.795852   -894.84018    1819.3232     13169.44    2.2038381   0.23843422   0.13341558 
   52200   -946.89624    42.916421   -903.97981    1537.1106    4989.9048    2.1901682   0.37328653   0.11377227 
   52300   -949.01345    45.279614   -903.73383    1621.7516   -11916.564    2.1510405   0.22809589   0.12409597 
   52400   -945.36126    48.166755   -897.19451    1725.1585   -792.57155    2.1710974   0.12734477   0.14060521 
   52500   -953.75494    47.809897   -905.94504    1712.3771     4918.626    2.2058593    0.1161782    0.1188321 
   52600   -946.33308    41.316026   -905.01705    1479.7902    319.34482    2.1797446  0.090835772   0.11970731 
   52700   -944.85497    44.442605   -900.41237    1591.7729    -3197.823    2.1685278   0.13468347   0.11780762 
   52800   -950.64357    44.735383   -905.90818    1602.2592    1276.9307    2.1885383   0.30494676   0.11085259 
   52900   -950.13147    42.972872    -907.1586    1539.1324     4220.987    2.1987865   0.32090516   0.14503866 
   53000   -946.85649    46.051647   -900.80485     1649.403   -2800.7895    2.1756075   0.24020613   0.14775397 
   53100    -950.7734    46.573888   -904.19951    1668.1078   -5861.6248    2.1703161    0.2534853   0.12086031 
   53200   -952.05592    43.645652   -908.41027     1563.229    2128.3879    2.1894814   0.29042419    0.1120207 
   53300   -944.72807    45.206237   -899.52184    1619.1235    3546.9319    2.1843207   0.21134614   0.10780467 
   53400   -945.53273    42.647863   -902.88486    1527.4918   -805.66489    2.1782977   0.13533086   0.14549212 
   53500   -952.64636    44.673873   -907.97248    1600.0561   -6326.7706    2.1767231  0.048482489   0.11179389 
   53600   -946.00433    46.205848   -899.79848    1654.9259    2443.3794    2.1823406   0.22103078   0.12125353 
   53700   -948.02614     47.95849   -900.06765    1717.6992    7572.1679    2.2009138   0.12240518      0.13076 
   53800   -949.99899    44.475604   -905.52339    1592.9548   -6224.7154    2.1741896    0.1476273   0.11936305 
   53900   -945.61111    45.217896   -900.39321     1619.541   -11972.442     2.147232   0.37059153   0.14018532 
   54000   -946.21569    49.188428   -897.02726    1761.7511    4306.0355    2.1881642   0.16116033   0.14361165 
   54100   -948.76818    45.879457   -902.88872    1643.2358    10385.354    2.2097054   0.27980523   0.11814938 
   54200   -947.61812    42.986656   -904.63147    1539.6261   -5874.5653    2.1669723   0.23073439   0.11645379 
   54300   -943.32981    47.255124   -896.07469    1692.5072    -9248.492    2.1445825  0.092288398    0.1062793 
   54400   -947.33345    44.036069   -903.29738    1577.2123     5681.318    2.1946476  0.087917119   0.12099564 
   54500   -949.28564    45.101448    -904.1842    1615.3703    3623.0902    2.1913441   0.66671645   0.13312124 
   54600   -949.28177    48.808751   -900.47302    1748.1524   -4751.2105    2.1689412   0.12361953    0.1237334 
   54700   -946.71001    43.687794   -903.02222    1564.7383   -4842.8754    2.1675154    0.2824467   0.12423232 
   54800   -949.17479    41.469938   -907.70485    1485.3028    5748.4825    2.1978481   0.15732731   0.11643514 
   54900   -949.38825    48.412738   -900.97551    1733.9687    1569.3173    2.1871135   0.18670951   0.12485454 
   55000   -947.76424    44.961902   -902.80234    1610.3723   -3427.3891    2.1706504   0.26708674    0.1324213 
   55100   -949.73011    39.863024   -909.86708     1427.749    117.79397    2.1859396  0.046768838   0.12226411 
   55200   -947.74988    46.319548   -901.43033    1658.9982    2281.3231    2.1831534  0.060836272   0.11629309 
   55300   -950.08446     48.26693   -901.81753    1728.7464   -56.735866    2.1842822   0.06911777   0.11201772 
   55400   -950.88183    42.550406   -908.33143    1524.0012   -3275.0095    2.1813197    0.1395605   0.11261262 
   55500   -948.40707    46.122658   -902.28441    1651.9464   -3188.8074    2.1725886   0.21724028   0.13040375 
   55600   -945.64958     45.39587   -900.25371    1625.9154    2433.6857    2.1821227   0.10696137   0.12301783 
   55700   -948.43734    43.412508   -905.02483    1554.8786    252.81264    2.1790167   0.11296642   0.11101119 
   55800   -949.81754    45.649715   -904.16782    1635.0073   -3485.9395    2.1719948   0.18723125    0.1216215 
   55900   -946.81506     49.76511   -897.04995    1782.4058   -4885.9846    2.1605716   0.23960199   0.11633868 
   56000   -948.31624    44.512351   -903.80389     1594.271     3426.679    2.1878342  0.056019412   0.12811465 
   56100     -947.244    43.218537   -904.02546    1547.9313     6765.533    2.1932897  0.096676314   0.12505459 
   56200   -943.79294    48.381684   -895.41126    1732.8565   -6726.6207    2.1470698  0.046338461   0.11439472 
   56300   -946.93211    43.592339   -903.33977    1561.3195   -3560.3121    2.1658324   0.18036768    0.1100472 
   56400   -948.63814    44.429288   -904.20885     1591.296    3474.3461    2.1915344   0.16730529   0.11785317 
   56500   -944.05915    43.931922   -900.12722    1573.4821    6565.8102    2.1829917   0.70539896   0.11854297 
   56600    -945.7155    48.549502     -897.166    1738.8671   -7967.4623    2.1489779   0.10093353   0.11470768 
   56700   -946.82916    40.222296   -906.60686    1440.6168     940.0457    2.1780384   0.19272993    0.1081424 
   56800   -949.54619    46.751054   -902.79514    1674.4532     6281.701    2.1946829 0.0065001239   0.11629258 
   56900   -944.95057    44.815345   -900.13523    1605.1232    1284.2801    2.1743838  0.019042972   0.12533086 
   57000   -946.47267    43.785047   -902.68763    1568.2216   -10432.735    2.1489859   0.14693315   0.11759845 
   57100   -948.45463    40.420781   -908.03385    1447.7258    1928.6245     2.186069   0.12729381   0.12686518 
   57200   -945.07643    43.082757   -901.99367    1543.0681    12998.613     2.203859   0.13273052   0.11516248 
   57300   -948.50827    46.622538   -901.88573    1669.8502   -2634.1934    2.1682954   0.28445829   0.11746626 
   57400    -947.3325    40.195948   -907.13655    1439.6731   -9890.7021    2.1550783   0.27326623   0.12295705 
   57500   -951.53897    43.362223   -908.17674    1553.0776    961.19664    2.1915927   0.12162772   0.11866129 
   57600   -948.26748    47.115846   -901.15163    1687.5187    6578.1987    2.1934404   0.27323107   0.11460141 
   57700   -944.96623    41.625432   -903.34079     1490.872   -756.52939    2.1695504  0.026664023   0.11607371 
   57800     -947.448    36.658226   -910.78978    1312.9647   -1159.6031    2.1772271   0.14760486   0.12093805 
   57900   -946.14494    43.079175   -903.06576    1542.9398    3337.1257    2.1816247   0.22456722   0.12769954 
   58000   -947.09846    45.720854   -901.37761    1637.5552     5582.366    2.1881012  0.066923509    0.1356302 
   58100   -949.05802    43.141457   -905.91656    1545.1705   -230.08869    2.1763853  0.094782907   0.12353318 
   58200   -952.25729    42.320967   -909.93632    1515.7836      -4743.5    2.1772814   0.37447411   0.12025704 
   58300   -946.89084    46.466526   -900.42432    1664.2625   -1453.2815    2.1689387   0.15104296   0.10691377 
   58400   -948.21926    46.095519   -902.12374    1650.9743    4260.3798    2.1862655   0.15062282   0.10524436 
   58500   -947.49511    42.071511    -905.4236     1506.849    2033.6252    2.1808484   0.17308487   0.11030793 
   58600   -944.84162    45.110889   -899.73073    1615.7085   -1526.0936     2.165954   0.20287202   0.11886423 
   58700   -946.30655    48.342777   -897.96378     1731.463    421.13472    2.1717628  0.066256358   0.11672481 
   58800    -947.5098    44.073112   -903.43669    1578.5391    2.7024332    2.1773419  0.060315473   0.12687421 
   58900   -947.99891    43.618837   -904.38007    1562.2685   -411.80254    2.1757633   0.12928311   0.13126918 
   59000   -945.10506    50.334464   -894.77059     1802.798    948.43742    2.1663567   0.32695118   0.13674583 
   59100   -947.03053    45.543282   -901.48725    1631.1952    5292.0401    2.1927981   0.16805332   0.14976418 
   59200   -948.19974    43.592995   -904.60675     1561.343   -4042.6578    2.1690117   0.11939299   0.12502728 
   59300   -948.66974    48.926634    -899.7431    1752.3746   -7766.5979    2.1591027   0.23648452   0.12159441 
   59400   -946.40091    51.569393   -894.83152    1847.0286    3352.6154     2.183595   0.11446397   0.12022791 
   59500   -949.65819     45.82281   -903.83538    1641.2069    5385.3861    2.2001788   0.18050316   0.11224676 
   59600     -944.941    42.251102    -902.6899    1513.2812   -2861.2483    2.1652778   0.01758791    0.1307651 
   59700   -940.61301     43.34356   -897.26945    1552.4091   -6174.2747    2.1537704   0.28457565   0.14309633 
   59800    -948.9659    43.431267   -905.53463    1555.5505    4191.5262    2.1957978  0.077878223   0.14258986 
   59900   -948.72354    43.521111   -905.20243    1558.7684    3901.7569    2.1956297   0.13482767    0.1436022 
   60000   -943.61841    42.022892   -901.59552    1505.1076   -2537.4335    2.1656898   0.28445583   0.13941792 
   60100   -948.02768    49.193866   -898.83381    1761.9459   -7569.5242    2.1599085   0.10688914   0.12008688 
   60200   -951.62887    43.144949   -908.48393    1545.2956    8703.9673    2.2106668   0.23000906   0.10545384 
   60300   -946.61455    43.363497   -903.25105    1553.1232    2817.6771    2.1847285   0.12837756   0.12072006 
   60400    -945.8907     44.27156   -901.61915    1585.6467   -8503.8462    2.1512142  0.026500013   0.11291252 
   60500   -948.69806    40.625763    -908.0723    1455.0675   -2446.2291     2.177854  0.019662655   0.10928192 
   60600    -950.1988    43.736437   -906.46237    1566.4806    12733.793    2.2186362   0.34458203   0.11529927 
   60700   -947.10255    46.774442   -900.32811    1675.2909    2301.8686    2.1846458   0.16761475   0.12660267 
   60800   -946.88803    42.512676   -904.37535    1522.6499   -12934.017     2.145978   0.14244267   0.13155123 
   60900    -949.8566    42.899031   -906.95757    1536.4877   -1655.2471    2.1819413  0.082314779   0.14128723 
   61000   -946.17158    48.870312   -897.30127    1750.3573    9230.6722    2.2012537   0.20208672   0.13827686 
   61100   -948.23006    46.995976   -901.23409    1683.2254    478.84351    2.1821705   0.10094109   0.12454994 
   61200   -948.69147    42.972138   -905.71933    1539.1061   -5499.0758    2.1673718   0.13541152   0.11121243 
   61300   -943.79278    43.513087    -900.2797     1558.481    1634.8291    2.1810579  0.039665421   0.12035394 
   61400    -944.8038    46.552649   -898.25115    1667.3471    3092.8005    2.1803079  0.099801795   0.12504239 
   61500   -945.53048    40.596906   -904.93358    1454.0339    1009.2595    2.1800872    0.1587982   0.11441772 
   61600   -947.17435     44.97777   -902.19658    1610.9406   -935.89176    2.1760785   0.17143223   0.11829332 
   61700   -942.70345    46.849372   -895.85408    1677.9746    509.22883     2.167519  0.083587033   0.13827153 
   61800   -948.34335    43.200246    -905.1431    1547.2762    2860.9251    2.1911303   0.15918991   0.13021247 
   61900   -947.72886     44.49238   -903.23648    1593.5557   -2751.9615    2.1760171   0.13484432   0.14212925 
   62000   -941.42772     43.68945   -897.73827    1564.7977   -3734.4452     2.161471  0.021751788   0.14941419 
   62100   -947.79983    40.628078   -907.17176    1455.1504    5739.1484     2.193667  0.097617258   0.11186576 
   62200   -951.52826    47.411004   -904.11726    1698.0902     1189.169    2.1876314    0.1115158   0.10592895 
   62300   -944.27106    44.088054     -900.183    1579.0742   -1953.3313     2.163885   0.17459352    0.1242484 
   62400   -949.31166    43.132967   -906.17869    1544.8664   -2529.4988    2.1775325   0.14569788     0.117756 
   62500   -948.68618      41.8655   -906.82068    1499.4704    6709.3325     2.199116   0.20673561   0.11822951 
   62600   -947.04829    47.060886    -899.9874    1685.5503    3272.6274    2.1834312   0.20153278   0.11242341 
   62700   -948.93026    45.049018   -903.88124    1613.4925   -8696.4458    2.1579298   0.14384307    0.1140548 
   62800   -950.08545    41.028325   -909.05712    1469.4858   -2598.9627    2.1801142  0.049920034   0.12267145 
   62900   -946.50625      46.5557   -899.95055    1667.4563    6491.8029    2.1949346   0.16593248   0.14687082 
   63000   -948.02827    45.953635   -902.07463    1645.8926    2031.1657    2.1866328  0.097253795   0.14199054 
   63100   -950.35563    42.688268   -907.66736     1528.939    -9578.632    2.1593082   0.32426845   0.11766103 
   63200   -946.75707    46.551894   -900.20517      1667.32   -2693.1283    2.1675891   0.30704955   0.11178156 
   63300   -945.20577    45.974213   -899.23156    1646.6296      12375.7    2.2040698  0.099692935   0.11764582 
   63400   -950.15004    44.803736    -905.3463    1604.7074   -200.13815    2.1840675    0.2612663   0.11699444 
   63500   -942.47032    41.928447   -900.54188    1501.7249   -8149.8855    2.1493699  0.092366084    0.1268745 
   63600   -942.75791    45.323436   -897.43448    1623.3211   -1245.9739    2.1654891   0.05840341   0.13460099 
   63700   -947.45391    42.563222   -904.89069    1524.4603    10073.276    2.2043735   0.09976405   0.11935684 
   63800   -947.84496    45.669484   -902.17547    1635.7153    1925.6842    2.1811434   0.13250093   0.12457015 
   63900   -945.13929    47.180175   -897.95911    1689.8228   -6794.6653    2.1542686 0.0051041502    0.1426282 
   64000   -950.37613     43.00294   -907.37319    1540.2094   -146.75912    2.1879686   0.02041824    0.1260668 
   64100   -948.41277     45.82226   -902.59051    1641.1872     2861.468    2.1839463    0.2494622   0.11700946 
   64200   -945.74585    46.027028   -899.71883    1648.5212   -405.42009    2.1710418   0.36769831   0.11167539 
   64300    -948.1897    39.401812   -908.78789      1411.23   -838.12882    2.1818896   0.25800834   0.11933682 
   64400   -949.17411    45.956129   -903.21798    1645.9819   -1347.6216    2.1741182  0.089392993   0.12719518 
   64500   -946.23618    46.133001   -900.10318    1652.3168    1750.1531    2.1763392   0.13316239   0.13107025 
   64600   -948.73873    40.559282   -908.17945    1452.6864    3147.2742     2.185719   0.17265649   0.12237374 
   64700   -948.42761    45.099425   -903.32818    1615.2979     -2933.23    2.1680584   0.29788932   0.12706195 
   64800   -944.45715     44.26468   -900.19247    1585.4003    2506.0565    2.1738904   0.19775635   0.13202596 
   64900   -949.88985    43.288142   -906.60171    1550.4243    4538.5382    2.1943022   0.14268376   0.12082383 
   65000    -943.7422    39.759121   -903.98308    1424.0275    244.02541    2.1713281   0.30225918   0.14571789 
   65100   -943.87043    44.092931    -899.7775    1579.2489   -6771.6608    2.1547509  0.067804621   0.12709525 
   65200   -951.47611    46.028524   -905.44759    1648.5748   -655.40949    2.1860588   0.37845044    0.1131512 
   65300   -945.55186    41.466171   -904.08569    1485.1678    12732.594    2.2062784   0.20417899   0.13306613 
   65400    -944.7054    47.568198    -897.1372    1703.7203   -5605.7716    2.1551626   0.26873172   0.12493252 
   65500   -946.78585    41.244133   -905.54172    1477.2153   -9206.8778    2.1555239  0.083252665    0.1244628 
   65600   -948.21452    44.591457   -903.62306    1597.1043    6152.7718    2.1919992  0.067773731   0.12284538 
   65700   -944.44463    47.932393   -896.51224    1716.7645    9349.5031    2.1966293   0.24330118   0.14117397 
   65800   -949.75579    45.875194    -903.8806    1643.0831   -6919.7825    2.1662695   0.29396539   0.13383179 
   65900   -947.99919    42.356845   -905.64234    1517.0686   -8355.7006    2.1590281   0.25704862   0.13160924 
   66000   -943.30858    44.768228   -898.54035    1603.4356    6565.6246     2.185885   0.38259473   0.12668252 
   66100   -947.89964    43.223248   -904.67639       1548.1    8613.9871    2.1977771   0.16581403    0.1101025 
   66200   -949.68156     42.78127   -906.90029    1532.2699   -3875.7718    2.1719518   0.12427473   0.11477576 
   66300   -946.59523    46.408153   -900.18708    1662.1718   -4961.1876     2.161391  0.077285474   0.12070444 
   66400   -949.01491    44.511187   -904.50372    1594.2293    2348.2214    2.1881827   0.11505094     0.118233 
   66500   -948.38519    40.779139   -907.60605    1460.5609    5523.3692    2.1982473   0.10370824    0.1233194 
   66600   -944.71738    45.276045   -899.44133    1621.6237   -3627.3703    2.1635712    0.1146203   0.13907131 
   66700   -948.85655    45.077302   -903.77925    1614.5055    -2853.915    2.1729306   0.12224655   0.13764539 
   66800   -946.28858    39.779964   -906.50862    1424.7741    7178.9448    2.1942968   0.14149537   0.13328753 
   66900     -948.764    51.151503    -897.6125    1832.0613   -2104.2431    2.1727444  0.054536072   0.11631188 
   67000   -949.13908    45.885339   -903.25374    1643.4464   -2057.0994     2.175276   0.48035079   0.11604017 
   67100   -948.18081    42.262641   -905.91817    1513.6945    598.17255    2.1791329   0.11230177    0.1205865 
   67200   -946.36856    49.281187   -897.08737    1765.0734   -2613.5203    2.1701519   0.45787347   0.11768507 
   67300   -950.78514    47.702088   -903.08305    1708.5158    215.31301    2.1867463  0.058721763    0.1286274 
   67400   -949.81399    44.208723   -905.60526    1583.3961   -978.69426    2.1777316   0.16100266   0.12288268 
   67500   -946.96807    49.079289   -897.88878    1757.8421    -3321.772    2.1675329   0.20862427    0.1287419 
   67600   -948.02335    44.269628   -903.75373    1585.5775    1889.6436    2.1835431   0.05136063    0.1382226 
   67700   -953.45422    47.574894   -905.87932    1703.9602   -2825.0736    2.1831776   0.12985575    0.1104531 
   67800   -946.42751    47.246797   -899.18071    1692.2089   -572.38149    2.1720053  0.071518247   0.13803387 
   67900   -946.43325    42.816525   -903.61673    1533.5327    1767.2547    2.1791184   0.71573524   0.13004052 
   68000   -947.31612    41.692744   -905.62338    1493.2829    1245.6821    2.1839274    1.2523587   0.12247003 
   68100   -945.93126    47.161933   -898.76933    1689.1694    -1808.334    2.1716822   0.17452274   0.12571444 
   68200   -945.68972    43.234552   -902.45517    1548.5049   -275.50651    2.1760396   0.13774267   0.12401499 
   68300   -948.47365    41.618236   -906.85542    1490.6143   -344.86585    2.1846236     1.252104   0.15016114 
   68400   -943.58449    44.882084   -898.70241    1607.5135   -1980.0926    2.1654416    0.3370863   0.16374444 
   68500   -947.82126    45.681541   -902.13972    1636.1471   -97.768459    2.1814519    5.6803946   0.15763966 
   68600   -952.50815    45.490479   -907.01767     1629.304    625.40897    2.1912991    5.3238783   0.13633288 
   68700   -944.22701    46.762637   -897.46438    1674.8681   -3290.3816    2.1654112    6.1325057   0.16586948 
   68800   -946.50532    44.901476   -901.60384     1608.208   -2188.7654    2.1693131    8.0722181    0.1495717 
   68900   -949.91152     44.62045   -905.29107    1598.1427    3652.8246    2.1909082    4.7423675   0.15141087 
   69000   -946.05121    49.557271   -896.49394    1774.9617    1029.1666     2.179766    4.9253147   0.14108972 
   69100   -944.45293    45.012343   -899.44059    1612.1789   -1157.7084    2.1691486    4.8437105   0.14018211 
   69200   -948.90423    43.851644   -905.05258    1570.6069   -8302.1697     2.161925    5.5285638    0.1502066 
   69300   -944.78326     45.96238   -898.82088    1646.2058    6837.9236      2.19206    5.6405414   0.14473628 
   69400   -945.53097      47.1808   -898.35017    1689.8452    7848.6132     2.192746    5.9034113   0.13246318 
   69500   -948.78268    43.007639   -905.77504    1540.3777   -5122.9468    2.1676173    8.1157904   0.13580879 
   69600   -946.18177    43.632301   -902.54947    1562.7508   -3623.2529    2.1680083    6.6342371   0.13120775 
   69700   -943.94387    46.244121   -897.69975    1656.2967    6855.0707    2.1920779    5.7862252   0.13330019 
   69800   -950.99644    43.871912   -907.12453    1571.3328    1444.0849    2.1927085    5.8567038   0.13565564 
   69900   -947.75028    42.870896   -904.87939      1535.48   -10200.114    2.1524236    4.8183393   0.12596717 
   70000   -944.90414    44.292678   -900.61146    1586.4031   -901.65381    2.1729493    6.3240384   0.15220583 
   70100   -950.98174    45.023702   -905.95804    1612.5857    10241.368    2.2110627    5.1836709   0.13311533 
   70200   -951.10833    43.227626   -907.88071    1548.2568    2005.2003    2.1904931     5.167744   0.12704839 
   70300    -944.0994    42.815789   -901.28361    1533.5063   -5987.6747    2.1563053     6.048957    0.1464832 
[...]
  186800   -949.31455    47.211004   -902.10355     1690.927   -3918.1218    2.1724654    53.378408   0.14743681 
  186900   -945.09761    41.078748   -904.01886    1471.2918   -3999.4317     2.164718    40.503415   0.15054891 
  187000   -952.23399    39.969473   -912.26451    1431.5616    5153.7251    2.2030828    46.687082   0.13187006 
  187100   -950.22179     46.33805   -903.88374    1659.6609    3750.7648    2.1928712    51.153652   0.13282347 
  187200   -945.81584    43.333221   -902.48262    1552.0388   -5476.2987    2.1604821    50.721121   0.11950227 
  187300   -949.23788    47.030612   -902.20726     1684.466   -7570.3077    2.1639757    46.977513   0.13055173 
  187400   -952.27542    41.204079   -911.07134    1475.7807    11308.068    2.2179278    48.859654   0.13001304 
  187500   -948.82311    45.309555   -903.51356     1622.824    1419.3684    2.1838164     49.66511   0.12726482 
  187600   -943.47084    41.218681   -902.25216    1476.3037   -7868.0691    2.1518491    48.209959   0.12700795 
  187700   -946.37128    43.088723   -903.28256    1543.2818    -505.3593    2.1731715    50.402455   0.12527542 
  187800   -950.64527    40.187873   -910.45739    1439.3839    13436.458     2.221971    49.263448   0.12624179 
  187900    -948.4328    46.878824   -901.55398    1679.0295   -3655.8129    2.1697938    46.783478   0.13270462 
  188000   -947.43386    45.043671   -902.39019    1613.3009   -9264.9479    2.1507896    51.383923   0.12432932 
  188100   -948.97908     44.33725   -904.64183    1587.9995    1309.9155    2.1830955    50.868586   0.12423456 
  188200   -954.40259      43.3708   -911.03179    1553.3848    9286.2708    2.2139713    48.986937   0.12211156 
  188300   -946.30181     45.20439   -901.09742    1619.0573   -4129.2991    2.1626155    50.240571   0.13353506 
  188400   -947.98059    45.564252   -902.41634    1631.9463   -2321.1228    2.1692028    50.958485   0.12799943 
  188500   -948.91931    44.644906    -904.2744    1599.0186    2441.3637     2.186132    49.179493   0.12021726 
  188600   -952.35088    42.473964   -909.87692    1521.2634   -1111.0825    2.1864302     50.09915   0.12234851 
  188700   -952.78542    41.477883   -911.30753    1485.5873   -1017.0153    2.1882669    47.818826   0.11158253 
  188800   -950.26681    45.616356   -904.65045    1633.8124   -1107.2545    2.1794605    49.967999   0.13429814 
  188900   -948.98409    46.132821   -902.85126    1652.3104    -1661.231    2.1763032    46.526894   0.13945369 
  189000   -945.38906    45.027024   -900.36203    1612.7047     672.8685     2.172221    49.069353   0.12686184 
  189100   -946.09462    45.816358   -900.27826    1640.9758   -890.50034    2.1705095    53.773181   0.11635225 
  189200   -951.34005    42.725774   -908.61428    1530.2823    2993.7299    2.1960757    50.528383   0.13016646 
  189300   -950.33253    45.690541   -904.64199    1636.4695    565.51204    2.1868448     51.19771   0.11915689 
  189400   -946.83327    44.977765   -901.85551    1610.9404   -4979.3779    2.1588758     48.05183   0.13076917 
  189500   -944.70863    44.971637   -899.73699    1610.7209   -4692.1618    2.1626251    52.779651   0.14464949 
  189600   -949.87717    40.597916   -909.27925    1454.0701    15547.567    2.2258783    49.011006    0.1253958 
  189700   -949.34216    45.772952   -903.56921    1639.4211    556.64253    2.1813791    50.109202   0.12915167 
  189800   -944.81363    43.697098   -901.11654    1565.0716   -17206.661    2.1316534    59.711684   0.16454893 
  189900   -941.95663    43.550325    -898.4063    1559.8147    2548.6154    2.1720114     49.91665   0.15124514 
  190000   -953.77537    46.605886   -907.16949    1669.2538    14057.746    2.2255792    49.367536   0.13058556 
  190100    -945.7367    43.342737   -902.39396    1552.3796   -788.59141    2.1722409    51.759872    0.1319381 
  190200   -946.85558    46.097457   -900.75813    1651.0437   -9826.9856    2.1535344    48.166099   0.12181349 
  190300   -948.05336    40.765377   -907.28799     1460.068    3689.1355    2.1917197     48.23418   0.13062653 
  190400   -952.06944    47.476818   -904.59262    1700.4474    5902.5119    2.2028039    48.468654   0.12774636 
  190500   -942.90221    43.280946   -899.62127    1550.1665   -1277.0895    2.1676638    46.338384   0.13068948 
  190600   -950.34502    44.458784   -905.88624    1592.3524   -8220.5916    2.1656518    54.721444   0.13228874 
  190700    -947.2241    42.741636   -904.48246    1530.8504     3197.364    2.1885083    49.613302    0.1329222 
  190800   -947.12297    49.779443   -897.34353    1782.9191    3581.3171    2.1852084    51.984478   0.13645063 
  190900    -947.2185    42.736178   -904.48233    1530.6549      -2157.2     2.174582    50.088848   0.13513401 
  191000   -944.49697    40.451558   -904.04541    1448.8281   -3902.3984    2.1674899    48.801929   0.13065014 
  191100   -943.12761    47.407615   -895.71999    1697.9688    2527.8444    2.1735125    48.270534   0.12427051 
  191200   -950.01795    46.211914   -903.80603    1655.1432    6527.3714    2.2023966    48.178531   0.12424541 
  191300   -948.84633    44.254141   -904.59219    1585.0228   -6446.2658    2.1700528    45.601744   0.12602842 
  191400   -942.03501    43.959077   -898.07593    1574.4547   -8732.6095    2.1458405    50.784573   0.13202275 
  191500   -948.50751     42.04628   -906.46123    1505.9453    9829.7285    2.2071304    50.856566   0.13123285 
  191600    -949.6077    44.793398    -904.8143    1604.3371    10039.734    2.2087648    47.110465   0.12948106 
  191700   -944.14616    43.182902   -900.96326     1546.655   -8956.3278    2.1531286    53.006711   0.14194169 
  191800   -947.66035    47.435174   -900.22517    1698.9559   -13113.017    2.1459145     47.73439   0.13791174 
  191900   -947.26969    39.720946   -907.54874    1422.6602    17532.552     2.225538    45.677769   0.13437021 
  192000   -945.13103     44.83165   -900.29938    1605.7071    9513.7933     2.199144    45.060394   0.13588302 
  192100   -946.61307    44.475205   -902.13786    1592.9406   -9222.4629    2.1537755    49.937988   0.12673912 
  192200   -949.34042    41.663092   -907.67733    1492.2209   -4378.7227    2.1741924    47.770912   0.11990007 
  192300   -945.67694    41.545722   -904.13121    1488.0171    9704.4655    2.1992631    48.924025   0.12327866 
  192400   -948.48694     48.53788   -899.94906    1738.4508   -378.52293    2.1802462    51.350723   0.13664799 
  192500   -945.34966    39.985494   -905.36417    1432.1354   -4647.8429    2.1668466    48.166031   0.15070457 
  192600   -945.82672    42.247884   -903.57884     1513.166    628.52428    2.1786003    48.111328   0.12799987 
  192700   -944.08404    47.182045     -896.902    1689.8897    4096.4782    2.1791355     49.37465   0.12249234 
  192800   -949.71025    45.696386   -904.01386    1636.6788   -638.15038    2.1836355    50.981667   0.11284104 
  192900   -948.20529    43.772892    -904.4324    1567.7863    -4570.865    2.1720944     48.18776   0.12168556 
  193000   -940.92409    44.909266   -896.01483     1608.487   -3112.1126    2.1594659    50.717795   0.13806262 
  193100   -949.51592    45.139847   -904.37607    1616.7456    7501.4215    2.1993447     49.42107   0.11544639 
  193200   -949.37053    45.163748   -904.20679    1617.6016    1146.4228    2.1823281    51.393479   0.11475032 
  193300   -944.40857    45.357152   -899.05142    1624.5287   -9331.2454    2.1457379    51.728493   0.13714291 
  193400   -949.04767    45.182444   -903.86522    1618.2713    -2855.241    2.1729068    46.811494   0.12387505 
  193500   -946.92382    40.982954   -905.94087    1467.8608    13893.768    2.2144461    46.265388   0.13168555 
  193600   -946.99909    46.098132   -900.90096    1651.0679    3035.5937    2.1815961    50.275299   0.12501849 
  193700   -947.37521    44.855722   -902.51949    1606.5693   -15987.214    2.1372144    47.412062   0.11924739 
  193800   -952.04938    42.207337   -909.84205    1511.7137   -718.88988    2.1865857    50.182971   0.12066646 
  193900   -944.74817    43.180377   -901.56779    1546.5645    13470.085    2.2091418    48.287922   0.13942646 
  194000   -945.32217    43.765441   -901.55673    1567.5194    2211.8166     2.176215    50.832067   0.12452497 
  194100   -949.95025    43.020147    -906.9301    1540.8257    -8778.565    2.1623456    47.130763    0.1122034 
  194200   -949.68482    44.181149   -905.50368    1582.4085    790.84442    2.1864699    50.116459    0.1227168 
  194300   -947.55125    48.322274   -899.22897    1730.7286    2506.4979    2.1832361    48.147238   0.14017543 
  194400   -948.68358     44.12133   -904.56225     1580.266   -1845.3944    2.1751299      49.7382   0.13852104 
  194500    -948.0645    42.573625   -905.49088    1524.8329   -2128.3059    2.1750618    52.534838   0.12771176 
  194600   -946.38283    49.629992   -896.75284    1777.5663   -2446.7121    2.1665754    54.477179   0.12402515 
  194700   -945.16391    42.047676   -903.11623    1505.9953    5063.6801     2.186416    47.995756    0.1248462 
  194800   -946.76709    41.963436   -904.80365    1502.9781    2365.7037    2.1836684    46.944142   0.12599872 
  194900   -943.39522    47.343197   -896.05203    1695.6616   -4498.5624     2.156895     54.11085   0.13232506 
  195000   -946.91441    44.237791   -902.67662    1584.4372    737.91897    2.1823075    49.365708   0.11943014 
  195100    -945.9447    41.438134   -904.50656    1484.1637    3918.4244    2.1897088    52.884519   0.12628771 
  195200   -943.98269    44.612032   -899.37066    1597.8412   -800.18091    2.1701119    48.175208   0.13512645 
  195300   -945.64179     47.07847   -898.56332    1686.1801   -6291.2636    2.1575864    54.062277   0.14294896 
  195400   -947.85874      41.9728   -905.88594    1503.3135     5914.313    2.1945526    51.023194   0.13150823 
  195500     -945.479    44.924498    -900.5545    1609.0326    11280.803    2.2012191    51.062483   0.13082117 
  195600   -947.04626    45.979674   -901.06659    1646.8252   -8630.0332    2.1544386    53.193806   0.13603076 
  195700    -952.0592    42.207955   -909.85125    1511.7359   -9021.4323    2.1659065    52.328198   0.11478196 
  195800   -948.91247    45.450695   -903.46178    1627.8791    7079.5707    2.2008559    49.606583   0.12632808 
  195900   -948.10849    47.786701   -900.32179    1711.5463    6914.0432    2.1951055    52.441434   0.13039135 
  196000   -948.18144    41.208826   -906.97261    1475.9507   -7371.7084    2.1638335    51.584536   0.12588102 
  196100   -947.78648    40.858239   -906.92824     1463.394   -5586.9936    2.1695197    45.913175   0.12555765 
  196200   -945.79675    45.729158   -900.06759    1637.8526    7641.9131    2.1930579    48.431988   0.12948635 
  196300   -948.10191    44.334306   -903.76761    1587.8941    1818.4333    2.1892662    53.547835   0.11920253 
  196400   -950.35442    40.890549   -909.46387    1464.5512    -4975.091     2.173291    49.365817   0.12056984 
  196500   -946.60365    45.785593   -900.81805    1639.8739   -1925.9224    2.1677611    49.958163    0.1282557 
  196600   -949.47353    48.416995   -901.05653    1734.1212    5713.6715    2.1916234    50.368834   0.13115735 
  196700   -950.41731    44.763517    -905.6538    1603.2668   -824.43092    2.1831224    47.948902   0.13108498 
  196800   -946.88035    45.647135   -901.23321    1634.9148   -3512.9058    2.1676911    47.361482   0.11390332 
  196900   -945.86055    47.780901   -898.07965    1711.3386   -198.10085    2.1700713     48.12666   0.12208971 
  197000   -948.33902    44.353991   -903.98503    1588.5991    3516.8795    2.1855334    50.859417   0.11279915 
  197100    -946.5127     42.39937   -904.11333    1518.5917    1936.0431    2.1830684    50.686082   0.11932582 
  197200   -940.49713    45.279628    -895.2175    1621.7521   -1318.6042    2.1580205    50.207747   0.13765148 
  197300    -947.3521    43.624971   -903.72713    1562.4883    2297.8753    2.1842449    49.386481   0.12746043 
  197400   -949.45951    45.379462   -904.08005    1625.3277    388.68699    2.1841039    50.495974   0.13434088 
  197500   -944.21949    46.586027   -897.63346    1668.5426   -1397.9505    2.1684765    54.097503   0.13096948 
  197600   -944.00785    42.737854   -901.26999    1530.7149    101.51312    2.1717216    55.816737   0.13667593 
  197700   -950.68166    45.528678   -905.15298    1630.6721    563.50871    2.1854976    51.869832   0.12547506 
  197800   -946.40634    45.531479   -900.87486    1630.7724     4777.109    2.1854558    51.718439   0.13478032 
  197900   -947.73794    48.013882   -899.72406    1719.6831   -2339.1066    2.1716443    48.380862   0.11694192 
  198000   -953.03365    44.451392   -908.58226    1592.0876   -482.91597    2.1923222    50.361383   0.11555867 
  198100   -949.67018    46.787591   -902.88259    1675.7618   -180.79915    2.1804725    50.216478   0.11479432 
  198200   -944.24637    44.092559   -900.15381    1579.2356    814.02807    2.1720777     47.93386   0.12104692 
  198300   -951.84019    43.072526   -908.76766    1542.7017   -215.94982    2.1880132    47.789592   0.11578316 
  198400   -947.66257    42.589328   -905.07324    1525.3953    527.82625    2.1828361    49.060921   0.12174185 
  198500   -946.66158    45.978826   -900.68276    1646.7948    91.931194    2.1792157    54.164859   0.13464713 
  198600   -948.66076    42.388881   -906.27188     1518.216    829.32599    2.1866257    52.268207    0.1349677 
  198700   -952.25559    44.584757   -907.67083    1596.8643   -3525.6578    2.1842425    49.669794   0.13753746 
  198800   -945.37835    45.161384   -900.21697     1617.517   -1636.2344    2.1706462    49.641603   0.14786177 
  198900   -948.30681     44.24531    -904.0615    1584.7066   -235.62175    2.1819636     49.54691   0.12521081 
  199000   -951.36827    43.422441   -907.94583    1555.2344    2173.9318    2.1936091    46.205536   0.11155095 
  199100   -944.64009     46.27414   -898.36595    1657.3719   -3756.6371    2.1638699    45.884657   0.13531262 
  199200   -947.59709    44.714804   -902.88229    1601.5221   -325.28079    2.1781187    48.434915   0.12286953 
  199300   -950.83308    45.467017   -905.36606    1628.4637    3049.0043     2.194273    51.207642   0.11395408 
  199400    -943.8307    47.776406    -896.0543    1711.1776   -484.15824    2.1671465    51.554585   0.12105978 
  199500   -946.28591    44.893857   -901.39205    1607.9352   -4188.2837    2.1679807    48.724147   0.13030414 
  199600   -948.23885    43.178932   -905.05992    1546.5128     556.8424     2.181386    48.269184   0.13814007 
  199700   -946.09626    47.309142   -898.78712    1694.4419    5176.2837    2.1854069    50.158558    0.1396977 
  199800   -945.30866    46.387779   -898.92088     1661.442   -150.32655    2.1717374    52.473911   0.14310141 
  199900    -947.5878    41.543826   -906.04397    1487.9492   -3816.9335    2.1731597    52.098384   0.14732826 
  200000   -946.48811    45.264562   -901.22355    1621.2124    2977.3233    2.1851162    44.719101   0.11391454 
  200100   -947.17238    49.254751   -897.91763    1764.1266     5111.214    2.1897569    53.396416   0.12229564 
  200200   -950.14389    42.762754   -907.38113    1531.6068   -372.55944    2.1847653    54.783292    0.1287833 
  200300   -945.99004    42.151696   -903.83835    1509.7209   -9826.6552    2.1594419    51.480204    0.1285928 
  200400   -948.07019    48.027559   -900.04263     1720.173   -1593.8784    2.1779732    51.395132   0.13302004 
  200500   -950.79439    42.878295    -907.9161     1535.745    11226.584    2.2132934    48.558089   0.13630588 
  200600   -945.81626    41.296436   -904.51983    1479.0886   -1223.7936    2.1751483    48.868701   0.12652282 
  200700   -946.73911    45.484421   -901.25469     1629.087    -8325.574    2.1545026     48.14257   0.13761895 
  200800   -951.94598    47.051883   -904.89409    1685.2278    693.47666    2.1902032    47.524952   0.12703142 
  200900   -951.06294    43.442356   -907.62059    1555.9476    11598.477    2.2172684     49.11191   0.12822209 
  201000   -943.76969    44.756298    -899.0134    1603.0083   -5865.2905    2.1569023    49.210123   0.13010545 
  201100   -945.55439    41.568647   -903.98574    1488.8382   -10013.009    2.1494824    55.334474   0.12543311 
  201200   -951.26296    47.041848   -904.22112    1684.8684    5882.7316      2.19856     52.17855   0.11368502 
  201300   -942.06389    47.261553   -894.80233    1692.7374    9564.6888    2.1861346    54.292991    0.1343629 
  201400   -944.84128    42.821348   -902.01993    1533.7054   -2957.2848     2.165768    51.148111    0.1335325 
  201500   -950.29182    45.483085   -904.80873    1629.0392   -6923.1096    2.1677246    49.344054   0.13653785 
  201600   -946.19133    48.249395   -897.94193    1728.1184    2398.9865     2.180879    47.294081   0.13639306 
  201700   -949.17084    49.423749   -899.74709    1770.1794   -219.05957    2.1772851    46.246368   0.11524064 
  201800    -950.8026    45.439144   -905.36346    1627.4653    -3347.367    2.1748099    53.966675   0.12863775 
  201900   -945.83059    44.834086    -900.9965    1605.7944    375.17789    2.1761511     50.75927   0.11631473 
  202000   -942.77885     45.25974   -897.51911    1621.0398    3783.7538     2.174723    51.038485   0.13131704 
  202100   -952.02748    44.754608   -907.27287    1602.9478    1998.1806    2.1948174    48.413223   0.12205539 
  202200   -946.66115    43.252084   -903.40907    1549.1328   -2222.5925    2.1733268    47.866478   0.12025508 
  202300   -942.41456    42.147754   -900.26681    1509.5797   -786.34536    2.1683485    51.483669   0.14597233 
  202400   -953.43281     44.53415   -908.89866    1595.0518    2992.3216    2.2021945    49.270978   0.13745314 
  202500   -949.00126    43.478598   -905.52266    1557.2457    1308.7246    2.1866716     45.10334   0.11841602 
  202600   -947.13475    45.773426   -901.36132    1639.4381   -5153.1103      2.16735    48.030287   0.12747248 
  202700   -946.99671    41.907414   -905.08929    1500.9716   -392.38058    2.1768991    45.405049   0.12998108 
  202800   -950.36183    41.930537   -908.43129    1501.7998     6776.938     2.207018     48.62525   0.12845992 
  202900   -943.93842    44.113045   -899.82538    1579.9693     1144.525    2.1779449    53.105153   0.14448013 
  203000   -947.30276    43.775809   -903.52695    1567.8907   -10446.049    2.1538695    51.796004   0.12289874 
  203100   -950.23317    43.269601   -906.96357    1549.7602   -1463.8819    2.1828357    49.658996   0.11922177 
  203200   -946.07831    45.754317   -900.32399    1638.7537    16457.406    2.2148878    50.864239   0.13890362 
Loop time of 142.929 on 1 procs for 200000 steps with 217 atoms

Performance: 362.698 ns/day, 0.066 hours/ns, 1399.297 timesteps/s
100.0% CPU use with 1 MPI tasks x no OpenMP threads

MPI task timing breakdown:
Section |  min time  |  avg time  |  max time  |%varavg| %total
---------------------------------------------------------------
Pair    | 138.25     | 138.25     | 138.25     |   0.0 | 96.73
Neigh   | 1.5321     | 1.5321     | 1.5321     |   0.0 |  1.07
Comm    | 0.89745    | 0.89745    | 0.89745    |   0.0 |  0.63
Output  | 0.071926   | 0.071926   | 0.071926   |   0.0 |  0.05
Modify  | 1.8683     | 1.8683     | 1.8683     |   0.0 |  1.31
Other   |            | 0.3099     |            |       |  0.22

Nlocal:    217 ave 217 max 217 min
Histogram: 1 0 0 0 0 0 0 0 0 0
Nghost:    953 ave 953 max 953 min
Histogram: 1 0 0 0 0 0 0 0 0 0
Neighs:    4201 ave 4201 max 4201 min
Histogram: 1 0 0 0 0 0 0 0 0 0
FullNghs:  8402 ave 8402 max 8402 min
Histogram: 1 0 0 0 0 0 0 0 0 0

Total # of neighbors = 8402
Ave neighs/atom = 38.7189
Neighbor list builds = 2582
Dangerous builds = 21
Total wall time: 0:02:25
