LAMMPS (3 Mar 2020)

    # ---------- Initialize simulation ---------------------
    units metal
    atom_style atomic
    dimension  3
    boundary   p p p
    read_data /home/modeler/RemLabs/Lab4/Problem2A_v1_size_4/temp_2360/lammps.data
  orthogonal box = (0 0 0) to (16.36 16.36 16.36)
  1 by 1 by 1 MPI processor grid
  reading atoms ...
  256 atoms
  read_data CPU = 0.000984443 secs

    pair_style eam
    pair_coeff * * /usr/share/lammps-stable/potentials/Ag_u3.eam
Reading potential file /usr/share/lammps-stable/potentials/Ag_u3.eam with DATE: 2007-06-11

    velocity  all create 2360 87287 dist gaussian

    # ---------- Describe computed properties------------------
    compute msdall all msd
    thermo_style custom step pe ke etotal temp press density c_msdall[4]
    thermo 100

    # ---------- Specify ensemble  ---------------------
    #fix  1 all nve
    fix  1 all nvt temp 2360 2360 0.25

    # --------- Compute RDF ---------------
    compute rdfall all rdf 100 1 1
    fix 2 all ave/time 1 125000 125000 c_rdfall[*] file /home/modeler/RemLabs/Lab4/Problem2A_v1_size_4/temp_2360/lammps.rdf mode vector

    # --------- Run -------------
    timestep 0.005
    run 500000
Neighbor list info ...
  update every 1 steps, delay 10 steps, check yes
  max neighbors/atom: 2000, page size: 100000
  master list distance cutoff = 7.55
  ghost atom cutoff = 7.55
  binsize = 3.775, bins = 5 5 5
  2 neighbor lists, perpetual/occasional/extra = 1 1 0
  (1) pair eam, perpetual
      attributes: half, newton on
      pair build: half/bin/atomonly/newton
      stencil: half/bin/3d/newton
      bin: standard
  (2) compute rdf, occasional, copy from (1)
      attributes: half, newton on
      pair build: copy
      stencil: none
      bin: none
Per MPI rank memory allocation (min/avg/max) = 3.744 | 3.744 | 3.744 Mbytes
Step PotEng KinEng TotEng Temp Press Density c_msdall[4] 
       0       -729.6    77.788755   -651.81125         2360    18975.127    10.472245            0 
     100   -678.02874    50.940688   -627.08805    1545.4679    85265.407    10.472245   0.12104154 
     200   -657.23906    68.698484   -588.54057    2084.2141    118941.04    10.472245   0.21412654 
     300   -648.76149    89.137289    -559.6242    2704.2983    133066.34    10.472245   0.24056734 
     400   -650.70332    80.194298   -570.50902    2432.9807    127626.79    10.472245   0.24511979 
     500   -655.14484    76.476723   -578.66811    2320.1948    122366.21    10.472245   0.24904956 
     600   -648.34336    86.103634   -562.23973    2612.2616    132071.87    10.472245   0.23564494 
     700   -648.65838    80.258909   -568.39947     2434.941    131932.18    10.472245   0.28494607 
     800   -650.72382    75.171729   -575.55209    2280.6032    128806.45    10.472245   0.21747105 
     900    -652.8228    82.616589   -570.20621    2506.4696     127219.3    10.472245   0.21236427 
    1000   -647.00374    82.839913   -564.16382    2513.2449     133294.8    10.472245   0.27186452 
    1100   -660.91377    82.865601   -578.04816    2514.0243    116072.33    10.472245   0.19086573 
    1200   -647.36304    74.562715   -572.80032    2262.1265    132288.09    10.472245   0.25145058 
    1300   -644.75723    74.320083   -570.43715    2254.7654    135971.14    10.472245   0.22722966 
    1400   -656.82058     75.18687   -581.63371    2281.0625    119350.16    10.472245   0.17722782 
    1500   -657.64741    75.430061   -582.21735    2288.4406    119204.38    10.472245   0.16956955 
    1600   -646.96826    73.978377   -572.98988    2244.3985    132322.52    10.472245   0.23717824 
    1700   -652.36899    84.817541   -567.55145    2573.2434    126219.11    10.472245   0.22912814 
    1800   -657.85137    76.620785   -581.23058    2324.5654    117310.63    10.472245   0.20376944 
    1900   -651.50329    78.696735   -572.80655    2387.5468    129008.05    10.472245   0.20967394 
    2000    -649.3383    77.617252   -571.72105    2354.7968    129655.45    10.472245   0.27282896 
    2100    -642.8668     80.43902   -562.42778    2440.4052    138773.88    10.472245   0.31496856 
    2200   -644.84498    88.109993   -556.73498    2673.1316    137175.25    10.472245   0.32258785 
    2300   -650.53072    79.329476   -571.20125    2406.7433    127474.04    10.472245   0.23634796 
    2400   -647.28869    74.941929   -572.34676    2273.6313    133373.43    10.472245   0.29318206 
    2500   -646.66468     84.09323   -562.57145    2551.2688    136211.97    10.472245   0.26748607 
    2600   -648.84702    75.473683   -573.37334     2289.764    131645.86    10.472245   0.28346404 
    2700   -656.27368    83.986294   -572.28739    2548.0245    125660.87    10.472245   0.19006738 
    2800   -643.75547    72.724882   -571.03059    2206.3693    135554.67    10.472245    0.2588425 
    2900   -647.50546     77.28617   -570.21929    2344.7523    133443.31    10.472245   0.23266887 
    3000   -656.19872    75.112064   -581.08665     2278.793    121458.62    10.472245   0.22095444 
    3100   -644.87094    76.362502   -568.50844    2316.7295     136755.1    10.472245    0.2310441 
    3200   -646.79309    77.577477   -569.21562    2353.5901    133232.34    10.472245   0.23380434 
    3300   -649.86416     78.49103   -571.37313     2381.306    129179.18    10.472245   0.21129392 
    3400   -661.38557    76.880483   -584.50508    2332.4443    114380.29    10.472245   0.21277355 
    3500   -654.63778    79.819549   -574.81823    2421.6114    123462.66    10.472245   0.21730387 
    3600   -646.86527    78.425678    -568.4396    2379.3233    132852.74    10.472245   0.21296732 
    3700   -652.00952    71.195139   -580.81438    2159.9591    124652.79    10.472245   0.18745174 
    3800   -652.95819    79.032638   -573.92556    2397.7376    125602.02    10.472245   0.21851618 
    3900    -650.3249    81.285838   -569.03906    2466.0965    130841.19    10.472245   0.23190429 
    4000   -650.09611    72.116562   -577.97955    2187.9137    127499.17    10.472245   0.22030373 
    4100   -647.94599    83.776516   -564.16947    2541.6601    133843.25    10.472245   0.22054048 
    4200   -642.62301    72.955695   -569.66731    2213.3718    139219.52    10.472245   0.25415198 
    4300   -652.67661    73.040152   -579.63645    2215.9341    124332.71    10.472245   0.25861713 
    4400    -647.1073    67.373771   -579.73353    2044.0242    130317.49    10.472245   0.26542853 
    4500     -650.152    81.921866   -568.23013    2485.3927    130525.27    10.472245   0.24782896 
    4600   -648.44064    74.632125   -573.80851    2264.2323    131306.92    10.472245   0.22524895 
    4700   -654.20153    74.984878   -579.21665    2274.9343    123887.06    10.472245   0.21693519 
    4800   -638.39757    74.064481   -564.33309    2247.0108    142585.34    10.472245   0.37319928 
    4900   -647.92578    81.094755   -566.83102    2460.2993    131744.53    10.472245   0.26576603 
    5000   -651.14208    72.663796   -578.47829     2204.516    127247.04    10.472245   0.23148128 
    5100   -648.98506    76.907608   -572.07745    2333.2672    130407.21    10.472245    0.2264127 
    5200   -653.47617    85.063026   -568.41314     2580.691    126952.91    10.472245   0.18002148 
    5300   -651.50241    68.255665   -583.24674    2070.7796    126106.13    10.472245   0.20561299 
    5400   -649.41217    77.500463    -571.9117    2351.2536    130714.19    10.472245    0.2435423 
    5500   -649.13201    79.606802   -569.52521     2415.157    130940.09    10.472245   0.21031261 
    5600   -653.91636    74.251143   -579.66522    2252.6739    123589.42    10.472245   0.24074628 
    5700   -650.51087    83.692959   -566.81791    2539.1251    128544.28    10.472245   0.21042529 
    5800   -644.40678      73.0783   -571.32848    2217.0915    135810.64    10.472245    0.2950986 
    5900   -651.68263    76.498157   -575.18447    2320.8451     127087.5    10.472245   0.24533545 
    6000   -643.50712    79.418006   -564.08911    2409.4291    138904.17    10.472245    0.2798159 
    6100     -648.308    74.869893   -573.43811    2271.4459    131612.03    10.472245   0.24508069 
    6200   -646.45198    72.499556   -573.95243    2199.5332    132446.47    10.472245   0.24645519 
    6300   -648.01078    80.984981    -567.0258    2456.9689    133800.35    10.472245   0.28434964 
    6400   -640.88785    81.726487   -559.16136    2479.4652    140026.85    10.472245   0.24235843 
    6500   -650.16289    77.156712   -573.00618    2340.8247    128904.34    10.472245   0.22107954 
    6600    -654.2183    76.604751   -577.61355     2324.079    124160.04    10.472245   0.20910384 
    6700   -646.68691    73.931796   -572.75511    2242.9853    134112.41    10.472245   0.26037429 
    6800   -644.75396    77.946488   -566.80747    2364.7854    135816.77    10.472245   0.24727227 
    6900   -657.28066     77.04328   -580.23738    2337.3834    118924.93    10.472245   0.18958135 
    7000   -651.12006    74.189654   -576.93041    2250.8084    129925.33    10.472245   0.21664658 
    7100   -647.99335    79.416679   -568.57667    2409.3889    132620.86    10.472245   0.23680059 
    7200   -651.66803    76.937909   -574.73012    2334.1865    126732.14    10.472245     0.245029 
    7300   -651.11148    77.573506   -573.53797    2353.4696    126608.56    10.472245   0.22240075 
    7400   -638.64213     74.80171   -563.84042    2269.3773    141115.11    10.472245   0.33524112 
    7500   -647.04724    74.645929   -572.40132    2264.6511    132528.86    10.472245   0.24203598 
    7600   -651.90925    74.714411   -577.19483    2266.7288    127989.93    10.472245   0.24398159 
    7700   -647.52413    82.861437    -564.6627    2513.8979    133915.78    10.472245   0.22177358 
    7800   -646.85791    77.513451   -569.34445    2351.6477    133620.78    10.472245   0.25042101 
    7900   -646.01267    71.490497   -574.52217    2168.9198    134170.36    10.472245    0.2363175 
    8000   -656.29755    70.370156   -585.92739    2134.9303     121238.3    10.472245   0.18036009 
    8100   -652.93922    80.474188   -572.46504    2441.4722    125244.34    10.472245   0.20126105 
    8200   -650.97306    81.119875   -569.85318    2461.0614    129987.18    10.472245   0.20865083 
    8300   -647.64106    74.195415   -573.44564    2250.9832    130419.09    10.472245    0.3077979 
    8400   -649.94272    81.436644   -568.50607    2470.6717    131350.91    10.472245   0.20463938 
    8500   -643.32345    77.180892   -566.14256    2341.5583    142969.83    10.472245   0.23141698 
    8600   -653.54813     75.52107   -578.02706    2291.2017    125938.59    10.472245   0.23257502 
    8700   -646.40979    78.603086   -567.80671    2384.7056    134249.84    10.472245   0.26053616 
    8800   -638.91997    87.150649   -551.76932    2644.0265    144006.25    10.472245   0.23257209 
    8900   -643.72106    77.263866   -566.45719    2344.0756       137669    10.472245   0.33802671 
    9000   -647.47464     78.95106   -568.52358    2395.2627    132629.95    10.472245   0.28708683 
    9100   -648.28283    76.016918   -572.26591     2306.245    132255.64    10.472245   0.24575134 
    9200   -652.74582     73.24524   -579.50058    2222.1562    124990.06    10.472245    0.2009613 
    9300   -645.53033    80.076738   -565.45359    2429.4141    136284.18    10.472245   0.23616003 
    9400   -651.82357    79.038646   -572.78492    2397.9199     127133.5    10.472245   0.20695705 
    9500   -652.23004    74.195511   -578.03453    2250.9861    124255.88    10.472245   0.22969487 
    9600   -645.51034    72.949611   -572.56073    2213.1873    133490.25    10.472245   0.29747755 
    9700   -648.54051    82.081757   -566.45876    2490.2435    132890.11    10.472245   0.23158467 
    9800   -653.61482    80.369923    -573.2449     2438.309    126580.98    10.472245   0.20819234 
    9900   -653.76295    80.986703   -572.77625    2457.0212    124635.12    10.472245   0.22999681 
   10000   -644.96978    86.562466   -558.40731    2626.1819    139116.05    10.472245   0.26189673 
   10100   -645.14029    79.102483   -566.03781    2399.8566    135370.59    10.472245   0.23578697 
   10200   -657.13033    82.779079   -574.35125    2511.3993    121792.02    10.472245   0.21622968 
   10300   -647.29169     76.30733   -570.98436    2315.0557    132923.65    10.472245   0.21318675 
   10400   -646.72665     83.19191   -563.53474     2523.924    134486.76    10.472245   0.28408689 
   10500   -651.20435    76.203678   -575.00068     2311.911     128270.8    10.472245   0.22477222 
   10600   -657.13554    65.348624   -591.78691    1982.5841    116917.04    10.472245   0.21368931 
   10700   -652.24545    76.691336   -575.55411    2326.7059    126620.26    10.472245   0.21579777 
   10800   -652.65847     85.96109   -566.69738     2607.937    127951.09    10.472245   0.20427767 
   10900   -655.17369    76.332565   -578.84113    2315.8213    123394.33    10.472245   0.21363803 
   11000    -653.1462    75.889776   -577.25642    2302.3877    127185.76    10.472245   0.21015411 
   11100   -649.13126    79.868313   -569.26295    2423.0908    131952.79    10.472245   0.25288336 
   11200   -651.44714    76.686027   -574.76111    2326.5448    128837.28    10.472245   0.22604928 
   11300   -654.48213    78.371762   -576.11037    2377.6876    122254.93    10.472245   0.22710574 
   11400   -647.26462    82.194473   -565.07014    2493.6632    135575.37    10.472245    0.2655117 
   11500   -651.43966    77.199888   -574.23978    2342.1346    126264.71    10.472245   0.23894214 
   11600   -647.38919    63.909111   -583.48008    1938.9114    129929.58    10.472245   0.31824476 
   11700   -649.11464    81.428557   -567.68608    2470.4264    130665.29    10.472245   0.26834273 
   11800   -646.58923    77.191523   -569.39771    2341.8808    133338.12    10.472245   0.23961007 
   11900   -646.30704    65.992679   -580.31436    2002.1239    131921.91    10.472245   0.26413084 
   12000   -646.35293    81.516339   -564.83659    2473.0896    136559.48    10.472245   0.29009241 
   12100   -649.78265    78.231636   -571.55101    2373.4364    128735.47    10.472245   0.24498107 
   12200   -651.34737    76.070558   -575.27681    2307.8723    127919.91    10.472245   0.23620585 
   12300   -641.56387    81.957219   -559.60665    2486.4652    139813.09    10.472245   0.24670626 
   12400   -642.37098    73.607418   -568.76356    2233.1442    139201.77    10.472245   0.23872321 
   12500   -649.88419    74.513937   -575.37025    2260.6467    127138.82    10.472245   0.22943425 
   12600    -649.2514    87.090817   -562.16059    2642.2113     133801.1    10.472245   0.25604374 
   12700    -648.4761    86.692518   -561.78358    2630.1275    133105.44    10.472245   0.22862399 
   12800    -647.7422    73.352144   -574.39006    2225.3995    131656.89    10.472245   0.24667247 
   12900   -648.55278    73.307079    -575.2457    2224.0323    130420.35    10.472245   0.25966951 
   13000   -644.16929    81.474225   -562.69506    2471.8119    137521.83    10.472245   0.23918637 
   13100   -658.73582    83.887562   -574.84826    2545.0291    120414.01    10.472245   0.20029456 
   13200    -651.3559     76.89926   -574.45664     2333.014     128059.3    10.472245   0.20409519 
   13300   -646.20117    78.155274   -568.04589    2371.1197     132751.8    10.472245   0.24260102 
   13400   -635.86428     81.28898    -554.5753    2466.1918    147651.34    10.472245   0.32384353 
   13500   -648.44097    82.044433   -566.39653    2489.1112    131528.67    10.472245   0.30036505 
   13600   -649.58656    76.829116   -572.75745    2330.8859     127937.4    10.472245   0.24142475 
   13700   -651.69192    76.402013   -575.28991    2317.9282    125865.99    10.472245   0.22412635 
   13800    -640.4577     77.49025   -562.96746    2350.9438    141369.95    10.472245   0.28537552 
   13900   -652.50493    79.919042   -572.58589    2424.6299     126761.8    10.472245   0.21994483 
   14000   -650.20504    76.803367   -573.40167    2330.1047     130733.1    10.472245   0.24158011 
   14100   -642.90913    79.442299   -563.46683    2410.1662     138025.9    10.472245   0.26784039 
   14200   -640.82825    87.149258     -553.679    2643.9843    143698.06    10.472245   0.31373389 
   14300   -644.82902    78.454604   -566.37442    2380.2009    136225.43    10.472245   0.22268207 
   14400   -652.18971    75.095269   -577.09444    2278.2835    125585.66    10.472245     0.230393 
   14500    -646.0517    80.951847   -565.09986    2455.9637    133694.45    10.472245   0.21142455 
   14600   -647.13129    78.129016   -569.00228     2370.323    134204.51    10.472245   0.26455513 
   14700   -650.40524    78.544023   -571.86122    2382.9137    129152.95    10.472245   0.19733738 
   14800   -650.75984    77.771736    -572.9881    2359.4837     127087.7    10.472245   0.22105997 
   14900   -648.89401    78.467906    -570.4261    2380.6045    130564.47    10.472245   0.23091912 
   15000   -644.07625    79.410356    -564.6659    2409.1971    136977.26    10.472245   0.23249459 
   15100   -649.75815    73.527417   -576.23073    2230.7171    129272.14    10.472245   0.25192789 
   15200   -645.01979    80.660684   -564.35911    2447.1302    136320.35    10.472245   0.33331192 
   15300   -643.54901    77.915371   -565.63364    2363.8413       139942    10.472245   0.26509426 
   15400   -653.63489    77.479858   -576.15504    2350.6285    124632.67    10.472245    0.1911634 
   15500   -646.21987    80.639794   -565.58008    2446.4965    135032.35    10.472245   0.23544945 
   15600   -648.54081    81.901325   -566.63948    2484.7695     133179.9    10.472245   0.24878922 
   15700   -649.77365    74.555216   -575.21843     2261.899    128732.37    10.472245   0.23574839 
   15800   -648.29099    74.905553   -573.38544    2272.5278    130583.88    10.472245   0.23011575 
   15900   -642.12064    80.813154   -561.30749    2451.7559    140301.76    10.472245   0.26947033 
   16000   -643.58057    81.683136   -561.89744      2478.15    139141.07    10.472245   0.29170439 
   16100   -652.73251    80.450835   -572.28167    2440.7637    127231.13    10.472245   0.22722836 
   16200   -649.48507    72.098228   -577.38684    2187.3575       128956    10.472245   0.23733112 
   16300   -647.46156    81.261247   -566.20031    2465.3505    134523.84    10.472245   0.21288771 
   16400   -653.60721    81.639318   -571.96789    2476.8206    126879.71    10.472245   0.20913597 
   16500   -653.18888    73.947542   -579.24134    2243.4631    125097.15    10.472245   0.19794917 
   16600   -646.53607    75.999762   -570.53631    2305.7245    134028.55    10.472245   0.23090419 
   16700   -645.01004    82.367554   -562.64248    2498.9142    135366.97    10.472245   0.24951147 
   16800   -644.55773    74.167091   -570.39064    2250.1239    136559.43    10.472245   0.29155297 
   16900   -650.83928    74.508021   -576.33126    2260.4672     126226.2    10.472245    0.2077394 
   17000   -649.38562    81.226117    -568.1595    2464.2847    130307.72    10.472245   0.22511323 
   17100   -644.29345    76.915776   -567.37767    2333.5151    135446.21    10.472245   0.25293003 
   17200   -653.94486     73.22464   -580.72022    2221.5312    124341.97    10.472245    0.2233421 
   17300   -658.00317     84.17079   -573.83238    2553.6218    120811.81    10.472245   0.19617553 
   17400    -645.4693    78.455774   -567.01352    2380.2364    135908.57    10.472245   0.28665212 
   17500   -635.89539    87.774817   -548.12057    2662.9629    150070.67    10.472245   0.30746653 
   17600   -639.46339    76.770811   -562.69258     2329.117     142964.8    10.472245   0.34074858 
   17700    -654.3566    78.175972   -576.18063    2371.7476    123619.49    10.472245   0.22702462 
   17800   -649.21654    79.591889   -569.62465    2414.7045    128905.58    10.472245   0.27276447 
   17900   -643.97519    77.280632   -566.69456    2344.5843    137150.77    10.472245   0.27227103 
   18000   -645.77643    71.804781   -573.97165    2178.4548    132745.78    10.472245   0.23871509 
   18100   -652.49484    85.349224   -567.14562    2589.3739     127331.4    10.472245   0.21213255 
   18200   -649.32786    85.814762    -563.5131    2603.4976    131346.16    10.472245   0.21009286 
   18300    -649.9127    74.201753   -575.71095    2251.1755    129247.51    10.472245   0.23828647 
   18400   -645.84774    78.652852   -567.19489    2386.2155    136025.38    10.472245   0.25108105 
   18500    -648.8583    83.399383   -565.45892    2530.2184    134277.34    10.472245   0.28910238 
   18600   -643.58606    76.711124   -566.87493    2327.3062    138273.19    10.472245   0.27505411 
   18700   -648.19334    76.615997   -571.57734    2324.4202    132246.44    10.472245   0.23761276 
   18800   -651.48644    79.830383   -571.65606    2421.9401    129871.06    10.472245   0.21366926 
   18900    -651.5931    78.920159   -572.67294    2394.3252    127836.15    10.472245   0.23616091 
   19000   -646.37456    72.271161    -574.1034     2192.604    132191.63    10.472245   0.26239406 
   19100    -644.4262    77.385468   -567.04073    2347.7648    136840.31    10.472245    0.2727986 
   19200    -646.8531    80.746395    -566.1067    2449.7306    135512.25    10.472245   0.22333171 
   19300   -652.00808    76.208813   -575.79926    2312.0668    127518.15    10.472245   0.23151397 
   19400   -647.26751    82.227895   -565.03962    2494.6772    134752.16    10.472245   0.25053866 
   19500   -654.62423    75.521953   -579.10228    2291.2284    122312.33    10.472245   0.21754644 
   19600   -655.47976     78.77109   -576.70867    2389.8026    123582.23    10.472245   0.19450732 
   19700   -640.22471    73.063287   -567.16142     2216.636    140760.41    10.472245   0.29606383 
   19800   -646.78133    77.112127   -569.66921    2339.4721    133342.88    10.472245   0.30344163 
   19900   -656.60428    78.336339   -578.26794    2376.6129    121664.63    10.472245   0.19316207 
   20000   -648.42172    84.149447   -564.27227    2552.9743    132161.41    10.472245   0.23094907 
   20100   -645.40086    77.534872   -567.86599    2352.2976    136157.63    10.472245   0.22614658 
   20200   -651.69772    79.295005   -572.40271    2405.6975    126726.43    10.472245   0.26476412 
   20300   -647.50998    81.185502   -566.32448    2463.0524       133768    10.472245    0.2251445 
   20400   -639.27268    79.255666   -560.01702     2404.504    145650.45    10.472245   0.26995594 
   20500   -644.89729    70.276831   -574.62046    2132.0989    134889.54    10.472245   0.22322211 
   20600   -649.96637    78.279575    -571.6868    2374.8908    130205.75    10.472245   0.21230787 
   20700   -636.90523    76.360931    -560.5443    2316.6819    147870.84    10.472245   0.30949464 
   20800    -654.8053    79.009067   -575.79624    2397.0225    123866.08    10.472245    0.1888947 
   20900   -650.39295    77.332386   -573.06057    2346.1544    128800.34    10.472245   0.19907489 
   21000    -641.2008    79.409524   -561.79128    2409.1718    140804.43    10.472245    0.2187864 
   21100   -641.86833    76.871362   -564.99696    2332.1676    137707.15    10.472245   0.28074086 
   21200   -657.42513    82.496725   -574.92841    2502.8331    121517.04    10.472245   0.20504668 
   21300   -641.09754     69.31929   -571.77825    2103.0485    139656.06    10.472245    0.2793616 
   21400   -649.99206    83.533029   -566.45904    2534.2731    130910.67    10.472245    0.2521396 
   21500   -655.32802    79.281791   -576.04623    2405.2966     122212.5    10.472245   0.21533305 
   21600   -648.87699    75.722375   -573.15462     2297.309    129315.85    10.472245   0.25448682 
   21700   -641.43659    72.572517   -568.86407    2201.7468     138250.6    10.472245   0.28944655 
   21800   -644.84187    75.098739   -569.74313    2278.3887    135989.31    10.472245   0.26240654 
   21900   -644.03976     79.91408   -564.12568    2424.4793    138366.61    10.472245   0.29578668 
   22000   -642.31718    79.570742   -562.74644    2414.0629    140210.34    10.472245   0.30143929 
   22100   -656.64445    80.564554   -576.07989    2444.2138    122426.74    10.472245   0.24557066 
   22200   -646.76483    78.684822   -568.08001    2387.1854    131888.37    10.472245   0.23149202 
   22300   -648.65028    83.092358   -565.55792    2520.9037    132335.96    10.472245   0.25252282 
   22400   -651.20927     78.19357    -573.0157    2372.2815     126316.7    10.472245   0.23976715 
   22500    -652.9019    83.012038   -569.88986    2518.4669    127436.56    10.472245   0.22346535 
   22600   -643.60033    79.863851   -563.73648    2422.9555    136909.02    10.472245   0.28159023 
   22700    -650.8621    77.859654   -573.00244     2362.151    127584.39    10.472245   0.20700957 
   22800   -652.72281    80.662518   -572.06029    2447.1859    125488.78    10.472245   0.25465233 
   22900   -637.05957    81.577507   -555.48207    2474.9453    146857.82    10.472245   0.32115351 
   23000   -652.47039    86.523896    -565.9465    2625.0117    128012.43    10.472245   0.26454489 
   23100   -653.81738    77.831773   -575.98561    2361.3051    124612.49    10.472245   0.20725416 
   23200   -650.54811    80.292585   -570.25552    2435.9626    127492.25    10.472245   0.21376454 
   23300   -644.12259    79.125131   -564.99746    2400.5437    138041.62    10.472245   0.27482148 
   23400   -649.99898    75.466793   -574.53219     2289.555    127827.96    10.472245   0.20661595 
   23500   -651.65407    79.289803   -572.36426    2405.5396    126399.01    10.472245   0.23297015 
   23600   -646.00403    87.122539   -558.88149    2643.1737    136628.86    10.472245   0.21901213 
   23700   -655.56149    84.515869   -571.04562     2564.091    124040.22    10.472245   0.22315451 
   23800   -648.11656    69.584939   -578.53162    2111.1079    130037.72    10.472245   0.24168635 
   23900   -651.76132    78.587797   -573.17352    2384.2418    127577.19    10.472245    0.2204821 
   24000   -645.28796     78.87698   -566.41098    2393.0152    135350.79    10.472245   0.26637827 
   24100   -652.96516    72.220289   -580.74487    2191.0607    124647.86    10.472245   0.21694223 
   24200   -655.71253    77.203306   -578.50922    2342.2383    120955.23    10.472245   0.17371305 
   24300   -652.09299    80.736975   -571.35601    2449.4448    129365.59    10.472245   0.23186775 
   24400   -643.47108    84.541164   -558.92992    2564.8585    139567.28    10.472245   0.24843172 
   24500   -648.84421    82.571804   -566.27241    2505.1109     131616.8    10.472245   0.26681417 
   24600   -655.25268    81.793088   -573.45959    2481.4857    124250.59    10.472245   0.21187806 
   24700   -656.72352    81.701477   -575.02204    2478.7064    120294.87    10.472245   0.21599667 
   24800   -640.91572    78.711308   -562.20441    2387.9889    140225.51    10.472245   0.28016684 
   24900   -647.79029    72.776845   -575.01344    2207.9458    131074.46    10.472245   0.22848083 
   25000   -651.48119    78.479144   -573.00205    2380.9454    128015.66    10.472245   0.17955893 
   25100   -649.31286    83.518826   -565.79403    2533.8422    131235.84    10.472245   0.25128969 
   25200   -640.99671    82.765009    -558.2317    2510.9725    139726.03    10.472245   0.30432448 
   25300   -653.12863    79.816788   -573.31184    2421.5276    127005.02    10.472245   0.19779152 
   25400   -649.20452    73.164936   -576.03959    2219.7199    131280.07    10.472245   0.24881746 
   25500   -641.20917    79.863446   -561.34572    2422.9432    140816.51    10.472245   0.29348805 
   25600   -648.59849    79.067812   -569.53068    2398.8048    130343.53    10.472245   0.22464295 
   25700   -654.81919    79.472649   -575.34654    2411.0869    122617.27    10.472245   0.20927529 
   25800   -649.60797    82.244164    -567.3638    2495.1708    130551.76    10.472245   0.26173488 
   25900   -641.02253    83.262899   -557.75963    2526.0777    141745.74    10.472245    0.3237694 
   26000   -647.06773    79.235205   -567.83252    2403.8832    133819.29    10.472245   0.34049258 
   26100   -646.75357    77.912416   -568.84116    2363.7517    133751.72    10.472245   0.25417043 
   26200   -648.76432    74.259266   -574.50506    2252.9203     129859.6    10.472245   0.20428238 
   26300   -652.33298    71.775176    -580.5578    2177.5566    127116.48    10.472245   0.21516118 
   26400   -647.55945    76.861287   -570.69816    2331.8619    132338.33    10.472245   0.24568195 
   26500   -645.87811    74.083238   -571.79487    2247.5799    134191.07    10.472245   0.21584395 
   26600   -656.88699    71.395526   -585.49147    2166.0385    117562.59    10.472245   0.21723098 
   26700   -649.62131     79.05689   -570.56442    2398.4734    131074.73    10.472245   0.25412679 
   26800    -645.7682    76.241184   -569.52702    2313.0489    134142.85    10.472245   0.26691804 
   26900   -654.08335    71.873104   -582.21024    2180.5276    123966.38    10.472245   0.24786179 
   27000   -652.66925    79.195964   -573.47329    2402.6927    126294.87    10.472245   0.27248975 
   27100    -637.1488    70.753723   -566.39508    2146.5671    143027.55    10.472245   0.38501409 
   27200   -647.15804    84.928684   -562.22936    2576.6153    135904.65    10.472245   0.22727809 
   27300   -647.69451     74.67637   -573.01814    2265.5747     131427.1    10.472245   0.23189141 
   27400   -651.15652    76.974456   -574.18207    2335.2953    127917.91    10.472245   0.21804438 
   27500   -654.40094    82.922008   -571.47893    2515.7356       123777    10.472245   0.20209287 
   27600   -643.21361    75.375386   -567.83823    2286.7818    139464.12    10.472245   0.26706524 
   27700   -652.45059    79.567249   -572.88335     2413.957    125040.07    10.472245   0.21874851 
   27800   -654.71119    76.235198   -578.47599    2312.8673    122973.59    10.472245   0.19573499 
   27900   -648.13968    83.065831   -565.07385     2520.099    134753.65    10.472245   0.20156051 
   28000   -655.12323    80.257421   -574.86581    2434.8958    124632.18    10.472245   0.19270536 
   28100   -655.09468    78.191438   -576.90324    2372.2168     123788.4    10.472245   0.17454598 
   28200   -646.53766    82.260681   -564.27698    2495.6718    135481.83    10.472245   0.22986503 
   28300   -650.76335    73.915527   -576.84782    2242.4918    126690.59    10.472245   0.22071348 
   28400    -648.3229    75.520231   -572.80267    2291.1762    129612.19    10.472245   0.23930836 
   28500   -648.43655    79.178505   -569.25805     2402.163    132268.28    10.472245   0.26148025 
   28600   -645.91344    73.297614   -572.61583    2223.7452    133728.13    10.472245   0.27050977 
   28700   -655.79163    79.899105   -575.89253     2424.025    123332.42    10.472245   0.20761101 
   28800   -650.48706    84.811541   -565.67552    2573.0613    131005.97    10.472245    0.2505648 
   28900   -648.71484    79.319514   -569.39533     2406.441    130572.02    10.472245   0.25845737 
   29000   -650.63275    80.041858   -570.59089    2428.3559    129640.36    10.472245   0.24934942 
   29100    -647.8668    85.969826   -561.89697     2608.202     134982.8    10.472245   0.27977633 
   29200   -652.29295    76.706757   -575.58619    2327.1737    125831.88    10.472245   0.24570834 
   29300   -647.36365    76.037073   -571.32658    2306.8565    130803.74    10.472245   0.22854693 
   29400   -639.02496    84.142843   -554.88212     2552.774    145778.55    10.472245   0.28853226 
   29500   -645.08739    79.283161   -565.80423    2405.3381    137794.78    10.472245   0.22216219 
   29600    -650.9632    74.830789   -576.13241    2270.2595    127986.22    10.472245   0.23338178 
   29700    -653.3893      84.1522    -569.2371    2553.0579    125656.35    10.472245   0.22607592 
   29800   -645.22311    79.881565   -565.34155    2423.4929    136108.16    10.472245   0.21770862 
   29900   -648.18364    75.313983   -572.86966    2284.9189    130895.67    10.472245   0.23412155 
   30000    -649.7581    77.825654   -571.93245    2361.1195    130639.34    10.472245   0.22485514 
   30100   -648.82773     86.47603    -562.3517    2623.5595    130088.86    10.472245   0.25180755 
   30200   -644.14211    75.467315   -568.67479    2289.5708    135962.65    10.472245   0.31526606 
   30300    -656.9753    77.825127   -579.15018    2361.1035    119410.47    10.472245   0.22247653 
   30400   -648.82471    85.056242   -563.76847    2580.4852    131475.35    10.472245   0.20351852 
   30500   -655.65535      83.3377   -572.31765    2528.3471     122692.5    10.472245   0.20678436 
   30600   -653.76666    76.679451   -577.08721    2326.3453    123374.73    10.472245   0.20634061 
   30700   -643.46156    82.666211   -560.79535    2507.9751    139404.93    10.472245   0.26755464 
   30800   -651.68412    79.794602   -571.88952    2420.8545    128679.29    10.472245   0.26121297 
   30900   -641.40179    71.096145   -570.30564    2156.9557    138961.71    10.472245   0.25088338 
   31000   -640.25337    81.043728   -559.20964    2458.7512    141451.97    10.472245   0.27120459 
   31100   -647.66537      76.3592   -571.30617    2316.6293     132608.5    10.472245    0.2379294 
   31200   -653.88651    81.581039   -572.30547    2475.0525    127482.43    10.472245   0.19618045 
   31300   -643.77337    79.318938   -564.45443    2406.4236    138589.41    10.472245   0.23927097 
   31400   -651.74941    76.821894   -574.92752    2330.6668     128056.3    10.472245    0.2304705 
   31500   -650.89752    77.741396   -573.15613    2358.5632    127638.81    10.472245   0.19673466 
   31600   -650.46642    83.054382   -567.41204    2519.7516    130394.31    10.472245   0.22401477 
   31700   -653.66482    73.035545   -580.62927    2215.7944    124650.13    10.472245   0.18741786 
   31800    -649.3692    78.153271   -571.21592    2371.0589     129141.8    10.472245   0.21728338 
   31900   -649.33892    78.714219    -570.6247    2388.0772    131059.05    10.472245   0.20359593 
   32000   -653.88498    76.781765   -577.10321    2329.4494    123751.16    10.472245   0.20244687 
   32100   -656.00645    70.030976   -585.97547      2124.64    119965.78    10.472245   0.19745935 
   32200   -649.88208    79.468964   -570.41311    2410.9751    129547.19    10.472245   0.25162439 
   32300   -640.99463    75.774436   -565.22019    2298.8884     139987.7    10.472245   0.35163006 
   32400   -636.22942     83.77098   -552.45844    2541.4922    149625.86    10.472245    0.2891751 
   32500   -648.79764    80.221725   -568.57591    2433.8128    130974.94    10.472245   0.32253531 
   32600   -649.56115    78.944886   -570.61626    2395.0753    131734.27    10.472245   0.23604265 
   32700   -656.16583    81.018659   -575.14717    2457.9907    122369.18    10.472245   0.24694301 
   32800   -641.35956    78.077561     -563.282     2368.762    140988.06    10.472245   0.26977847 
   32900   -651.94784     80.62298   -571.32486    2445.9863    127759.43    10.472245   0.22379683 
   33000   -652.49349    66.980608   -585.51288    2032.0962     124394.5    10.472245   0.26355264 
   33100    -647.5309    71.748679   -575.78222    2176.7527    130894.15    10.472245      0.24839 
   33200   -645.37056    75.818598   -569.55196    2300.2282    133969.18    10.472245   0.27751554 
   33300   -645.22833    78.151752   -567.07658    2371.0128     135622.3    10.472245    0.2389833 
   33400   -649.64331    69.611041   -580.03227    2111.8998    127240.35    10.472245   0.24068577 
   33500   -644.97035    74.380911   -570.58944    2256.6109    135743.41    10.472245   0.24397131 
   33600   -646.54824    78.499263   -568.04898    2381.5558    133363.46    10.472245   0.27608879 
   33700   -650.63119    75.339053   -575.29213    2285.6795    129152.36    10.472245   0.22045919 
   33800   -650.62366     72.87836    -577.7453    2211.0256    127372.87    10.472245   0.23580764 
   33900   -648.28058    79.628022   -568.65256    2415.8007    131924.46    10.472245    0.2351328 
   34000   -653.10498    76.695773    -576.4092    2326.8405    125831.46    10.472245   0.24535712 
   34100   -654.40004    72.159561   -582.24048    2189.2183    121440.82    10.472245   0.20804523 
   34200   -647.77713    79.808439    -567.9687    2421.2743    131286.07    10.472245   0.24960117 
   34300   -646.92652    79.359508   -567.56701    2407.6544    132846.85    10.472245   0.28940374 
   34400   -648.71976    77.072703   -571.64706     2338.276    131886.04    10.472245   0.27352623 
   34500   -649.49696    74.741489   -574.75547    2267.5503    128908.91    10.472245   0.24176624 
   34600   -644.34044    80.303455   -564.03698    2436.2924    136888.36    10.472245   0.27222401 
   34700   -644.65938    74.787204   -569.87217    2268.9372    135127.21    10.472245   0.23324027 
   34800   -651.50741    75.240923   -576.26649    2282.7024    126368.02    10.472245   0.24358297 
   34900   -646.29896    80.355957   -565.94301    2437.8853    133758.25    10.472245    0.2441727 
   35000   -645.23336    72.415833   -572.81753    2196.9932    133657.83    10.472245   0.31791253 
   35100   -647.94487    75.500157   -572.44471    2290.5672     131066.2    10.472245   0.25792027 
   35200   -644.28263    80.736971   -563.54566    2449.4447    136297.78    10.472245   0.28700922 
   35300   -645.59888    78.958822   -566.64006    2395.4982     135911.8    10.472245    0.2452137 
   35400   -651.09572    75.110692   -575.98503    2278.7514    128448.12    10.472245    0.1993133 
   35500   -652.62122    80.995855   -571.62537    2457.2988    127714.76    10.472245   0.22897194 
   35600   -643.66036    79.647181   -564.01318     2416.382    137092.86    10.472245   0.24891544 
   35700   -658.70873    80.206522   -578.50221    2433.3516    119019.31    10.472245   0.18868689 
   35800   -651.53937    80.948644   -570.59073    2455.8665    128465.61    10.472245   0.22906753 
   35900   -650.63248    84.773583    -565.8589    2571.9097    130058.36    10.472245   0.24178443 
   36000    -655.4069    76.424172   -578.98273    2318.6005    122157.83    10.472245   0.22469854 
   36100    -646.7332    76.410871   -570.32233    2318.1969    133928.04    10.472245   0.25159002 
   36200   -648.68152    82.012508   -566.66901    2488.1426    131689.41    10.472245   0.21770659 
   36300   -649.74789    75.701992    -574.0459    2296.6906    128625.63    10.472245   0.23995235 
   36400    -645.4956    78.492532   -567.00307    2381.3516    135794.06    10.472245    0.2312209 
   36500    -646.2083    80.029793   -566.17851    2427.9899    135321.29    10.472245   0.22631977 
   36600    -651.5575    75.357277   -576.20022    2286.2324    126219.61    10.472245   0.22383625 
   36700   -651.41931    82.679594   -568.73971    2508.3811    127819.89    10.472245   0.26085064 
   36800   -644.26542    87.563346   -556.70208    2656.5471    138632.28    10.472245   0.23382132 
   36900   -651.65872    83.678843   -567.97987    2538.6969     129146.6    10.472245   0.21404856 
   37000   -653.09627    76.526877   -576.56939    2321.7164    125377.44    10.472245   0.22506012 
   37100   -650.44711    87.295081   -563.15203    2648.4084     131482.5    10.472245   0.22219286 
   37200   -646.85593     79.32996   -567.52597     2406.758    133052.82    10.472245   0.23493911 
   37300   -650.27551     77.96604   -572.30947    2365.3786     129560.9    10.472245   0.24981535 
   37400    -648.8346    81.900856   -566.93375    2484.7553    133230.49    10.472245   0.23604927 
   37500   -643.38182    79.668239   -563.71358    2417.0209    137621.29    10.472245    0.2204295 
   37600   -651.12821    75.287198   -575.84102    2284.1063    127552.06    10.472245    0.2541278 
   37700   -642.90448    77.992931   -564.91155    2366.1944    136791.62    10.472245    0.2389238 
   37800   -651.69553    74.318059   -577.37747     2254.704    125111.63    10.472245   0.21240841 
   37900   -650.39022    74.839479   -575.55074    2270.5231     127864.9    10.472245    0.2247628 
   38000   -651.03479    84.162728   -566.87206    2553.3772    129371.04    10.472245    0.2057647 
   38100    -655.5599    71.653837   -583.90607    2173.8753    123003.75    10.472245   0.20988115 
   38200   -651.28612    76.835791   -574.45033    2331.0884    127331.04    10.472245   0.26056397 
   38300   -642.44498    75.087447   -567.35753    2278.0462    136048.08    10.472245   0.26197016 
   38400   -654.12875    73.884786   -580.24397    2241.5591    123343.61    10.472245   0.22213781 
   38500   -648.90308    74.316839   -574.58624     2254.667     130421.4    10.472245    0.1979428 
   38600   -654.58668    84.827446   -569.75923    2573.5439    127500.68    10.472245   0.19572684 
   38700   -647.62227    71.007154   -576.61511    2154.2559     130636.1    10.472245   0.23782176 
   38800   -642.54451    75.841386   -566.70312    2300.9196    138965.12    10.472245   0.26235789 
   38900   -641.92497     74.94121   -566.98376    2273.6095    139650.08    10.472245   0.24787507 
   39000   -651.06357    76.265376   -574.79819    2313.7828    128670.85    10.472245    0.2317857 
   39100   -654.17312    86.654346   -567.51878    2628.9694    126254.25    10.472245   0.18597961 
   39200   -648.84695    77.875449    -570.9715    2362.6302    130332.01    10.472245   0.25272468 
   39300   -657.74251    79.136786   -578.60573    2400.8973    119414.35    10.472245   0.22692364 
   39400   -650.87787    82.220639   -568.65723    2494.4571    129184.15    10.472245   0.22810352 
   39500    -654.1186    85.778557   -568.34004    2602.3992    127198.11    10.472245   0.22247651 
   39600   -651.11199    71.492153   -579.61983    2168.9701    126139.14    10.472245   0.24403391 
   39700   -649.67446    75.570748   -574.10372    2292.7088    128805.95    10.472245   0.25519418 
   39800    -651.9159    83.386588   -568.52931    2529.8303     129044.9    10.472245   0.24625002 
   39900   -655.60792    80.154384   -575.45353    2431.7698    123320.08    10.472245   0.23832132 
   40000   -652.75491    73.240219   -579.51469    2222.0039    124078.93    10.472245   0.21690122 
   40100   -645.14281    79.085375   -566.05743    2399.3376    134842.39    10.472245   0.26786804 
   40200   -650.49335    73.802704   -576.69065    2239.0689    129607.32    10.472245   0.22121221 
   40300   -643.73475     76.51146   -567.22329    2321.2487    135442.82    10.472245   0.26098464 
   40400   -645.03589     75.98686   -569.04903    2305.3331    134339.03    10.472245   0.29012094 
   40500   -650.38849    77.507724   -572.88076    2351.4739    129764.23    10.472245   0.20612614 
   40600   -653.97071    74.060802   -579.90991    2246.8992    121298.69    10.472245    0.2182121 
   40700   -645.29384    78.080821   -567.21301    2368.8609     135269.1    10.472245   0.26476907 
   40800   -645.04733    76.964663   -568.08266    2334.9982    134983.51    10.472245    0.2536631 
   40900   -652.04576    78.021887   -574.02387    2367.0729    126056.79    10.472245   0.23709899 
   41000   -650.78501    78.484685   -572.30032    2381.1135     127514.7    10.472245    0.2317658 
   41100   -648.55125    83.496014   -565.05523    2533.1501    131692.13    10.472245   0.20825247 
   41200   -646.70095    72.481587   -574.21937    2198.9881    130982.67    10.472245   0.25509298 
   41300   -653.59643    78.517639   -575.07879    2382.1133    124982.45    10.472245   0.20723308 
   41400   -643.34003    82.759627   -560.58041    2510.8092    140031.39    10.472245   0.22636435 
   41500   -638.82745    77.067512   -561.75994    2338.1185    143183.07    10.472245   0.30824936 
   41600   -651.46731    79.455966   -572.01134    2410.5808    128853.77    10.472245   0.25249686 
   41700   -651.79774    81.324043    -570.4737    2467.2556    127520.87    10.472245   0.24837062 
   41800   -644.65616    81.873388   -562.78278    2483.9219    137192.98    10.472245   0.27591062 
   41900   -649.06806    74.730928   -574.33713    2267.2299    127869.71    10.472245   0.24166738 
   42000   -649.05774    76.604026   -572.45372     2324.057    130483.09    10.472245   0.21362464 
   42100   -646.32659    77.554115   -568.77248    2352.8814    132356.92    10.472245   0.25306205 
   42200   -649.95814    86.150302   -563.80784    2613.6774    132409.85    10.472245   0.21570239 
   42300   -654.68281    78.852367   -575.83044    2392.2685    124572.92    10.472245   0.23468832 
   42400   -645.71599    78.537403   -567.17859    2382.7129    133542.29    10.472245   0.25918909 
   42500   -648.28221    86.102644   -562.17956    2612.2315    132818.66    10.472245   0.20204459 
   42600   -650.55454    76.881664   -573.67287    2332.4802    128477.19    10.472245   0.22514179 
   42700   -651.69895    79.838386   -571.86056    2422.1829    127609.86    10.472245   0.24663508 
   42800   -642.59566    82.585565    -560.0101    2505.5284     139679.9    10.472245   0.29800078 
   42900   -652.73007    81.193546   -571.53652    2463.2965    127738.94    10.472245   0.20654966 
   43000   -649.72008    78.018412   -571.70167    2366.9675    129806.83    10.472245   0.23987173 
   43100   -645.38026    86.897793   -558.48246    2636.3552    138558.56    10.472245   0.23428158 
   43200   -652.51437    80.475739   -572.03863    2441.5193    127304.41    10.472245   0.19589705 
   43300   -648.37045    75.030887   -573.33956    2276.3302    130913.32    10.472245   0.23485136 
   43400   -647.20595    84.981881   -562.22407    2578.2292    133069.72    10.472245   0.24709034 
   43500   -651.34502    81.981336   -569.36368    2487.1969    129225.58    10.472245   0.24577151 
   43600   -648.64172    75.153697   -573.48802    2280.0561    130562.84    10.472245   0.23407235 
   43700   -646.52127     82.46597    -564.0553       2501.9    133234.83    10.472245   0.23402602 
   43800   -648.37392    73.024993   -575.34893    2215.4742    129268.88    10.472245   0.23464774 
   43900     -651.758    75.539662   -576.21833    2291.7657    126556.24    10.472245   0.23977429 
   44000   -644.01276    79.495946   -564.51681    2411.7937    138263.98    10.472245   0.29631741 
   44100   -647.50272    74.816511   -572.68621    2269.8264     130398.6    10.472245   0.26738197 
   44200   -652.03057    70.786673    -581.2439    2147.5668    125972.85    10.472245   0.25848173 
   44300   -642.62712    71.090564   -571.53655    2156.7864    136840.14    10.472245    0.2995362 
   44400   -645.64776    80.772446   -564.87531    2450.5209    136839.24    10.472245   0.25974465 
   44500   -653.45366    78.990271   -574.46339    2396.4523    125360.36    10.472245   0.22449659 
   44600    -662.9366    80.937593   -581.99901    2455.5312    113893.13    10.472245   0.16283802 
   44700   -642.28756    76.328559     -565.959    2315.6997    138376.13    10.472245   0.30459271 
   44800   -652.22504    79.048011   -573.17703     2398.204    126336.13    10.472245   0.23279416 
   44900   -651.90092    73.612657   -578.28827    2233.3031    126861.32    10.472245   0.21023278 
   45000   -647.71812    79.080912   -568.63721    2399.2022    131916.78    10.472245   0.22060396 
   45100   -647.60788    75.347312   -572.26057    2285.9301     131836.6    10.472245   0.23148199 
   45200   -653.99423     77.62442   -576.36981    2355.0143    124083.25    10.472245   0.21636083 
   45300   -648.40078    80.881305   -567.51948    2453.8236    132899.66    10.472245   0.21939693 
   45400    -648.9928    79.540017   -569.45278    2413.1308    133626.94    10.472245   0.21458764 
   45500   -650.99033    74.670894   -576.31943    2265.4085    128036.12    10.472245   0.23670105 
   45600    -644.6144    78.075233   -566.53917    2368.6913    136772.56    10.472245   0.27292981 
   45700    -650.6591    82.973002   -567.68609    2517.2826    130213.38    10.472245   0.20014716 
   45800   -648.27713    74.984988   -573.29214    2274.9377     132351.6    10.472245   0.21807879 
   45900   -650.00472    84.558111   -565.44661    2565.3726    131055.07    10.472245   0.20430625 
   46000   -648.43992    71.059762   -577.38015    2155.8519    129980.34    10.472245   0.21978313 
   46100   -651.19193    76.784976   -574.40695    2329.5468    127479.43    10.472245   0.23945291 
   46200   -651.48884    83.354927   -568.13391    2528.8697    128225.94    10.472245   0.23214757 
   46300   -645.63849    70.314891    -575.3236    2133.2536    133803.36    10.472245   0.27888114 
   46400   -644.00922    85.352674   -558.65654    2589.4785    139013.58    10.472245   0.22175869 
   46500   -643.74162    75.337023   -568.40459    2285.6179    137064.34    10.472245   0.26992057 
   46600   -652.10367    77.079166   -575.02451    2338.4721    126805.86    10.472245   0.19621197 
   46700   -654.85393     72.45789   -582.39604    2198.2692    121923.07    10.472245   0.27276839 
   46800   -644.69005    77.884139   -566.80592    2362.8938    135349.42    10.472245   0.24161645 
   46900   -650.74516    76.666275   -574.07889    2325.9456    127146.41    10.472245    0.2277333 
   47000   -656.75687     78.87471   -577.88216    2392.9463    121295.75    10.472245   0.18897072 
   47100   -653.23562    80.236435   -572.99918    2434.2591    124988.41    10.472245    0.1876253 
   47200   -644.52312    80.194007   -564.32912    2432.9719     138574.9    10.472245   0.25199668 
   47300   -643.04487    79.118421   -563.92645    2400.3402    139385.94    10.472245   0.27458346 
   47400   -647.49015    76.037302   -571.45285    2306.8634    132731.75    10.472245   0.21970954 
   47500   -652.88325    77.713457   -575.16979    2357.7156    125600.98    10.472245   0.22863446 
   47600   -642.88046      76.2348   -566.64566    2312.8552    136556.66    10.472245   0.27079712 
   47700   -641.30071    77.634758   -563.66595    2355.3279    141687.59    10.472245    0.2612162 
   47800   -650.51355    74.681807   -575.83174    2265.7396    129408.71    10.472245   0.24603161 
   47900   -650.10893    79.676731    -570.4322    2417.2785    128771.06    10.472245   0.24504197 
   48000   -640.24624    76.726274   -563.51997    2327.7658    140853.08    10.472245   0.26562682 
   48100   -647.82355    78.900667   -568.92288    2393.7338    132353.95    10.472245   0.27150728 
   48200   -654.98539     73.20324   -581.78215     2220.882    121694.09    10.472245   0.24426823 
   48300   -653.18763    75.656564   -577.53106    2295.3123    123992.04    10.472245   0.23101977 
   48400   -647.48149    78.584289    -568.8972    2384.1354    134490.21    10.472245   0.28709462 
   48500   -641.29884    76.681443    -564.6174    2326.4057    140626.09    10.472245   0.34977646 
   48600   -647.61392    84.279885   -563.33404    2556.9316    133932.57    10.472245   0.25542217 
   48700   -651.09146     75.54774   -575.54372    2292.0108    126988.59    10.472245   0.22398181 
   48800   -648.04701    81.394638   -566.65237    2469.3973    132144.64    10.472245   0.22039021 
   48900    -642.7467    74.316961   -568.42974    2254.6707    138641.02    10.472245   0.25852116 
   49000   -650.03399    72.254555   -577.77944    2192.1002    127207.63    10.472245   0.23522738 
   49100   -644.47584    77.513898   -566.96194    2351.6612    136203.51    10.472245   0.27545336 
   49200   -644.13508    83.763258   -560.37182    2541.2579    139590.08    10.472245   0.24400068 
   49300   -651.50538    76.952802   -574.55258    2334.6384    126436.68    10.472245   0.24548985 
   49400   -652.14794    85.491604   -566.65633    2593.6935    129183.48    10.472245   0.20022859 
   49500   -643.16553    79.781251   -563.38428    2420.4495    138925.62    10.472245   0.27140942 
   49600   -650.19628    73.022937   -577.17334    2215.4119    127587.31    10.472245   0.25316341 
   49700   -646.24197    79.413556   -566.82841    2409.2941    134784.51    10.472245   0.26425628 
   49800   -640.44632    79.378788   -561.06753    2408.2393    142824.49    10.472245   0.26420984 
   49900   -643.98312    72.329364   -571.65375    2194.3699    136215.17    10.472245   0.25389984 
   50000   -649.66899    72.177752   -577.49124    2189.7702    131207.02    10.472245   0.23170636 
   50100   -640.66781    74.228739   -566.43907    2251.9942    138959.84    10.472245   0.25865454 
   50200    -647.1171    76.991973   -570.12513    2335.8268    132099.35    10.472245   0.23863243 
   50300   -654.07474    79.993473   -574.08127     2426.888    123934.59    10.472245    0.2718353 
   50400   -643.78817    74.572809   -569.21537    2262.4328    139160.36    10.472245   0.27324957 
   50500   -645.06769    84.708859   -560.35883    2569.9461    137418.74    10.472245   0.23069575 
   50600   -647.64413    73.389727   -574.25441    2226.5398    131773.05    10.472245   0.24784159 
   50700   -654.72336    81.127099   -573.59626    2461.2806    122044.76    10.472245   0.20848209 
   50800   -640.33201    79.551416   -560.78059    2413.4766    141878.73    10.472245   0.24523055 
   50900   -650.34221    78.274974   -572.06723    2374.7512     129344.1    10.472245   0.22285617 
   51000   -643.26858    69.614003   -573.65458    2111.9897    136705.56    10.472245    0.2625268 
   51100    -644.4017    85.481613   -558.92009    2593.3903    138816.26    10.472245   0.26998553 
   51200   -646.75358    79.807975   -566.94561    2421.2602    133614.24    10.472245   0.23776704 
   51300   -651.70458    78.359024   -573.34555    2377.3011    127965.08    10.472245   0.24074586 
   51400   -653.59522    79.002175   -574.59304    2396.8134    126057.65    10.472245   0.21438656 
   51500   -643.84339    80.346634   -563.49676    2437.6024    138719.62    10.472245   0.26023868 
   51600   -653.28287    78.865973    -574.4169    2392.6813    124540.01    10.472245   0.22364913 
   51700    -650.3751    75.174576   -575.20052    2280.6895    129726.55    10.472245   0.26274279 
   51800   -647.34471    79.092175   -568.25253    2399.5439    134171.79    10.472245   0.24593763 
   51900   -645.10238    71.113321   -573.98906    2157.4768    136090.89    10.472245   0.26275653 
   52000    -657.0522    72.926452   -584.12575    2212.4846    118116.35    10.472245   0.20925805 
   52100   -649.91952    79.745508   -570.17401    2419.3651    130137.43    10.472245   0.26848192 
   52200   -649.78139    80.864367   -568.91702    2453.3097    130861.79    10.472245   0.25939247 
   52300   -649.88166    67.452845   -582.42882    2046.4232    126889.95    10.472245   0.25384272 
   52400   -652.56415    80.268085   -572.29607    2435.2193    126499.36    10.472245   0.23105989 
   52500   -648.28142    78.033468   -570.24795    2367.4242    130228.66    10.472245   0.22696793 
   52600   -654.66532    75.423576   -579.24174    2288.2438    122057.05    10.472245   0.21169401 
   52700   -655.27986    80.283356    -574.9965    2435.6826    124818.76    10.472245   0.19215554 
   52800   -643.68298    79.259738   -564.42324    2404.6275    138050.91    10.472245   0.28853654 
   52900   -652.13162    75.443093   -576.68853     2288.836    125702.07    10.472245   0.23246954 
   53000   -649.42778    76.628179    -572.7996    2324.7898     130261.8    10.472245   0.24890927 
   53100   -646.72499    79.148765   -567.57623    2401.2608    133274.45    10.472245   0.29583078 
   53200   -649.80454    81.425333   -568.37921    2470.3286    128992.61    10.472245   0.25020119 
   53300   -652.38005    71.474925   -580.90512    2168.4474    124804.47    10.472245   0.21995475 
   53400   -650.83533    82.169186   -568.66615     2492.896    128537.71    10.472245   0.27682749 
   53500   -652.13907    85.633743   -566.50533    2598.0058    127258.74    10.472245   0.24545681 
   53600   -650.46393    70.632311   -579.83162    2142.8837    126786.12    10.472245   0.25888746 
   53700   -654.74667     86.52981   -568.21686    2625.1911    126489.43    10.472245   0.20701226 
   53800   -645.49095    70.932359   -574.55859    2151.9867    133127.84    10.472245   0.30991576 
   53900   -654.16816    72.856874   -581.31128    2210.3738    124616.16    10.472245   0.21986765 
   54000   -645.31187    78.404378    -566.9075    2378.6771    134248.03    10.472245   0.29264639 
   54100   -645.78226    76.344227   -569.43804    2316.1751    134754.19    10.472245   0.26622617 
   54200   -655.30871    73.197078   -582.11164    2220.6951    121117.15    10.472245   0.22359439 
   54300   -648.10492    76.254441   -571.85048    2313.4511    131999.38    10.472245    0.2542211 
   54400   -652.14609     81.73352   -570.41257    2479.6785    127415.96    10.472245    0.2208016 
   54500   -660.63133    77.885016   -582.74631    2362.9204    114946.39    10.472245   0.21263906 
   54600    -647.7498    78.030423   -569.71938    2367.3318    131041.72    10.472245   0.28826035 
   54700   -642.40081     76.25315   -566.14766    2313.4119    137943.57    10.472245    0.2700689 
   54800   -649.14464    74.033289   -575.11135    2246.0645    130483.87    10.472245   0.22534805 
   54900   -650.49786    66.854111   -583.64375    2028.2585    125665.78    10.472245   0.21416903 
   55000   -649.23445    77.867256    -571.3672    2362.3816    128511.81    10.472245   0.23077148 
   55100   -648.79805     81.36006   -567.43799    2468.3483    130937.68    10.472245   0.23634864 
   55200   -649.67192    71.761307   -577.91061    2177.1358    126898.44    10.472245   0.26142654 
   55300   -638.30948    77.543152   -560.76633    2352.5488     143569.5    10.472245   0.26220028 
   55400   -647.24833    76.001254   -571.24708    2305.7698    133269.96    10.472245   0.27891169 
   55500   -645.57523    74.460742   -571.11448    2259.0328    134132.64    10.472245   0.26234402 
   55600   -644.19539    83.898313   -560.29708    2545.3553    138012.66    10.472245   0.24817102 
   55700   -653.14474    81.386371   -571.75837    2469.1465    126301.63    10.472245   0.19479173 
   55800   -655.41942    78.453168   -576.96625    2380.1573    122161.08    10.472245   0.20280052 
   55900   -650.49853    76.565698   -573.93283    2322.8942    128564.78    10.472245   0.25987671 
   56000   -641.74282    76.677704   -565.06512    2326.2923    139726.61    10.472245   0.29344731 
   56100   -648.85329    72.122612   -576.73068    2188.0973    129735.83    10.472245   0.25120375 
   56200   -647.46901    75.927506    -571.5415    2303.5324    131400.58    10.472245    0.2321235 
   56300   -644.15847    80.720494   -563.43797    2448.9448    138608.55    10.472245    0.2712529 
   56400    -648.5985    71.426335   -577.17216    2166.9732    130418.64    10.472245   0.22121807 
   56500   -647.49333    74.782148   -572.71118    2268.7838    131528.04    10.472245    0.2196298 
   56600   -641.06583    87.035833      -554.03    2640.5432    142712.72    10.472245   0.27211488 
   56700   -644.87966    81.966272   -562.91339    2486.7399    137248.28    10.472245   0.26024751 
   56800   -646.60995     71.66564   -574.94431    2174.2334    132597.49    10.472245   0.22803381 
   56900   -651.11235    77.791449    -573.3209    2360.0817    127091.02    10.472245   0.21973166 
   57000   -645.70018    80.811519   -564.88866    2451.7063    137079.24    10.472245   0.24406109 
   57100   -654.27763    81.738787   -572.53884    2479.8383    126446.14    10.472245   0.23989433 
   57200   -653.89385    83.419869   -570.47399      2530.84    123934.75    10.472245   0.21735678 
   57300   -646.67664    87.695735   -558.98091    2660.5636    136049.65    10.472245   0.24617234 
   57400   -650.66335    79.702939   -570.96041    2418.0736    129337.05    10.472245   0.25272925 
   57500   -648.64892    73.624598   -575.02432    2233.6654    131024.02    10.472245   0.26463814 
   57600   -644.35846    84.647833   -559.71062    2568.0947    136904.54    10.472245   0.25768769 
   57700   -644.00878    76.667895   -567.34089    2325.9947    135938.17    10.472245   0.26559909 
   57800   -654.08754    81.972013   -572.11552    2486.9141    126275.14    10.472245   0.20521272 
   57900   -643.80813    73.759635   -570.04849    2237.7622    134934.63    10.472245   0.27160437 
   58000   -650.10235    79.358277   -570.74407     2407.617    129365.38    10.472245   0.27519582 
   58100   -648.76406    82.258299   -566.50576    2495.5996    131213.16    10.472245   0.23045354 
   58200   -653.91208    77.961668   -575.95041    2365.2459       125040    10.472245    0.2398379 
   58300    -650.9032    80.344806   -570.55839    2437.5469    127308.05    10.472245   0.23369386 
   58400   -644.90544    79.337315   -565.56812    2406.9811     136592.3    10.472245   0.25108934 
   58500   -651.45659    77.015017   -574.44157    2336.5259    126655.28    10.472245   0.24537704 
   58600   -651.92853    75.302031   -576.62649    2284.5563    128060.42    10.472245   0.20484786 
   58700   -647.51093    83.324932     -564.186    2527.9597    131722.01    10.472245    0.2141213 
   58800   -646.76015    71.172162   -575.58799     2159.262    132042.57    10.472245   0.25897732 
   58900   -645.61387    71.363584   -574.25029    2165.0695    135395.96    10.472245   0.24310936 
   59000   -645.12646    72.619323   -572.50714    2203.1668    135355.75    10.472245   0.23883727 
   59100   -650.61805    79.399719   -571.21833    2408.8743    128343.21    10.472245   0.24328219 
   59200   -647.18824    76.568765   -570.61947    2322.9872    131212.57    10.472245   0.24350411 
   59300   -653.42773    77.765888   -575.66184    2359.3062       124329    10.472245   0.24275799 
   59400    -652.2516    85.733815   -566.51779    2601.0418    129201.06    10.472245   0.20641847 
   59500   -647.24212    78.898155   -568.34397    2393.6576    131917.91    10.472245   0.25326541 
   59600   -655.01484    79.025088   -575.98975    2397.5086    123612.56    10.472245    0.2392163 
   59700   -647.88086     79.98613   -567.89473    2426.6652    135106.12    10.472245   0.22349612 
   59800   -652.63597    71.371088   -581.26488    2165.2971    125397.99    10.472245   0.19940217 
   59900   -655.54335    79.175513   -576.36784    2402.0723    122186.77    10.472245   0.20518876 
   60000   -647.14238    78.619871   -568.52251    2385.2149    133215.49    10.472245    0.2353818 
   60100   -655.72187    75.726194   -579.99568    2297.4248    120538.15    10.472245   0.19429542 
   60200   -653.30822    75.903292   -577.40493    2302.7977     124724.8    10.472245   0.18072311 
   60300    -649.1872    77.615591   -571.57161    2354.7464    131142.83    10.472245   0.20912597 
   60400    -657.1009    81.850061   -575.25084    2483.2142    120188.84    10.472245    0.1864404 
   60500   -650.79563     68.82176   -581.97387    2087.9541    126958.82    10.472245   0.23838065 
   60600   -651.25856    81.128735   -570.12983    2461.3302    128415.89    10.472245   0.21808249 
   60700   -654.71866    80.061069   -574.65759    2428.9388    124684.04    10.472245   0.19930758 
   60800   -656.21564    75.914672   -580.30097     2303.143    118440.13    10.472245    0.2067779 
   60900   -642.86789    77.783739   -565.08415    2359.8478    139558.05    10.472245   0.34502761 
   61000   -650.14584    82.072649    -568.0732    2489.9672    129307.07    10.472245   0.24741967 
   61100   -649.36444    70.428379   -578.93606    2136.6967    127071.02    10.472245   0.20026246 
   61200   -640.16822    72.368115   -567.80011    2195.5455    140875.27    10.472245   0.29155016 
   61300   -648.42463    80.836512   -567.58812    2452.4646    131169.83    10.472245   0.24222154 
   61400   -649.85525    77.286166   -572.56908    2344.7521    129786.45    10.472245   0.22450548 
   61500   -651.32644    78.274977   -573.05146    2374.7513    128905.65    10.472245   0.22217202 
   61600   -645.10508    72.309486   -572.79559    2193.7668    133034.15    10.472245   0.24743042 
   61700    -645.3843    81.191836   -564.19246    2463.2446     136025.3    10.472245    0.2697887 
   61800   -655.19493    82.759642   -572.43529    2510.8096    123139.34    10.472245   0.23920348 
   61900   -645.91252    73.168687   -572.74384    2219.8337    133445.32    10.472245   0.22934001 
   62000   -646.52009    81.594247   -564.92585    2475.4532    134711.67    10.472245   0.26942292 
   62100   -642.12826    77.751875   -564.37638    2358.8811    138996.63    10.472245   0.29507366 
   62200   -654.97108    80.241006   -574.73007    2434.3978     123072.3    10.472245    0.2206082 
   62300   -646.18063    76.274636   -569.90599    2314.0638    132252.07    10.472245   0.25487719 
   62400   -637.56811    78.179881   -559.38823    2371.8662    145872.46    10.472245   0.33197444 
   62500   -650.37825      81.7018   -568.67645    2478.7162    128944.32    10.472245   0.23931496 
   62600   -653.06017    79.089076   -573.97109    2399.4499    125425.08    10.472245   0.22279594 
   62700   -653.36763    72.333369   -581.03426    2194.4914    123767.53    10.472245   0.24872049 
   62800   -648.94536    78.933319   -570.01204    2394.7244    129460.73    10.472245   0.20363077 
   62900   -646.30504      74.7324   -571.57264    2267.2745     132937.6    10.472245   0.27238706 
   63000   -656.93026    73.986594   -582.94367    2244.6479    117914.58    10.472245   0.19368448 
   63100   -647.80358    72.599966   -575.20361    2202.5795    131658.97    10.472245   0.23622587 
   63200   -647.89168    78.897204   -568.99448    2393.6287    133047.48    10.472245   0.22966446 
   63300   -650.91253    74.261478   -576.65105    2252.9874    127281.18    10.472245   0.22000074 
   63400   -651.84769    75.221912   -576.62578    2282.1256    127095.52    10.472245   0.22748995 
   63500    -650.2186    81.335257   -568.88335    2467.5958    130302.57    10.472245   0.25859684 
   63600   -651.71692    79.340993   -572.37592    2407.0927    127803.88    10.472245   0.23391244 
   63700   -653.23042    69.840027   -583.39039    2118.8469    123474.63    10.472245   0.24031199 
   63800   -649.30256    76.067692   -573.23487    2307.7854     129861.9    10.472245   0.21423098 
   63900   -648.05594    81.995129   -566.06081    2487.6154    134018.64    10.472245   0.27031232 
   64000   -641.60762    77.215964   -564.39165    2342.6223     140961.8    10.472245   0.31912035 
   64100   -649.82408    73.697385    -576.1267    2235.8736    129508.83    10.472245   0.22151172 
   64200   -641.38975    74.171471   -567.21828    2250.2567    140156.09    10.472245   0.28710452 
   64300   -639.46879    73.033633   -566.43516    2215.7364    142241.67    10.472245   0.29337477 
   64400   -649.85269     78.92837   -570.92432    2394.5743    130167.32    10.472245   0.28026736 
   64500   -646.14078     81.73786   -564.40292    2479.8102     136543.4    10.472245   0.25007643 
   64600   -651.16638    75.285093   -575.88129    2284.0425    129010.35    10.472245   0.25091013 
   64700   -645.20412     72.81958   -572.38454    2209.2423    133936.87    10.472245   0.25840159 
   64800   -647.64729    80.441117   -567.20618    2440.4689    132919.74    10.472245    0.2487585 
   64900   -651.86456    77.050173   -574.81439    2337.5925    125769.57    10.472245   0.21809769 
   65000   -660.10769    69.851563   -590.25613    2119.1969    114019.93    10.472245   0.22980839 
   65100   -650.10821    73.064471   -577.04373    2216.6719    125484.88    10.472245   0.24187383 
   65200   -646.50042    80.193163   -566.30725    2432.9463    134646.46    10.472245   0.25158429 
   65300   -650.92559    73.826677   -577.09891    2239.7962    126576.49    10.472245   0.20596459 
   65400   -656.08815    77.859881   -578.22827    2362.1578    120536.92    10.472245    0.2147885 
   65500   -645.30428    76.633815   -568.67047    2324.9608    135088.99    10.472245   0.26111556 
   65600   -646.85228     79.52118    -567.3311    2412.5593    134200.02    10.472245   0.23852757 
   65700   -656.86541     75.69954   -581.16587    2296.6162    118752.83    10.472245   0.20261644 
   65800   -645.79576    77.064276   -568.73148    2338.0203    136179.42    10.472245   0.21564375 
   65900   -648.21284    77.397992   -570.81484    2348.1448    132024.07    10.472245   0.25032466 
   66000   -659.69385    72.697603   -586.99625    2205.5417    116195.98    10.472245   0.18689967 
   66100   -652.18415    73.425543    -578.7586    2227.6264    125887.01    10.472245   0.21741126 
   66200   -651.15417    80.497121   -570.65705     2442.168    128706.45    10.472245   0.22661733 
   66300   -643.07701     77.76587   -565.31114    2359.3057    138910.82    10.472245   0.31152537 
   66400   -642.67175    78.641012   -564.03074    2385.8562    140195.15    10.472245   0.32374786 
   66500   -650.41956    80.675001   -569.74456    2447.5646    128953.71    10.472245   0.26328947 
   66600   -646.35125    77.817764   -568.53349    2360.8801    132027.04    10.472245   0.32382625 
   66700   -643.91008    85.146634   -558.76345    2583.2276    138140.07    10.472245   0.25800285 
   66800    -651.3106    76.954516   -574.35608    2334.6904    128130.32    10.472245   0.22394269 
   66900   -646.27654    77.863131   -568.41341    2362.2565    134912.75    10.472245   0.27558825 
   67000   -640.98539    77.941976   -563.04341    2364.6485    140722.61    10.472245   0.27060672 
   67100    -649.4241    79.120858   -570.30324    2400.4141    130627.61    10.472245   0.24204967 
   67200   -655.87645    81.172846    -574.7036    2462.6685    121074.94    10.472245   0.20524324 
   67300    -652.8964    71.267769   -581.62863    2162.1626    122798.02    10.472245    0.1921419 
   67400   -652.81459    85.557315   -567.25728     2595.687    127776.29    10.472245   0.19600493 
   67500   -649.85816    74.792645   -575.06552    2269.1023    129254.21    10.472245     0.220113 
   67600   -654.07362    85.603237   -568.47038    2597.0802    125225.01    10.472245   0.19860698 
   67700   -647.13922    78.420141   -568.71908    2379.1553    132517.32    10.472245   0.25600078 
   67800   -655.03525    79.403097   -575.63216    2408.9768    123046.75    10.472245   0.22314013 
   67900    -642.6406    81.179506   -561.46109    2462.8706    140082.16    10.472245   0.27590507 
   68000   -644.72807    75.281092   -569.44698    2283.9211    135966.49    10.472245    0.3156832 
   68100   -650.02022    77.313523    -572.7067    2345.5821    129265.58    10.472245   0.22641166 
   68200   -650.61526    83.606788   -567.00848    2536.5108    130770.98    10.472245   0.20567117 
   68300   -650.70379    76.876716   -573.82708      2332.33    126773.83    10.472245   0.20496228 
   68400   -652.73426     74.70613   -578.02813    2266.4775    124967.38    10.472245   0.22762069 
   68500   -652.22793    81.495586   -570.73235      2472.46       126496    10.472245   0.20087295 
   68600   -649.47804    74.878688   -574.59936    2271.7127    128867.26    10.472245   0.25044988 
   68700     -654.006    80.415487   -573.59052    2439.6913    126601.54    10.472245    0.2272307 
   68800   -645.99173    82.009869   -563.98186    2488.0626    133151.21    10.472245   0.24535751 
   68900   -652.28101    74.030623   -578.25038    2245.9836    125803.58    10.472245   0.21697839 
   69000   -650.20353    76.140709   -574.06282    2310.0006    128923.73    10.472245   0.25600709 
   69100   -647.00682    81.141412   -565.86541    2461.7148     134161.9    10.472245    0.2230139 
   69200   -654.56569    72.514511   -582.05118    2199.9869    122188.28    10.472245   0.21651424 
   69300   -648.78493    79.108089   -569.67684    2400.0267    131827.67    10.472245   0.24991771 
   69400   -651.22889    81.004633   -570.22426    2457.5652    129061.22    10.472245   0.21748152 
   69500   -654.21492    74.599703   -579.61522    2263.2487    124173.81    10.472245   0.22380821 
   69600   -646.94171     76.77546   -570.16625    2329.2581    133035.21    10.472245   0.25020715 
   69700      -649.81    81.175095   -568.63491    2462.7367    131012.28    10.472245   0.27294461 
   69800   -652.37731    77.530465   -574.84685    2352.1638    126839.43    10.472245   0.22889446 
   69900   -652.93776    72.102185   -580.83557    2187.4776    124422.24    10.472245   0.24039226 
   70000   -650.13888    80.707273    -569.4316    2448.5437    128442.95    10.472245   0.21911288 
   70100   -651.60257    76.086913   -575.51565    2308.3685    127406.92    10.472245   0.23935291 
   70200   -650.53339    71.832665   -578.70073    2179.3007    127064.65    10.472245   0.22301851 
   70300   -644.16183    75.124794   -569.03704    2279.1792    135467.04    10.472245    0.2396412 
   70400   -650.60762    74.188237   -576.41939    2250.7654    126857.12    10.472245   0.23126596 
   70500   -655.69223    71.222721   -584.46951    2160.7959    122077.27    10.472245   0.21735724 
   70600   -648.90276    78.518842   -570.38392    2382.1498     131988.9    10.472245   0.20005616 
   70700   -651.50876    81.356638   -570.15212    2468.2445    129164.23    10.472245   0.26077231 
   70800   -649.89042    85.457048   -564.43337    2592.6451    132122.58    10.472245   0.23248039 
   70900   -650.95717    75.021406   -575.93576    2276.0426    124777.62    10.472245   0.23209245 
   71000   -646.55808      72.9403   -573.61778    2212.9048    131368.05    10.472245   0.28201029 
   71100   -646.76418    75.872962   -570.89121    2301.8776    131924.95    10.472245   0.23341274 
   71200   -651.30216     78.26937   -573.03279    2374.5812    126486.08    10.472245   0.20597275 
   71300   -653.00511    79.059842   -573.94526     2398.563    124922.96    10.472245   0.22938537 
   71400   -644.05805    82.524786   -561.53327    2503.6844    137648.16    10.472245   0.24513043 
   71500   -647.96106    78.354592   -569.60647    2377.1667    131801.67    10.472245   0.24188153 
   71600   -646.80889    73.297839   -573.51105     2223.752    132728.94    10.472245    0.2397529 
   71700   -648.65761    77.799453   -570.85816    2360.3245    131921.29    10.472245   0.19960001 
   71800   -652.18359    70.696055   -581.48753    2144.8176    124320.87    10.472245   0.22224211 
   71900   -649.91199     81.41241   -568.49958    2469.9365    130032.53    10.472245    0.2108165 
   72000   -648.98948    79.272788   -569.71669    2405.0235    132274.65    10.472245   0.20953966 
   72100   -654.77682    71.337996   -583.43882    2164.2932    122595.69    10.472245   0.19742309 
   72200   -651.51732    74.876063   -576.64126    2271.6331    126568.61    10.472245   0.22276664 
   72300   -648.41023    79.884521   -568.52571    2423.5825    133587.45    10.472245   0.26231277 
   72400   -643.88211    87.259298   -556.62281    2647.3228     137663.4    10.472245   0.26544436 
   72500   -652.85978    84.540521   -568.31925     2564.839     128448.6    10.472245   0.22768643 
   72600   -651.74787     75.61857    -576.1293    2294.1597    126964.76    10.472245    0.2311765 
   72700   -652.26704    85.281074   -566.98597    2587.3063    129621.37    10.472245   0.20246383 
   72800   -642.45785    74.520994   -567.93686    2260.8608    138711.37    10.472245   0.27531979 
   72900   -653.85642    76.121209   -577.73521     2309.409    124008.86    10.472245   0.21491902 
   73000   -651.52017    83.275732   -568.24444    2526.4671    131358.69    10.472245   0.23463858 
   73100   -644.85979    75.025903   -569.83389     2276.179    135828.57    10.472245   0.24627441 
   73200   -656.52264    75.208634   -581.31401    2281.7228    120427.76    10.472245   0.18946679 
   73300   -648.33235    79.616806   -568.71554    2415.4605    132596.19    10.472245    0.2676556 
   73400   -646.34583    76.749412   -569.59641    2328.4678    134717.62    10.472245   0.25075022 
   73500   -655.66081    73.038095   -582.62272    2215.8717    120816.49    10.472245   0.21151509 
   73600   -651.41583      84.1718   -567.24403    2553.6525    129333.21    10.472245   0.22151259 
   73700   -641.59324    69.666377   -571.92686    2113.5786    139998.64    10.472245   0.29962479 
   73800   -645.43111    75.452848   -569.97826    2289.1319    134723.21    10.472245   0.27500631 
   73900   -639.56661    75.429868   -564.13675    2288.4347     141062.5    10.472245   0.25052634 
   74000   -648.99823    73.437013   -575.56121    2227.9744    130325.65    10.472245   0.25345827 
   74100   -649.56959    81.218742   -568.35085    2464.0609       129791    10.472245    0.2234266 
   74200   -641.43926    84.110037   -557.32923    2551.7787    140813.65    10.472245   0.29861611 
   74300   -645.60194     74.70635   -570.89559    2266.4842    134912.72    10.472245   0.28468449 
   74400   -647.54503    72.460923   -575.08411    2198.3612    130071.61    10.472245   0.28237921 
   74500   -644.27867    83.237253   -561.04141    2525.2996    137212.74    10.472245   0.28784828 
   74600   -637.49695    71.230214   -566.26674    2161.0232    142899.91    10.472245   0.32857916 
   74700   -651.71119    70.884825   -580.82637    2150.5446    125046.82    10.472245   0.22184404 
   74800    -648.8082     74.80964   -573.99856    2269.6179    129137.46    10.472245   0.20991591 
   74900   -642.71123    75.814611   -566.89662    2300.1073    137593.79    10.472245   0.24511517 
   75000   -639.62176    67.290776   -572.33099    2041.5063    141704.49    10.472245   0.26127144 
   75100   -647.55781    68.237692   -579.32011    2070.2344    130951.29    10.472245   0.24719531 
   75200   -648.00318    82.918256   -565.08492    2515.6217    132633.51    10.472245   0.24223654 
   75300   -646.68297    74.284924   -572.39804    2253.6988    131649.52    10.472245   0.24693328 
   75400   -653.33417    73.707409   -579.62676    2236.1778    123904.27    10.472245   0.21781215 
   75500   -652.43698    84.884262   -567.55272    2575.2676    127823.97    10.472245    0.2453632 
   75600   -648.84038    80.457574   -568.38281    2440.9682    132000.79    10.472245   0.27108477 
   75700   -652.84687    76.677214   -576.16966    2326.2774    125781.89    10.472245   0.20541858 
   75800   -645.63472    72.616808   -573.01791    2203.0905    132824.83    10.472245   0.26426777 
   75900   -648.18305    79.759303   -568.42374    2419.7836    132181.04    10.472245    0.2322291 
   76000   -649.08244    68.145321   -580.93712    2067.4319    129629.94    10.472245   0.26639275 
   76100   -647.11402    75.897861   -571.21616     2302.633    135105.53    10.472245   0.23516952 
   76200   -650.34959    79.057634   -571.29195     2398.496    129132.53    10.472245   0.21475976 
   76300   -655.31556    78.077081   -577.23848    2368.7474     123558.7    10.472245   0.21666175 
   76400   -652.98035    73.396319   -579.58404    2226.7397    125111.86    10.472245   0.25724058 
   76500   -648.03327    80.798273     -567.235    2451.3045    133386.99    10.472245   0.25699281 
   76600   -645.90342    81.019894   -564.88353    2458.0282    134976.69    10.472245   0.28005015 
   76700   -654.78902    85.359205   -569.42981    2589.6767    125395.64    10.472245   0.19564502 
   76800   -651.98748     73.22946   -578.75802    2221.6775    126426.72    10.472245   0.22961287 
   76900    -645.3274    78.640629   -566.68677    2385.8446    136251.67    10.472245   0.26887012 
   77000   -644.01424    74.205661   -569.80858     2251.294    134905.65    10.472245   0.27093272 
   77100   -649.52393    69.032108   -580.49182    2094.3358     128972.3    10.472245   0.22390556 
   77200   -653.69291    76.831891   -576.86102    2330.9701    124540.41    10.472245   0.20216058 
[...]
  481400   -615.04082    74.970048   -540.07077    2274.4844    174435.11    10.472245    2610.1956 
  481500   -616.07327    76.268633   -539.80463    2313.8817    173516.33    10.472245    2608.4298 
  481600   -614.53978    89.591016   -524.94877    2718.0638    178935.99    10.472245    2602.6593 
  481700   -617.27062    79.750347   -537.52027    2419.5119    172752.98    10.472245    2601.8952 
  481800    -618.7466    79.755991   -538.99061    2419.6831     171651.4    10.472245    2598.6935 
  481900   -614.64472    76.968877   -537.67584    2335.1261     176691.1    10.472245    2602.4004 
  482000   -615.18652    78.099318    -537.0872     2369.422    176918.47    10.472245    2605.5458 
  482100   -611.51999    79.721423   -531.79857    2418.6344    180009.51    10.472245    2608.6253 
  482200   -615.73216    75.307303   -540.42486    2284.7163     174692.4    10.472245    2614.6407 
  482300   -617.42199    74.370263   -543.05173    2256.2878    170741.28    10.472245    2613.1743 
  482400   -615.12337    85.043097   -530.08027    2580.0864    177440.02    10.472245    2611.8769 
  482500   -617.98841    76.489282   -541.49912    2320.5758     173233.9    10.472245    2613.8296 
  482600   -614.59553    82.485537   -532.10999    2502.4937    179348.71    10.472245    2619.2947 
  482700   -613.38208    80.475848   -532.90623    2441.5226    181119.91    10.472245    2617.3978 
  482800   -615.67598    74.201626   -541.47435    2251.1716    173472.69    10.472245    2626.1022 
  482900   -622.38695      77.5384   -544.84855    2352.4046    163788.52    10.472245    2619.9455 
  483000   -615.38184    76.271854   -539.10998    2313.9794    174881.79    10.472245    2624.8782 
  483100   -618.32877    80.282418   -538.04635    2435.6542    173453.74    10.472245    2618.0528 
  483200   -617.19188    74.994642   -542.19724    2275.2306    174086.72    10.472245    2615.1329 
  483300   -613.86333    78.918369   -534.94496    2394.2709    179105.13    10.472245    2619.3144 
  483400   -614.11472    77.835263   -536.27945     2361.411    175109.83    10.472245    2620.5898 
  483500   -618.89883    75.471755   -543.42708    2289.7055    171061.72    10.472245    2622.1975 
  483600   -617.19327    78.340049   -538.85323    2376.7255    175469.29    10.472245     2628.052 
  483700   -617.32363    87.917474   -529.40615    2667.2909    175662.45    10.472245    2630.5484 
  483800   -619.52535    75.846156   -543.67919    2301.0643    170996.37    10.472245    2632.9062 
  483900     -615.431    76.988942   -538.44206    2335.7348    174921.71    10.472245    2633.3311 
  484000   -609.88582    73.910335   -535.97548    2242.3343    181755.14    10.472245    2626.3674 
  484100   -616.47366     77.16576    -539.3079    2341.0992    174893.02    10.472245    2627.7807 
  484200   -627.72819    78.955248   -548.77294    2395.3897    161297.11    10.472245    2627.2258 
  484300   -622.96477    77.633117   -545.33166    2355.2782    164201.57    10.472245    2631.4001 
  484400   -613.16401    77.157289   -536.00672    2340.8422    176824.01    10.472245    2638.8549 
  484500   -619.30718     71.88017   -547.42701    2180.7419    167784.43    10.472245    2632.5163 
  484600   -622.83656    73.736896   -549.09966    2237.0724    164666.85    10.472245     2633.447 
  484700   -617.19597    80.873128   -536.32284    2453.5755    173774.84    10.472245    2627.1097 
  484800    -620.1034    79.866678   -540.23672    2423.0412    169613.72    10.472245    2623.7003 
  484900    -620.5868    74.890828   -545.69597     2272.081    166123.13    10.472245    2625.1534 
  485000   -616.01204    76.698085   -539.31395    2326.9106    176242.09    10.472245    2631.3468 
  485100   -613.03696    88.616119   -524.42084    2688.4868    179639.31    10.472245    2620.0606 
  485200   -612.11076    71.944555   -540.16621    2182.6953    178872.75    10.472245    2620.2048 
  485300   -615.59227    78.289938   -537.30233    2375.2052    175948.36    10.472245    2620.1399 
  485400   -611.93093    80.523029    -531.4079     2442.954    180193.29    10.472245    2622.6673 
  485500   -617.88021     74.00415   -543.87606    2245.1805    171126.91    10.472245    2624.0649 
  485600   -622.70955    87.455581   -535.25397    2653.2777    169573.58    10.472245     2628.489 
  485700   -613.86569    81.553707   -532.31199    2474.2233    180047.91    10.472245     2630.338 
  485800   -618.00628    78.511707   -539.49458    2381.9333    172466.41    10.472245    2632.6794 
  485900   -614.75985    79.644087   -535.11576    2416.2881    177282.54    10.472245    2627.8179 
  486000   -618.10655    80.094183   -538.01236    2429.9434    173782.49    10.472245    2628.7579 
  486100    -622.8326    79.651753   -543.18084    2416.5207    169918.34    10.472245    2631.7439 
  486200   -614.06157    80.286136   -533.77543     2435.767    177794.26    10.472245      2636.31 
  486300   -610.74249    79.544659   -531.19784    2413.2716    179243.51    10.472245    2635.0264 
  486400   -622.12858    79.563467   -542.56511    2413.8422    166964.47    10.472245    2635.8261 
  486500   -620.64857    79.304902   -541.34367    2405.9977    167727.45    10.472245    2640.9015 
  486600   -616.02087    81.003007   -535.01786    2457.5158    176463.72    10.472245    2639.3437 
  486700   -619.45733    74.682085   -544.77524    2265.7481    170577.92    10.472245    2639.7404 
  486800   -612.99101    85.792058   -527.19896    2602.8088    180180.79    10.472245    2642.1675 
  486900   -619.97277    75.568207   -544.40457    2292.6317    167596.07    10.472245    2645.8275 
  487000    -620.7154    72.003098    -548.7123    2184.4714    165666.29    10.472245    2647.9048 
  487100    -617.3672    82.092356   -535.27484    2490.5651    174045.27    10.472245    2647.9924 
  487200    -619.2704    75.717472   -543.55293    2297.1602    170531.95    10.472245    2648.8383 
  487300   -619.35334    77.268519   -542.08482    2344.2168    168600.51    10.472245    2653.6524 
  487400   -616.40871    73.899903   -542.50881    2242.0178    173140.99    10.472245    2651.3107 
  487500   -609.51434    78.971079   -530.54326      2395.87    179957.08    10.472245    2649.8972 
  487600   -616.63677    72.960633   -543.67614    2213.5216    171593.16    10.472245    2648.6839 
  487700   -624.69396    80.835907   -543.85806    2452.4462    164683.95    10.472245    2645.9314 
  487800   -615.81009    69.085778   -546.72431    2095.9641    172871.82    10.472245    2643.0804 
  487900   -619.03415    83.120496   -535.91365    2521.7574    171323.17    10.472245    2642.0835 
  488000   -617.97472    73.788701   -544.18602    2238.6441    172319.91    10.472245    2636.2522 
  488100   -625.99725    79.889487   -546.10776    2423.7332    164486.96    10.472245    2635.6866 
  488200    -618.8282    77.588915   -541.23929    2353.9371    172032.25    10.472245    2634.9486 
  488300   -614.89801    76.872046   -538.02597    2332.1884    173407.96    10.472245    2640.5393 
  488400   -611.42485    75.790803   -535.63405     2299.385    181018.84    10.472245    2645.7933 
  488500   -619.86582    74.541507   -545.32431    2261.4831    167913.94    10.472245    2646.5545 
  488600   -615.40316    79.134909   -536.26825    2400.8404    176604.45    10.472245    2642.8338 
  488700   -616.06887     83.09402   -532.97485    2520.9542       177000    10.472245    2649.9045 
  488800   -617.15058    72.969607   -544.18097    2213.7939    173518.26    10.472245    2646.5504 
  488900   -615.29204    79.913715   -535.37832    2424.4683    176008.94    10.472245    2648.5487 
  489000   -611.99593    78.892201   -533.10372     2393.477    178884.52    10.472245    2649.9973 
  489100   -620.87929    78.809077   -542.07021    2390.9551    169095.78    10.472245     2652.522 
  489200    -613.1265    72.465657   -540.66084    2198.5048     174980.6    10.472245    2656.0028 
  489300   -607.17554    78.308535     -528.867    2375.7694    184996.87    10.472245    2654.4982 
  489400   -616.01535    76.277923   -539.73743    2314.1635    176663.89    10.472245    2654.7367 
  489500   -616.73097    72.466819   -544.26415      2198.54    174565.02    10.472245    2652.4514 
  489600   -616.00385    83.343345    -532.6605    2528.5184    174728.89    10.472245    2656.4374 
  489700   -619.51786    79.715804   -539.80206    2418.4639    167452.65    10.472245    2659.9471 
  489800   -617.61709    75.376016   -542.24107    2286.8009    172399.96    10.472245    2658.6417 
  489900    -609.1811    82.217993   -526.96311    2494.3768    185572.25    10.472245    2661.4802 
  490000   -617.08068    80.464116   -536.61657    2441.1666    172675.78    10.472245    2656.2466 
  490100   -618.79408    74.374013   -544.42006    2256.4016    170560.45    10.472245    2661.9164 
  490200    -617.7534    85.079519   -532.67388    2581.1914    174055.62    10.472245    2662.8979 
  490300   -620.66448    71.927514   -548.73696    2182.1783    164004.37    10.472245    2663.3175 
  490400   -616.73192    74.632262   -542.09966    2264.2365    171907.25    10.472245    2666.3359 
  490500   -612.99235     75.59459   -537.39776    2293.4322       177624    10.472245    2676.2038 
  490600   -618.54503    71.662371   -546.88266    2174.1342    172144.48    10.472245    2673.3249 
  490700   -626.31431    75.506816   -550.80749    2290.7692    162396.07    10.472245      2674.74 
  490800   -623.94662    84.079533   -539.86708    2550.8532    165397.27    10.472245    2672.7825 
  490900   -619.94598    74.299824   -545.64616    2254.1508    169335.29    10.472245    2673.3228 
  491000   -623.95475    72.818471   -551.13628    2209.2087    163599.36    10.472245    2681.6775 
  491100    -614.0264    75.398945   -538.62745    2287.4966    177292.28    10.472245    2678.1827 
  491200   -615.33985    73.885754    -541.4541    2241.5885    173990.97    10.472245    2681.0325 
  491300   -619.82808    68.370104   -551.45797    2074.2515    167676.47    10.472245    2683.9347 
  491400   -618.85195    81.188909   -537.66304    2463.1558    171879.55    10.472245    2685.5005 
  491500   -618.58243    81.010849   -537.57158    2457.7537    174749.57    10.472245     2686.044 
  491600   -621.51024     75.10875   -546.40149    2278.6924    169884.53    10.472245    2687.1815 
  491700   -615.88511    77.379184   -538.50592    2347.5742    174679.35    10.472245    2692.1187 
  491800   -621.56698    84.200963   -537.36602    2554.5373    168438.72    10.472245    2686.2068 
  491900   -620.72596    75.518104   -545.20785    2291.1117     169376.8    10.472245    2689.5497 
  492000   -613.59586    77.416228   -536.17964     2348.698    180410.42    10.472245    2688.2914 
  492100   -613.91618    76.462677   -537.45351    2319.7687    173282.48    10.472245     2693.152 
  492200    -616.3203    70.011591   -546.30871    2124.0519     173749.3    10.472245    2697.5153 
  492300    -610.4876    77.944958   -532.54264     2364.739    181958.81    10.472245    2691.3761 
  492400   -620.74715    78.493479   -542.25367    2381.3803    168288.09    10.472245    2695.8743 
  492500   -617.48088    73.978172   -543.50271    2244.3923    171671.85    10.472245     2688.281 
  492600   -610.32973    81.091388   -529.23835    2460.1972    180374.69    10.472245    2689.0681 
  492700   -619.80303    76.593504   -543.20952    2323.7378    169737.45    10.472245    2691.2543 
  492800   -619.99101    76.912668   -543.07834    2333.4208       167982    10.472245    2682.7424 
  492900   -612.84243    83.468945   -529.37348    2532.3289    178319.56    10.472245    2676.7287 
  493000   -620.21477    79.390759   -540.82401    2408.6025    168399.15    10.472245    2671.9277 
  493100   -613.56081    73.702185   -539.85862    2236.0193    175899.13    10.472245    2671.9937 
  493200   -607.59796    79.370932   -528.22703     2408.001    185080.98    10.472245     2669.208 
  493300   -616.82555    78.503406   -538.32214    2381.6815    174181.02    10.472245    2678.6704 
  493400   -619.65951    76.387093   -543.27242    2317.4756    171449.29    10.472245    2679.4044 
  493500   -613.66816    81.982263    -531.6859    2487.2251     178453.1    10.472245    2681.5641 
  493600   -615.69151    77.435606    -538.2559    2349.2859    173747.74    10.472245    2681.0326 
  493700   -622.84181    69.716679   -553.12513    2115.1047    162501.08    10.472245    2682.9184 
  493800   -615.86573    70.661302   -545.20443    2143.7632    171753.68    10.472245    2682.5228 
  493900   -614.80708    77.362178    -537.4449    2347.0583    173718.92    10.472245    2689.9517 
  494000   -621.43031     77.55149   -543.87882    2352.8017    168116.89    10.472245    2687.9256 
  494100   -626.79425     78.99719   -547.79706    2396.6622    160249.44    10.472245    2682.8903 
  494200   -613.11932     79.57169   -533.54763    2414.0917    180243.33    10.472245    2687.7474 
  494300   -617.81501    73.401525   -544.41349    2226.8977     171635.1    10.472245    2687.9742 
  494400   -614.64527    75.290375    -539.3549    2284.2027    176061.93    10.472245    2680.6871 
  494500   -617.95322     75.76034   -542.19288    2298.4608    173640.75    10.472245    2683.9231 
  494600   -615.66101     75.43415   -540.22686    2288.5646    173021.62    10.472245    2690.8025 
  494700   -611.96108    75.999795   -535.96129    2305.7255    180465.47    10.472245    2691.4928 
  494800   -624.91099    82.444276   -542.46671    2501.2419    164909.78    10.472245    2693.0335 
  494900   -615.15548    78.521869   -536.63361    2382.2416    175550.46    10.472245    2688.0287 
  495000   -614.10041    81.042963   -533.05745     2458.728    177922.07    10.472245    2683.9761 
  495100   -615.47363     73.00703    -542.4666    2214.9293    172695.95    10.472245    2681.2504 
  495200   -613.30562    77.261813   -536.04381    2344.0133    175788.57    10.472245     2679.185 
  495300    -623.0323    76.530421   -546.50188    2321.8239    163529.88    10.472245    2686.1319 
  495400   -619.52383    74.742544   -544.78129    2267.5823    171341.48    10.472245    2686.7393 
  495500   -617.83106    79.352214   -538.47884    2407.4331    174377.94    10.472245    2688.6632 
  495600   -621.15777    73.214193   -547.94357    2221.2143    165800.02    10.472245    2680.0899 
  495700   -622.12171    80.927894   -541.19382     2455.237    168164.88    10.472245    2678.8639 
  495800   -612.58368    76.880055   -535.70363    2332.4313    180657.77    10.472245    2683.7333 
  495900   -622.28844    76.896022   -545.39242    2332.9157    165692.58    10.472245    2684.2451 
  496000   -613.00632    76.867068   -536.13925    2332.0373     176409.4    10.472245     2687.472 
  496100    -615.4963    78.090029   -537.40627    2369.1402    175929.68    10.472245    2694.3174 
  496200   -620.20164    75.379049   -544.82259    2286.8929    170061.27    10.472245    2699.8038 
  496300    -620.2166    79.768362   -540.44824    2420.0584    169395.96    10.472245    2699.5302 
  496400   -620.48759    73.354629   -547.13296    2225.4749    168354.52    10.472245    2701.0562 
  496500   -618.76683    75.460342   -543.30649    2289.3593     172720.1    10.472245    2702.3444 
  496600   -611.51562    75.406775   -536.10885    2287.7341    180595.47    10.472245     2703.939 
  496700   -609.83715    77.845278   -531.99187    2361.7148    180800.71    10.472245    2707.5468 
  496800   -619.98633    73.978426    -546.0079       2244.4    169405.35    10.472245    2706.0037 
  496900   -612.41581    70.485418   -541.93039    2138.4272    177637.39    10.472245    2703.8104 
  497000   -615.92264    84.206111   -531.71653    2554.6934    176722.08    10.472245    2707.9007 
  497100   -616.01455    73.114959   -542.89959    2218.2037    169729.23    10.472245     2712.953 
  497200   -614.61767    74.153671     -540.464    2249.7167    173561.82    10.472245    2716.4879 
  497300   -605.94252    84.616385   -521.32614    2567.1406    188208.09    10.472245    2720.9588 
  497400   -609.88131    79.608333   -530.27297    2415.2034    186378.47    10.472245    2722.0202 
  497500   -618.78828    74.063368   -544.72491     2246.977    171568.74    10.472245    2723.1438 
  497600   -616.00856    75.986554     -540.022    2305.3238    175347.24    10.472245    2722.6036 
  497700   -614.92172    77.220519    -537.7012    2342.7605    177094.71    10.472245    2726.7537 
  497800   -619.78928    76.766621   -543.02266    2328.9899    170496.84    10.472245    2723.8449 
  497900   -623.75152    85.865066   -537.88645    2605.0238    165714.56    10.472245    2727.9825 
  498000   -615.65161    70.854215    -544.7974    2149.6159    175493.89    10.472245    2727.3348 
  498100   -613.68181    78.191587   -535.49023    2372.2214    179065.05    10.472245    2734.3036 
  498200   -616.72465     79.72054   -537.00411    2418.6076    175566.83    10.472245    2727.7035 
  498300   -621.57778    72.812238   -548.76554    2209.0196    166708.82    10.472245    2729.1137 
  498400   -615.99411    79.704315    -536.2898    2418.1154     173422.9    10.472245    2726.7056 
  498500   -618.97578    78.476748   -540.49903    2380.8727    170281.93    10.472245     2719.403 
  498600   -617.65721    74.375847   -543.28136    2256.4572     170708.5    10.472245     2727.752 
  498700   -616.22936    83.192615   -533.03675    2523.9454    175944.14    10.472245    2738.6944 
  498800   -618.11894    77.331557   -540.78738    2346.1292    171605.01    10.472245    2739.7303 
  498900   -623.80495    72.535698   -551.26925    2200.6297    165423.83    10.472245    2738.2462 
  499000   -615.72474    77.995418   -537.72932    2366.2699    175008.04    10.472245    2742.9138 
  499100   -622.59014    78.846585   -543.74356     2392.093    164829.87    10.472245    2747.6429 
  499200   -624.04493    73.543562   -550.50137    2231.2069    164833.68    10.472245    2746.9877 
  499300   -620.10401    85.677734   -534.42627    2599.3404    171059.11    10.472245    2746.5347 
  499400   -622.39318    79.108086    -543.2851    2400.0266    167219.29    10.472245    2752.4276 
  499500   -621.19302    76.784311   -544.40871    2329.5266    167367.55    10.472245    2754.3116 
  499600   -611.80351    86.342034   -525.46147    2619.4943     181796.8    10.472245    2759.4144 
  499700   -618.38004    81.236505   -537.14354    2464.5998    169598.27    10.472245    2757.7383 
  499800   -626.09198    82.600101   -543.49188    2505.9694    162676.56    10.472245    2757.5805 
  499900   -619.53422    83.396701   -536.13752    2530.1371    169866.96    10.472245    2752.3146 
  500000   -615.04721    84.376207     -530.671    2559.8539    177172.67    10.472245    2750.5016 
Loop time of 379.012 on 1 procs for 500000 steps with 256 atoms

Performance: 569.903 ns/day, 0.042 hours/ns, 1319.219 timesteps/s
100.0% CPU use with 1 MPI tasks x no OpenMP threads

MPI task timing breakdown:
Section |  min time  |  avg time  |  max time  |%varavg| %total
---------------------------------------------------------------
Pair    | 224.48     | 224.48     | 224.48     |   0.0 | 59.23
Neigh   | 18.563     | 18.563     | 18.563     |   0.0 |  4.90
Comm    | 4.2122     | 4.2122     | 4.2122     |   0.0 |  1.11
Output  | 0.1305     | 0.1305     | 0.1305     |   0.0 |  0.03
Modify  | 130.9      | 130.9      | 130.9      |   0.0 | 34.54
Other   |            | 0.7259     |            |       |  0.19

Nlocal:    256 ave 256 max 256 min
Histogram: 1 0 0 0 0 0 0 0 0 0
Nghost:    1580 ave 1580 max 1580 min
Histogram: 1 0 0 0 0 0 0 0 0 0
Neighs:    13490 ave 13490 max 13490 min
Histogram: 1 0 0 0 0 0 0 0 0 0

Total # of neighbors = 13490
Ave neighs/atom = 52.6953
Neighbor list builds = 33582
Dangerous builds = 134
    
Total wall time: 0:06:19
