LAMMPS (3 Mar 2020)

    # ---------- Initialize simulation ---------------------
    units metal
    atom_style atomic
    dimension  3
    boundary   p p p
    read_data /home/modeler/RemLabs/Lab4/Problem2A_size_3/temp_1320/lammps.data
  orthogonal box = (0 0 0) to (12.27 12.27 12.27)
  1 by 1 by 1 MPI processor grid
  reading atoms ...
  108 atoms
  read_data CPU = 0.000868621 secs

    pair_style eam
    pair_coeff * * /usr/share/lammps-stable/potentials/Ag_u3.eam
Reading potential file /usr/share/lammps-stable/potentials/Ag_u3.eam with DATE: 2007-06-11

    velocity  all create 1320 87287 dist gaussian

    # ---------- Describe computed properties------------------
    compute msdall all msd
    thermo_style custom step pe ke etotal temp press density c_msdall[4]
    thermo 100

    # ---------- Specify ensemble  ---------------------
    #fix  1 all nve
    fix  1 all nvt temp 1320 1320 0.05

    # --------- Compute RDF ---------------
    compute rdfall all rdf 100 1 1
    fix 2 all ave/time 1 2500 2500 c_rdfall[*] file /home/modeler/RemLabs/Lab4/Problem2A_size_3/temp_1320/lammps.rdf mode vector

    # --------- Run -------------
    timestep 0.001
    run 10000
Neighbor list info ...
  update every 1 steps, delay 10 steps, check yes
  max neighbors/atom: 2000, page size: 100000
  master list distance cutoff = 7.55
  ghost atom cutoff = 7.55
  binsize = 3.775, bins = 4 4 4
  2 neighbor lists, perpetual/occasional/extra = 1 1 0
  (1) pair eam, perpetual
      attributes: half, newton on
      pair build: half/bin/atomonly/newton
      stencil: half/bin/3d/newton
      bin: standard
  (2) compute rdf, occasional, copy from (1)
      attributes: half, newton on
      pair build: copy
      stencil: none
      bin: none
Per MPI rank memory allocation (min/avg/max) = 3.723 | 3.723 | 3.723 Mbytes
Step PotEng KinEng TotEng Temp Press Density c_msdall[4] 
       0       -307.8    18.256703    -289.5433         1320    10556.145    10.472245            0 
     100   -296.03892    11.122703   -284.91621      804.196    46216.738    10.472245  0.072080385 
     200   -292.47116    18.525622   -273.94554    1339.4435    62742.959    10.472245   0.08451144 
     300   -288.11526    22.028471   -266.08679    1592.7072    79599.772    10.472245   0.10076036 
     400   -289.13535    16.882777   -272.25257    1220.6621    72783.006    10.472245   0.10824638 
     500   -291.70269    20.354857   -271.34783    1471.7012    68025.949    10.472245  0.080005927 
     600   -291.11157    17.375175   -273.73639    1256.2636    65679.415    10.472245   0.09244196 
     700   -289.01856     18.52091   -270.49765    1339.1027    74937.609    10.472245   0.10632336 
     800    -289.7206    18.776383   -270.94422     1357.574    71931.653    10.472245  0.096209368 
     900   -289.48754     16.96309   -272.52445    1226.4689    70807.742    10.472245   0.10064115 
    1000   -288.88912    19.935046   -268.95407    1441.3479    76529.003    10.472245  0.095423583 
    1100   -288.42637     19.05664   -269.36973    1377.8372     77810.82    10.472245    0.1112232 
    1200   -289.13255    17.176977   -271.95558    1241.9334    74076.383    10.472245   0.11441289 
    1300   -287.49896    19.968314   -267.53064    1443.7533    80390.043    10.472245   0.10202074 
    1400   -290.23442    18.003305   -272.23111    1301.6788    70740.263    10.472245  0.084640542 
    1500   -290.39594    17.353946   -273.04199    1254.7287    69880.034    10.472245  0.097870795 
    1600   -287.47989    19.264494    -268.2154    1392.8655    79754.369    10.472245   0.11626971 
    1700   -288.42511    19.056487   -269.36863    1377.8261    77087.328    10.472245   0.10911812 
    1800   -291.45415    19.626008   -271.82814    1419.0038    66833.684    10.472245  0.097361468 
    1900   -288.86441    17.225578   -271.63884    1245.4474    74874.636    10.472245   0.11399358 
    2000   -290.53598    19.116558   -271.41942    1382.1695    69174.081    10.472245  0.093695058 
    2100   -290.88626    18.018239   -272.86802    1302.7585    68072.306    10.472245  0.093298549 
    2200   -288.30008    19.633517   -268.66656    1419.5467    76278.281    10.472245  0.098101219 
    2300    -289.4563    16.895287   -272.56102    1221.5666    71929.356    10.472245  0.095639031 
    2400   -289.74588    17.329409   -272.41647    1252.9546    72266.349    10.472245  0.088268475 
    2500   -289.74839    21.013731   -268.73466    1519.3392    72923.511    10.472245  0.091530536 
    2600   -290.00373    17.349912   -272.65382     1254.437    70503.825    10.472245  0.090300243 
    2700   -291.27131      17.8926   -273.37871    1293.6746    68020.579    10.472245  0.078948039 
    2800    -290.2355    17.008625   -273.22687    1229.7612    69724.252    10.472245  0.092915891 
    2900   -287.09273    17.688737   -269.40399    1278.9348    80514.884    10.472245   0.11206495 
    3000   -288.69702    20.603725   -268.09329    1489.6949    77581.186    10.472245   0.10138203 
    3100   -291.34754    17.843852   -273.50368      1290.15    66057.545    10.472245  0.092072874 
    3200   -290.45893    20.136577   -270.32236     1455.919    71069.457    10.472245  0.086261986 
    3300   -288.72724    17.543381   -271.18386    1268.4253    75316.978    10.472245   0.10556832 
    3400   -289.10924    18.872422   -270.23682    1364.5178    73815.852    10.472245   0.10508179 
    3500   -289.25937    15.843484   -273.41589    1145.5189    73745.392    10.472245   0.09595987 
    3600    -292.5301    20.365884   -272.16422    1472.4985    64200.822    10.472245  0.074982455 
    3700   -287.77207    18.312274    -269.4598    1324.0179    78586.703    10.472245  0.098869576 
    3800   -288.55747    17.388471   -271.16899    1257.2249     74312.72    10.472245   0.10766488 
    3900   -291.28273    19.789964   -271.49277    1430.8582    68335.898    10.472245  0.085984817 
    4000   -291.82928    18.595441   -273.23383    1344.4915    64183.293    10.472245  0.082002208 
    4100    -290.7468     17.22086   -273.52594    1245.1063    68070.632    10.472245  0.094634629 
    4200    -287.5408     17.93665   -269.60415    1296.8595     78944.94    10.472245   0.10001944 
    4300   -289.57306    16.742372   -272.83069    1210.5105    72103.854    10.472245  0.094324624 
    4400   -289.23402    18.349223    -270.8848    1326.6894    74273.213    10.472245   0.10111276 
    4500   -287.93366    16.309764    -271.6239     1179.232    77577.596    10.472245   0.11592367 
    4600   -289.59851    21.162835   -268.43567    1530.1198    74433.102    10.472245   0.09577413 
    4700   -289.39935    16.670112   -272.72924     1205.286    72581.263    10.472245   0.10916711 
    4800   -291.17341    21.710134   -269.46328    1569.6907     69100.74    10.472245  0.091425388 
    4900   -289.41628    17.631093   -271.78519     1274.767    72022.658    10.472245   0.10572795 
    5000   -289.30837    18.351941   -270.95643     1326.886    73744.626    10.472245   0.10604348 
    5100   -290.19334    16.755485   -273.43785    1211.4586     70156.02    10.472245  0.098582887 
    5200   -289.83708    19.657991   -270.17909    1421.3162    71958.502    10.472245  0.092735877 
    5300   -289.95076    18.681925   -271.26884    1350.7445     71132.51    10.472245   0.10441236 
    5400    -290.3459    20.822655   -269.52325     1505.524    71263.105    10.472245  0.097179854 
    5500   -287.96415    20.109476   -267.85468    1453.9596    79130.684    10.472245   0.10920842 
    5600    -289.0255    17.970394    -271.0551    1299.2992    74868.368    10.472245   0.10802284 
    5700    -288.4812    15.966475   -272.51472    1154.4115    75155.188    10.472245  0.099371743 
    5800   -291.47873    20.495501   -270.98323      1481.87    67490.399    10.472245  0.072698163 
    5900   -291.40487    16.990954   -274.41392    1228.4836    64816.666    10.472245  0.090195773 
    6000   -289.61814    18.712267   -270.90587    1352.9383    72751.367    10.472245  0.095595865 
    6100   -289.58108    19.844926   -269.73616     1434.832    73314.831    10.472245  0.098597731 
    6200    -287.3358    15.485813   -271.84999    1119.6585    77925.515    10.472245    0.1146298 
    6300    -290.8876    21.465835   -269.42176    1552.0274    70341.591    10.472245     0.090721 
    6400   -290.45525    18.134812   -272.32044    1311.1871    69790.478    10.472245  0.095526312 
    6500   -290.18941    18.887327   -271.30209    1365.5955     70957.03    10.472245   0.08723698 
    6600   -289.29298    16.909519   -272.38346    1222.5956    72029.667    10.472245   0.10088078 
    6700    -288.3746    16.788869   -271.58573    1213.8723    74836.462    10.472245    0.1017043 
    6800   -289.82458    19.014725   -270.80986    1374.8067    71841.103    10.472245  0.093529886 
    6900   -290.30567    16.238195   -274.06747    1174.0574    69700.305    10.472245  0.091827565 
    7000   -289.69914    18.956617   -270.74252    1370.6053    71608.945    10.472245  0.086798125 
    7100   -288.16574    16.287127   -271.87861    1177.5953    75906.203    10.472245   0.10940657 
    7200   -288.37256    19.394644   -268.97792    1402.2757    77608.235    10.472245   0.10479571 
    7300   -288.37882    17.428734   -270.95009     1260.136    74896.632    10.472245   0.10457441 
    7400   -289.90929    14.708697   -275.20059    1063.4713    68984.858    10.472245  0.097713559 
    7500   -290.44295    17.456814   -272.98614    1262.1663    69774.434    10.472245  0.089048125 
    7600   -289.97172    18.683117    -271.2886    1350.8307    70580.361    10.472245   0.10615745 
    7700   -288.85959    21.772599   -267.08699     1574.207    77331.273    10.472245   0.12465003 
    7800   -287.79513    18.199756   -269.59537    1315.8826    77812.082    10.472245   0.13436033 
    7900   -293.12136    18.287851   -274.83351    1322.2521    60782.058    10.472245   0.08181089 
    8000   -290.84633    17.025193   -273.82114    1230.9591    66849.888    10.472245  0.085721042 
    8100   -289.26954    19.281051   -269.98848    1394.0626    74461.943    10.472245   0.10419758 
    8200   -288.87072    18.255423    -270.6153    1319.9074    74626.558    10.472245   0.11203041 
    8300   -290.25864    20.511251   -269.74739    1483.0088    72750.199    10.472245  0.090412473 
    8400   -292.02991    18.496832   -273.53308    1337.3619    64249.579    10.472245  0.084652716 
    8500   -289.99145    19.554423   -270.43703    1413.8281    71169.944    10.472245   0.10477504 
    8600   -286.25575     18.06212   -268.19363    1305.9312    83950.842    10.472245   0.11790814 
    8700   -290.90397    18.133097   -272.77088    1311.0631    67963.085    10.472245  0.081310056 
    8800    -291.4986    18.784289   -272.71432    1358.1456    66545.585    10.472245  0.084203741 
    8900    -288.5235     19.57354   -268.94996    1415.2103    74922.763    10.472245   0.10535101 
    9000   -288.37199    17.666703   -270.70528    1277.3417    75356.255    10.472245  0.099059509 
    9100   -291.17903    18.368275   -272.81075    1328.0669    67902.794    10.472245  0.089615049 
    9200   -288.59258    18.717071   -269.87551    1353.2857    75639.871    10.472245  0.099335583 
    9300   -287.94806    17.569318   -270.37874    1270.3006    76611.198    10.472245   0.10716779 
    9400   -289.65314     18.80522   -270.84792     1359.659    73707.822    10.472245  0.096070902 
    9500   -291.20653    16.598899   -274.60763    1200.1371    66703.492    10.472245  0.084154221 
    9600   -291.91189    18.346169   -273.56572    1326.4686    63828.442    10.472245  0.077535249 
    9700   -287.32787    18.144854   -269.18302    1311.9131    81558.269    10.472245   0.10929544 
    9800   -288.36877    17.719331   -270.64944    1281.1468    76219.128    10.472245   0.11661334 
    9900   -290.27871    18.467957   -271.81076    1335.2741     69894.59    10.472245  0.093880135 
   10000    -291.4999    16.017681   -275.48222    1158.1138    64734.733    10.472245  0.084550846 
Loop time of 2.18269 on 1 procs for 10000 steps with 108 atoms

Performance: 395.841 ns/day, 0.061 hours/ns, 4581.497 timesteps/s
100.0% CPU use with 1 MPI tasks x no OpenMP threads

MPI task timing breakdown:
Section |  min time  |  avg time  |  max time  |%varavg| %total
---------------------------------------------------------------
Pair    | 1.4326     | 1.4326     | 1.4326     |   0.0 | 65.64
Neigh   | 0.00070673 | 0.00070673 | 0.00070673 |   0.0 |  0.03
Comm    | 0.041542   | 0.041542   | 0.041542   |   0.0 |  1.90
Output  | 0.0016632  | 0.0016632  | 0.0016632  |   0.0 |  0.08
Modify  | 0.69668    | 0.69668    | 0.69668    |   0.0 | 31.92
Other   |            | 0.009473   |            |       |  0.43

Nlocal:    108 ave 108 max 108 min
Histogram: 1 0 0 0 0 0 0 0 0 0
Nghost:    990 ave 990 max 990 min
Histogram: 1 0 0 0 0 0 0 0 0 0
Neighs:    5452 ave 5452 max 5452 min
Histogram: 1 0 0 0 0 0 0 0 0 0

Total # of neighbors = 5452
Ave neighs/atom = 50.4815
Neighbor list builds = 3
Dangerous builds = 0
    
Total wall time: 0:00:02
