LAMMPS (3 Mar 2020)
Reading data file ...
  orthogonal box = (0 0 0) to (28.63 28.63 28.63)
  1 by 1 by 1 MPI processor grid
  reading atoms ...
  1372 atoms
  read_data CPU = 0.00177388 secs
Reading potential file /usr/share/lammps-stable/potentials/Ag_u3.eam with DATE: 2007-06-11
Neighbor list info ...
  update every 1 steps, delay 10 steps, check yes
  max neighbors/atom: 2000, page size: 100000
  master list distance cutoff = 7.55
  ghost atom cutoff = 7.55
  binsize = 3.775, bins = 8 8 8
  2 neighbor lists, perpetual/occasional/extra = 1 1 0
  (1) pair eam, perpetual
      attributes: half, newton on
      pair build: half/bin/atomonly/newton
      stencil: half/bin/3d/newton
      bin: standard
  (2) compute rdf, occasional, copy from (1)
      attributes: half, newton on
      pair build: copy
      stencil: none
      bin: none
Setting up Verlet run ...
  Unit style    : metal
  Current step  : 0
  Time step     : 0.001
Per MPI rank memory allocation (min/avg/max) = 3.83 | 3.83 | 3.83 Mbytes
Step PotEng KinEng TotEng Temp Press Density c_msdall[4] 
       0      -3910.2    248.10192   -3662.0981         1400    11292.314    10.472245            0 
     100   -3760.4278    138.22577    -3622.202    779.98618    46390.652    10.472245  0.081285816 
     200    -3735.854    205.42298    -3530.431    1159.1695    55974.861    10.472245  0.096966659 
     300   -3680.2045    246.69282   -3433.5117    1392.0487    72614.396    10.472245   0.12644069 
     400   -3643.6651    263.30136   -3380.3637     1485.768    82834.234    10.472245   0.14856529 
     500   -3654.5288    249.50351   -3405.0253    1407.9089    79397.093    10.472245   0.14912577 
     600   -3674.4467    242.33879   -3432.1079    1367.4796     73993.65    10.472245   0.13471285 
     700   -3671.7078    256.24312   -3415.4647    1445.9395     75437.41    10.472245    0.1258015 
     800   -3658.7315    252.36889   -3406.3626    1424.0778    78544.958    10.472245   0.12406838 
     900   -3666.7049    242.83278   -3423.8721    1370.2671    76439.252    10.472245   0.12312494 
    1000    -3659.546    243.67812   -3415.8678    1375.0372    77743.466    10.472245   0.12404542 
    1100   -3655.2862    257.45891   -3397.8273       1452.8    79907.553    10.472245   0.12146622 
    1200   -3664.9491    238.70442   -3426.2447    1346.9714    76633.701    10.472245   0.12471738 
    1300   -3659.7313    242.83783   -3416.8935    1370.2956    78027.634    10.472245   0.12962718 
    1400   -3653.3409    247.54446   -3405.7965    1396.8543    79467.015    10.472245   0.13475969 
    1500    -3660.276    243.69574   -3416.5803    1375.1366    77741.338    10.472245   0.13452734 
    1600   -3659.1189    246.43508   -3412.6838    1390.5942    78327.992    10.472245   0.13081232 
    1700   -3660.4231    242.01073   -3418.4124    1365.6284    77582.192    10.472245   0.13119804 
    1800   -3666.7228    258.42335   -3408.2995    1458.2422    77030.769    10.472245     0.125053 
    1900   -3665.6464    255.63491   -3410.0115    1442.5075    77103.485    10.472245   0.12145428 
    2000   -3664.3844    244.46582   -3419.9186     1379.482    76744.543    10.472245   0.12020436 
    2100   -3663.0906    249.90992   -3413.1807    1410.2023    77286.746    10.472245   0.11969469 
    2200   -3658.7533    242.00353   -3416.7498    1365.5877     77847.87    10.472245   0.12719698 
    2300   -3657.1633    249.89748   -3407.2658     1410.132     78940.56    10.472245   0.12469907 
    2400   -3673.0413    247.28896   -3425.7523    1395.4126     74980.31    10.472245   0.12198727 
    2500   -3666.3619    250.44423   -3415.9176    1413.2173    76982.225    10.472245   0.12123268 
    2600   -3662.7978    245.40828   -3417.3895    1384.8002    77280.423    10.472245    0.1230109 
    2700   -3658.3799    248.90933   -3409.4706    1404.5561     78504.29    10.472245   0.11985795 
    2800   -3668.6103    241.47916   -3427.1311    1362.6288    75650.132    10.472245   0.11560023 
    2900   -3665.7832    249.16916   -3416.6141    1406.0223    76507.417    10.472245    0.1129239 
    3000   -3664.2839    246.93815   -3417.3458     1393.433    77009.745    10.472245   0.11780823 
    3100   -3655.4743    248.10887   -3407.3655    1400.0392    79410.615    10.472245   0.12259853 
    3200   -3657.0441    243.21409     -3413.83    1372.4187    78488.074    10.472245   0.12523883 
    3300   -3667.0999    244.29315   -3422.8068    1378.5077    75989.919    10.472245   0.11941299 
    3400   -3669.2294    251.34452   -3417.8849    1418.2975     75874.68    10.472245   0.11667711 
    3500   -3657.6429    245.01479   -3412.6281    1382.5798    78344.486    10.472245   0.12619768 
    3600   -3651.5774    252.78209   -3398.7953    1426.4094    80749.043    10.472245    0.1273754 
    3700   -3663.8752      248.935   -3414.9402     1404.701    77157.888    10.472245   0.12495078 
    3800   -3665.0987    251.86863   -3413.2301    1421.2549    76534.454    10.472245   0.12468273 
    3900   -3656.9155    263.43348    -3393.482    1486.5136    79973.567    10.472245   0.12207044 
    4000   -3661.5115    248.03847    -3413.473    1399.6419    77672.115    10.472245   0.12451734 
    4100   -3663.0685    254.19951   -3408.8689    1434.4077    77511.189    10.472245   0.12249549 
    4200   -3663.3279    246.43484   -3416.8931    1390.5929    77340.942    10.472245   0.12144804 
    4300   -3663.4669    246.83154   -3416.6354    1392.8314    76839.496    10.472245   0.12128275 
    4400   -3664.7056    252.78801   -3411.9176    1426.4428    77066.678    10.472245   0.12340204 
    4500   -3660.9214    253.52813   -3407.3933    1430.6193    78106.545    10.472245   0.12304385 
    4600   -3667.9374    251.06732   -3416.8701    1416.7333      76779.7    10.472245   0.11889805 
    4700   -3670.2607    249.39831   -3420.8624    1407.3153    75403.467    10.472245   0.12378754 
    4800   -3656.9202    245.82928   -3411.0909    1387.1758    78883.406    10.472245   0.12805987 
    4900    -3660.423    247.92927   -3412.4937    1399.0257    77757.441    10.472245   0.12434206 
    5000   -3668.0893    256.29725    -3411.792     1446.245    76409.296    10.472245   0.11635865 
    5100    -3662.865    237.99749   -3424.8675    1342.9823    76949.914    10.472245   0.11898333 
    5200   -3667.3473    249.44597   -3417.9014    1407.5843    76657.525    10.472245    0.1218353 
    5300   -3657.4908     246.5301   -3410.9607    1391.1305    78714.462    10.472245   0.13147293 
    5400   -3662.8439    256.15356   -3406.6903    1445.4341    77819.654    10.472245   0.12434237 
    5500   -3670.3822    250.90472   -3419.4775    1415.8158    75802.214    10.472245   0.11988752 
    5600    -3666.906    246.98485   -3419.9212    1393.6965    76283.353    10.472245    0.1234417 
    5700   -3656.6684    248.28751   -3408.3808    1401.0473    78936.404    10.472245   0.12571789 
    5800   -3662.1023    244.15926   -3417.9431    1377.7522    77390.836    10.472245    0.1243167 
    5900     -3674.76    242.98614   -3431.7739    1371.1325    74030.103    10.472245    0.1173297 
    6000   -3655.3617     248.2491   -3407.1126    1400.8305    79333.517    10.472245    0.1242435 
    6100   -3660.8006    251.28478   -3409.5158    1417.9604    78399.482    10.472245   0.12137676 
    6200   -3675.1549    249.70404   -3425.4509    1409.0405    74272.166    10.472245   0.11131964 
    6300   -3672.6522    240.43342   -3432.2188    1356.7279    74521.687    10.472245    0.1151564 
    6400   -3672.9004    255.16134   -3417.7391    1439.8352    75128.328    10.472245   0.12054438 
    6500   -3656.2581    249.47757   -3406.7806    1407.7626    78801.005    10.472245   0.12990249 
    6600   -3659.4119    247.03785    -3412.374    1393.9956    78327.996    10.472245   0.13753147 
    6700   -3662.1086    249.34194   -3412.7667    1406.9972    77479.512    10.472245   0.13813926 
    6800   -3654.9548    254.45858   -3400.4962    1435.8696    79598.602    10.472245   0.13458869 
    6900    -3660.543    243.78963   -3416.7533    1375.6664    77745.048    10.472245   0.12625539 
    7000   -3665.7348    242.04242   -3423.6924    1365.8072    76195.245    10.472245   0.11727728 
    7100   -3668.2444    235.02203   -3433.2223    1326.1922    75523.127    10.472245   0.11532641 
    7200   -3660.0592    237.95727   -3422.1019    1342.7553    77744.725    10.472245    0.1176576 
    7300   -3657.7333    249.51142   -3408.2219    1407.9536    78872.219    10.472245   0.12181959 
    7400   -3666.2444    246.39878   -3419.8457    1390.3894    76513.021    10.472245   0.11819214 
    7500   -3665.0257    242.04605   -3422.9796    1365.8277    76539.923    10.472245   0.11974969 
    7600    -3661.597    253.86978   -3407.7272    1432.5471    78262.931    10.472245   0.11807282 
    7700   -3670.0381    249.50787   -3420.5303    1407.9335     75404.32    10.472245   0.11494893 
    7800   -3673.4513    229.66641   -3443.7849    1295.9713    73836.269    10.472245   0.11704082 
    7900    -3663.339    243.93473   -3419.4043    1376.4852    77138.031    10.472245   0.11770876 
    8000   -3659.6383    251.08474   -3408.5536    1416.8316    78194.996    10.472245   0.12049824 
    8100   -3662.3569     244.1597   -3418.1972    1377.7547    77332.711    10.472245   0.12171374 
    8200   -3668.2512    254.40691   -3413.8443     1435.578    76398.758    10.472245   0.11816137 
    8300   -3657.5076     248.5521   -3408.9555    1402.5403    78844.784    10.472245   0.12130926 
    8400   -3667.2156     242.6699   -3424.5457    1369.3479    76110.263    10.472245   0.12027953 
    8500   -3660.9089    246.12659   -3414.7823    1388.8535    77934.656    10.472245   0.12225215 
    8600   -3661.6235    251.26091   -3410.3626    1417.8257    78293.134    10.472245   0.12153016 
    8700   -3664.3946    239.88162    -3424.513    1353.6142    76852.139    10.472245   0.12456847 
    8800   -3663.6714    247.51802   -3416.1533    1396.7051    77414.756    10.472245   0.12411559 
    8900   -3655.6308    244.47973   -3411.1511    1379.5606    79058.966    10.472245   0.12433017 
    9000   -3654.2272    244.35161   -3409.8755    1378.8376     79207.94    10.472245   0.12610197 
    9100   -3664.0625     237.9848   -3426.0777    1342.9107     76501.76    10.472245   0.12964024 
    9200   -3662.7042     250.5426   -3412.1616    1413.7724    77760.501    10.472245   0.12900485 
    9300    -3662.759     255.1182   -3407.6408    1439.5917    77876.032    10.472245    0.1252295 
    9400   -3671.7514    245.55064   -3426.2008    1385.6035    75076.185    10.472245   0.12269734 
    9500     -3661.39    250.70302    -3410.687    1414.6776    77439.652    10.472245   0.12744804 
    9600   -3653.5985    244.06732   -3409.5312    1377.2334    79880.529    10.472245   0.13649438 
    9700   -3655.4847    252.65031   -3402.8343    1425.6658    79522.367    10.472245   0.12644215 
    9800   -3671.3574    252.09221   -3419.2652    1422.5166    75784.938    10.472245   0.11583305 
    9900    -3660.114    236.63551   -3423.4785    1335.2969    77726.706    10.472245   0.12411554 
   10000   -3660.2431    249.40384   -3410.8393    1407.3465    78030.781    10.472245   0.12839089 
Loop time of 37.8616 on 1 procs for 10000 steps with 1372 atoms

Performance: 22.820 ns/day, 1.052 hours/ns, 264.120 timesteps/s
100.0% CPU use with 1 MPI tasks x no OpenMP threads

MPI task timing breakdown:
Section |  min time  |  avg time  |  max time  |%varavg| %total
---------------------------------------------------------------
Pair    | 23.715     | 23.715     | 23.715     |   0.0 | 62.64
Neigh   | 0.34016    | 0.34016    | 0.34016    |   0.0 |  0.90
Comm    | 0.18033    | 0.18033    | 0.18033    |   0.0 |  0.48
Output  | 0.0050101  | 0.0050101  | 0.0050101  |   0.0 |  0.01
Modify  | 13.545     | 13.545     | 13.545     |   0.0 | 35.78
Other   |            | 0.07545    |            |       |  0.20

Nlocal:    1372 ave 1372 max 1372 min
Histogram: 1 0 0 0 0 0 0 0 0 0
Nghost:    3260 ave 3260 max 3260 min
Histogram: 1 0 0 0 0 0 0 0 0 0
Neighs:    70070 ave 70070 max 70070 min
Histogram: 1 0 0 0 0 0 0 0 0 0

Total # of neighbors = 70070
Ave neighs/atom = 51.0714
Neighbor list builds = 111
Dangerous builds = 0
Total wall time: 0:00:37
