LAMMPS (3 Mar 2020)
Reading data file ...
  orthogonal box = (0 0 0) to (17.469 17.469 17.469)
  1 by 1 by 1 MPI processor grid
  reading atoms ...
  217 atoms
  read_data CPU = 0.000943785 secs
Reading potential file library.meam with DATE: 2012-06-29
Reading potential file LiSi.meam with DATE: 2020-11-07
1 atoms in group Li
Neighbor list info ...
  update every 1 steps, delay 10 steps, check yes
  max neighbors/atom: 2000, page size: 100000
  master list distance cutoff = 6
  ghost atom cutoff = 6
  binsize = 3, bins = 6 6 6
  2 neighbor lists, perpetual/occasional/extra = 2 0 0
  (1) pair meam/c, perpetual
      attributes: full, newton on
      pair build: full/bin/atomonly
      stencil: full/bin/3d
      bin: standard
  (2) pair meam/c, perpetual, half/full from (1)
      attributes: half, newton on
      pair build: halffull/newton
      stencil: none
      bin: none
Setting up Verlet run ...
  Unit style    : metal
  Current step  : 0
  Time step     : 0.005
Per MPI rank memory allocation (min/avg/max) = 9.27 | 9.27 | 9.27 Mbytes
Step PotEng KinEng TotEng Temp Press Density c_msdli[4] 
       0   -951.06911    50.256344   -900.81276         1800    -114182.3    1.8918427            0 
     100    -948.3977     34.86305   -913.53465     1248.668    -15256.63    2.1372391   0.32688662 
     200   -951.58027    43.609948   -907.97033    1561.9502     8553.797    2.2055279  0.067703988 
     300   -947.75898    45.580875    -902.1781    1632.5417    23979.466    2.2340992   0.27180674 
     400   -949.92691    51.806779   -898.12013     1855.531    11562.237    2.2016449   0.31697957 
     500   -946.30627    52.025225   -894.28105    1863.3549   -6214.7825    2.1503639  0.066217257 
     600   -942.60992     52.91288   -889.69704    1895.1475   -19336.428    2.1132867   0.15733061 
     700   -937.54913    51.142165   -886.40697    1831.7269   -13857.444    2.1111226   0.17473817 
     800   -936.68592    50.730154   -885.95576    1816.9702    -3309.812    2.1394083   0.28066891 
     900   -944.25908    48.751278    -895.5078     1746.094    8832.7447    2.1892735   0.37478774 
    1000   -934.87103    46.378601   -888.49243    1661.1133    15378.629    2.1908273   0.15068159 
    1100   -937.10907    51.634646   -885.47443    1849.3658    6523.9935    2.1667835   0.55343367 
    1200   -939.60133    46.829696   -892.77163    1677.2699   -5369.5778    2.1475048   0.31948844 
    1300   -941.96892     49.52916   -892.43976    1773.9549   -12515.483    2.1310826   0.10676989 
    1400   -934.91767    49.185255   -885.73241    1761.6375   -7963.0484    2.1333923   0.15604301 
    1500   -939.53638     49.98465   -889.55173    1790.2689    1529.8337    2.1637659   0.18994324 
    1600   -940.56808     45.60794   -894.96014     1633.511    12761.696    2.1950587   0.61254263 
    1700   -938.56763    54.104649   -884.46298    1937.8323    9984.2596     2.176203    0.3221939 
    1800   -938.03336    51.078352   -886.95501    1829.4413   -1891.1558    2.1564931   0.63039661 
    1900   -940.31066    48.841098   -891.46956     1749.311   -6883.3132    2.1426024   0.14023673 
    2000   -942.70803    43.215036     -899.493    1547.8059   -7678.6456    2.1507434   0.26200769 
    2100   -940.91266    51.559837   -889.35282    1846.6864   -5374.6263    2.1483121   0.50943473 
    2200    -935.4308    48.081352   -887.34945    1722.0997    6730.5096     2.172394   0.35193383 
    2300   -939.82492    51.976926   -887.84799     1861.625    7786.0452    2.1808373   0.31438773 
    2400   -940.12731    55.191354   -884.93595    1976.7541    1905.9837     2.170431   0.25185743 
    2500   -931.23926    54.100956    -877.1383       1937.7   -901.26308    2.1398713    0.3021593 
    2600   -940.91466    54.557922   -886.35673    1954.0669   -9725.9944    2.1404774   0.29180765 
    2700   -937.71823    48.849579   -888.86865    1749.6148   -7526.0932    2.1383191  0.033571418 
    2800   -934.57269    46.843746   -887.72894    1677.7731   -1385.2966    2.1503938   0.36765285 
    2900   -932.32828    54.979041   -877.34924    1969.1499      3364.51    2.1512253   0.13661927 
    3000   -941.02358    54.178477    -886.8451    1940.4766    6745.5276    2.1777999   0.42483155 
    3001   -940.53456    53.959592   -886.57497    1932.6369    7989.0192    2.1778994   0.33014134 
Loop time of 2.12585 on 1 procs for 3001 steps with 217 atoms

Performance: 609.843 ns/day, 0.039 hours/ns, 1411.673 timesteps/s
100.1% CPU use with 1 MPI tasks x no OpenMP threads

MPI task timing breakdown:
Section |  min time  |  avg time  |  max time  |%varavg| %total
---------------------------------------------------------------
Pair    | 1.9953     | 1.9953     | 1.9953     |   0.0 | 93.86
Neigh   | 0.083451   | 0.083451   | 0.083451   |   0.0 |  3.93
Comm    | 0.014969   | 0.014969   | 0.014969   |   0.0 |  0.70
Output  | 0.00089714 | 0.00089714 | 0.00089714 |   0.0 |  0.04
Modify  | 0.02692    | 0.02692    | 0.02692    |   0.0 |  1.27
Other   |            | 0.004284   |            |       |  0.20

Nlocal:    217 ave 217 max 217 min
Histogram: 1 0 0 0 0 0 0 0 0 0
Nghost:    955 ave 955 max 955 min
Histogram: 1 0 0 0 0 0 0 0 0 0
Neighs:    4181 ave 4181 max 4181 min
Histogram: 1 0 0 0 0 0 0 0 0 0
FullNghs:  8362 ave 8362 max 8362 min
Histogram: 1 0 0 0 0 0 0 0 0 0

Total # of neighbors = 8362
Ave neighs/atom = 38.5346
Neighbor list builds = 143
Dangerous builds = 8
Total wall time: 0:00:02
