LAMMPS (3 Mar 2020)
Reading data file ...
  orthogonal box = (0 0 0) to (17.469 17.469 17.469)
  1 by 1 by 1 MPI processor grid
  reading atoms ...
  217 atoms
  read_data CPU = 0.00100711 secs
Reading potential file library.meam with DATE: 2012-06-29
Reading potential file LiSi.meam with DATE: 2020-11-07
1 atoms in group Li
216 atoms in group Si
Neighbor list info ...
  update every 1 steps, delay 10 steps, check yes
  max neighbors/atom: 2000, page size: 100000
  master list distance cutoff = 6
  ghost atom cutoff = 6
  binsize = 3, bins = 6 6 6
  2 neighbor lists, perpetual/occasional/extra = 2 0 0
  (1) pair meam/c, perpetual
      attributes: full, newton on
      pair build: full/bin/atomonly
      stencil: full/bin/3d
      bin: standard
  (2) pair meam/c, perpetual, half/full from (1)
      attributes: half, newton on
      pair build: halffull/newton
      stencil: none
      bin: none
Setting up Verlet run ...
  Unit style    : metal
  Current step  : 0
  Time step     : 0.003
Per MPI rank memory allocation (min/avg/max) = 8.895 | 8.895 | 8.895 Mbytes
Step Temp E_pair E_mol TotEng Press Volume 
       0         1700   -951.04357            0   -903.57924   -114721.17    5330.9442 
    3200    1664.8431   -946.92559            0   -900.44285   -11960.061    4693.5678 
Loop time of 2.29039 on 1 procs for 3200 steps with 217 atoms

Performance: 362.139 ns/day, 0.066 hours/ns, 1397.142 timesteps/s
100.0% CPU use with 1 MPI tasks x no OpenMP threads

MPI task timing breakdown:
Section |  min time  |  avg time  |  max time  |%varavg| %total
---------------------------------------------------------------
Pair    | 2.1917     | 2.1917     | 2.1917     |   0.0 | 95.69
Neigh   | 0.049664   | 0.049664   | 0.049664   |   0.0 |  2.17
Comm    | 0.01497    | 0.01497    | 0.01497    |   0.0 |  0.65
Output  | 2.4599e-05 | 2.4599e-05 | 2.4599e-05 |   0.0 |  0.00
Modify  | 0.029341   | 0.029341   | 0.029341   |   0.0 |  1.28
Other   |            | 0.004716   |            |       |  0.21

Nlocal:    217 ave 217 max 217 min
Histogram: 1 0 0 0 0 0 0 0 0 0
Nghost:    957 ave 957 max 957 min
Histogram: 1 0 0 0 0 0 0 0 0 0
Neighs:    4136 ave 4136 max 4136 min
Histogram: 1 0 0 0 0 0 0 0 0 0
FullNghs:  8272 ave 8272 max 8272 min
Histogram: 1 0 0 0 0 0 0 0 0 0

Total # of neighbors = 8272
Ave neighs/atom = 38.1198
Neighbor list builds = 84
Dangerous builds = 0
Setting up Verlet run ...
  Unit style    : metal
  Current step  : 3200
  Time step     : 0.003
Per MPI rank memory allocation (min/avg/max) = 9.664 | 9.664 | 9.664 Mbytes
Step PotEng KinEng TotEng Temp Press Density c_msdli[4] c_msdsi[4] 
    3200   -946.92559    46.482739   -900.44285    1664.8431   -11960.061    2.1487509            0 5.1622056e-32 
    3300   -939.85311    45.782531   -894.07058    1639.7642     -7.24975    2.1616664  0.065036416   0.12363419 
    3400   -941.58174    51.500408   -890.08134    1844.5578    10980.873    2.1904327  0.061282568   0.10795992 
    3500   -944.60758    45.872863   -898.73472    1642.9996   -954.60706    2.1709091   0.15323063   0.12840762 
    3600   -942.17508    45.586043   -896.58904    1632.7267   -8246.3217    2.1454689   0.10853814   0.14505912 
    3700    -938.6327    48.794515   -889.83818    1747.6426    4805.2255    2.1702143  0.076212766   0.12996093 
    3800   -947.06892    47.480065   -899.58885    1700.5637     9552.387     2.201646   0.15836693   0.11961136 
    3900   -939.92865    43.141517   -896.78713    1545.1727   -3642.1984    2.1491809    1.9338147   0.13946083 
    4000   -944.81893    51.773302   -893.04562    1854.3319   -9449.0941    2.1458039    4.5726728   0.14454016 
    4100   -948.30026    49.122073   -899.17819    1759.3745    6140.3766    2.1929476    5.1393195   0.14639982 
    4200   -946.57489    48.002668   -898.57222    1719.2815    1061.1541    2.1756361    5.3340097   0.14560033 
    4300   -938.69519    46.860145   -891.83505    1678.3604   -8140.3762    2.1340252    5.4048559   0.16445535 
    4400   -945.74789    46.994184   -898.75371    1683.1612   -2708.7075    2.1681736    4.1087271   0.13202405 
    4500    -944.1481    46.977846   -897.17025    1682.5761    12012.675    2.1962114    5.4920023   0.12951819 
    4600   -938.95463    48.388425   -890.56621    1733.0979   -3537.7683    2.1489912    5.0204487   0.14099058 
    4700   -944.86346     47.07838   -897.78508    1686.1768   -9389.2837      2.14632    6.6060754   0.13374197 
    4800   -944.13115    45.903921   -898.22723     1644.112    5491.3185    2.1823688     7.170614   0.13769232 
    4900   -937.54128    47.794874    -889.7464    1711.8391    5891.5429    2.1723019    3.8300087   0.15418346 
    5000   -940.68538    44.815526   -895.86986    1605.1296   -5741.7662    2.1456435    5.1233932   0.14631644 
    5100   -942.86729    44.075034   -898.79225    1578.6079   -745.28401    2.1654089      4.55103   0.14809477 
    5200    -937.6783     47.97873   -889.69957    1718.4241    8593.1856    2.1779042    3.9363921   0.17475983 
    5300   -941.84128     46.41187   -895.42941    1662.3049   0.89089758    2.1637964    3.9635594   0.15807385 
    5400   -947.64293    47.698272   -899.94466    1708.3791   -8472.7914    2.1534878    5.1276085    0.1445242 
    5500   -936.84829    45.370055   -891.47823    1624.9908    6498.9357    2.1699835     3.869223   0.16021498 
    5600   -945.33926     49.93484   -895.40442    1788.4849    6382.9531    2.1858776     4.151327   0.15967437 
    5700   -946.83321    46.034523   -900.79869    1648.7897    -8161.404    2.1567736    2.8730885   0.15104315 
    5800   -942.51811     48.81819   -893.69992    1748.4905   -8103.0168    2.1481791    8.3067953   0.15729369 
    5900   -944.41885    49.653421   -894.76543    1778.4055    5392.1809    2.1798905    4.8629508   0.15074366 
    6000   -947.91562    47.178094   -900.73752    1689.7482    5063.6246    2.1838053    4.0465665   0.12741969 
    6100   -941.93996    48.550007   -893.38995    1738.8852   -6801.8091    2.1398081    3.4500607   0.13697965 
    6200   -943.38567    49.325106   -894.06056    1766.6464   -880.02878    2.1624646    4.0032124   0.14014077 
    6300   -947.21571    47.213055   -900.00265    1691.0004    10310.331    2.2006909    4.9212463   0.13313332 
    6400   -941.31082    49.654749   -891.65607     1778.453   -3143.7532    2.1528498    5.2070875   0.14380577 
    6500   -940.55934    47.406752   -893.15259    1697.9379   -9350.8734    2.1399741    5.2645661   0.15889726 
    6600   -945.60188    45.944856   -899.65702    1645.5781    860.86069    2.1785916    6.0868128   0.14971655 
    6700   -942.13918    48.177354   -893.96182    1725.5381    7052.1122    2.1823915    5.6007929   0.16205759 
    6800   -942.00394    49.811519   -892.19242     1784.068   -9013.1905    2.1442439    5.0999291   0.16150908 
    6900   -945.86811    45.174977   -900.69313    1618.0038   -8788.8158    2.1573115    5.5869925   0.15138259 
    7000   -941.81927    47.555991   -894.26328    1703.2831    15320.635    2.2022476    9.0997175   0.17383839 
    7100    -938.2241     47.79153   -890.43257    1711.7193    6861.1179    2.1732826     3.979848   0.17030244 
    7200   -941.29074    44.369963   -896.92077    1589.1712   -18748.156    2.1146901    10.448772   0.14844787 
    7300   -945.65573    48.027552   -897.62818    1720.1728   -633.36653    2.1696665    11.810195   0.14185859 
    7400   -938.56969    49.509113   -889.06057    1773.2369    14087.543    2.1921474    9.7348289   0.14577194 
    7500   -944.00242    48.325924    -895.6765    1730.8593   -5996.8232    2.1527952    9.9603278   0.15280822 
    7600   -943.30598    43.561698   -899.74428     1560.222   -4121.9649    2.1605074    14.645541   0.14128925 
    7700   -940.32241    49.147582   -891.17483    1760.2882    5809.1921    2.1777081    12.406888   0.14713411 
    7800   -947.13159     53.25113   -893.88046    1907.2624    184.60708    2.1735872    14.321987   0.14515251 
    7900   -947.00461    46.710146   -900.29447     1672.988   -6843.2216     2.160538    14.007511   0.12812579 
    8000   -942.46962    48.528214   -893.94141    1738.1046    970.88508    2.1671047    17.178452   0.13558331 
    8100   -943.03341    50.674207   -892.35921    1814.9663    5244.0868    2.1815785    13.509084   0.13338988 
    8200   -945.28506    44.400156    -900.8849    1590.2526     606.9015    2.1762811    13.669294   0.13099487 
    8300   -945.69434    49.553398   -896.14094     1774.823   -7463.8381    2.1516454    14.029003   0.12427446 
    8400   -944.79419    52.735376   -892.05881    1888.7899   -486.90974    2.1675073    15.818527   0.13706129 
    8500   -948.67072    47.292596   -901.37813    1693.8493    5856.1947    2.1962765    16.487266   0.13236992 
    8600   -944.81779    48.648552   -896.16924    1742.4147   -8274.2649    2.1470065    16.014791   0.12852691 
    8700   -940.83265    46.619402   -894.21325    1669.7379   -6260.3731    2.1481613    15.767186   0.14288131 
    8800     -951.227     50.87472   -900.35228     1822.148    10593.467    2.2058679    14.244661   0.12869656 
    8900   -946.24298    47.139833   -899.10314    1688.3779    3725.0702    2.1809894    14.697315   0.12084407 
    9000   -940.68315    46.765476   -893.91767    1674.9697   -15300.916    2.1200359    17.155493   0.12408819 
    9100   -945.61056    46.918769   -898.69179    1680.4602    2259.3778    2.1736875    15.406466   0.11674591 
    9200   -949.72647    50.883754   -898.84272    1822.4715    15015.681    2.2153367    12.722809   0.12084105 
    9300   -939.34813    48.093492   -891.25464    1722.5345   -5821.9534    2.1443287     12.15045   0.13732554 
    9400   -941.98983    45.629148   -896.36068    1634.2706   -7313.3892    2.1464257    13.271345   0.14485599 
    9500    -945.4066    47.202037   -898.20457    1690.6058    5220.0383     2.184665    15.091154   0.12992243 
    9600   -942.03902     52.22994   -889.80908     1870.687    1187.3803    2.1677191    11.910629    0.1516952 
    9700   -944.27082    47.787181   -896.48364    1711.5635   -4263.8722     2.156048    12.449872   0.15045795 
    9800   -943.67645    45.025998   -898.65046     1612.668   -522.88345     2.167453    12.535847   0.13689689 
    9900   -941.68742    52.269666   -889.41775    1872.1099    4076.5248    2.1718502    13.775411   0.15166479 
   10000     -944.651    48.604141   -896.04686    1740.8241   -688.00074    2.1716487     12.60819   0.15197281 
   10100   -942.58489    43.564754   -899.02013    1560.3315   -3193.6753    2.1589994    14.210093   0.14497018 
   10200    -942.8352    52.030875   -890.80432    1863.5573   -198.81719    2.1650641    13.571714   0.16027444 
   10300   -945.48032    48.609034   -896.87128    1740.9993    3965.6954    2.1845443    10.114242    0.1562387 
   10400   -944.69061    45.137266   -899.55334    1616.6532   -2663.5305    2.1649334    10.861866   0.14974429 
   10500   -938.85248    46.644482     -892.208    1670.6362   -4530.3954     2.147126    17.892394   0.15275587 
   10600   -946.33787    50.914782   -895.42308    1823.5829    2999.0038    2.1790373    10.827468   0.14277736 
   10700   -942.55554    42.674016   -899.88153    1528.4285    9084.6384    2.1908487    13.931158   0.16372611 
   10800   -941.90583    49.316912   -892.58892    1766.3529   -8904.8405     2.138788    11.008976   0.15962121 
   10900   -940.75237    46.394269    -894.3581    1661.6745   -7964.7238    2.1451244    15.024391   0.15117524 
   11000   -947.24595    47.753586   -899.49237    1710.3603     15076.74    2.2148262     19.43554   0.13183858 
   11100   -942.60673    49.274743   -893.33198    1764.8426    3984.9515    2.1748587    19.893183   0.13837797 
   11200   -940.89284    46.938208   -893.95463    1681.1564   -14014.312    2.1264812    23.205483    0.1312732 
   11300   -946.39189    46.478799   -899.91309     1664.702    3019.3419    2.1804446    20.972049   0.12225924 
   11400    -946.4747    48.619728   -897.85497    1741.3823    9917.7089    2.1999738    23.116925   0.13031865 
   11500   -938.06606    45.799292   -892.26677    1640.3645    -3074.388    2.1501834    19.467117   0.14462782 
   11600   -944.14109    43.623708   -900.51738     1562.443   -4454.3174    2.1634632    20.231366   0.13440272 
   11700   -945.49325    47.557235   -897.93601    1703.3277    4649.3592    2.1843716    19.994313   0.13571603 
   11800   -939.99141    48.516392   -891.47502    1737.6812    3110.9731    2.1683534    18.558376   0.13640652 
   11900   -945.60868    45.509897   -900.09878    1629.9995   -4149.7358    2.1645926    18.775368    0.1367248 
   12000   -944.37394    45.912124   -898.46182    1644.4058   -683.66932     2.168517    20.086612   0.14083983 
   12100   -942.87356    51.551527   -891.32203    1846.3887    2263.9122    2.1698496    20.376983   0.12999888 
   12200   -951.42771    52.104451   -899.32326    1866.1925   -3668.4281    2.1724116    19.351325   0.12263645 
   12300   -942.65492    43.583893   -899.07103     1561.017   -3504.2645    2.1592536    21.825045   0.13164113 
   12400   -941.72367    50.076246   -891.64742    1793.5495    254.71572    2.1627198    22.641415   0.13942325 
   12500   -948.18714    49.710654   -898.47649    1780.4553    6332.8492    2.1924728    19.381132   0.12956614 
   12600   -946.71796    46.985379   -899.73258    1682.8459    -5647.001    2.1625909    22.950982    0.1219256 
   12700   -940.02243     48.05883    -891.9636     1721.293   -11837.383    2.1309783    22.617605   0.13249952 
   12800   -949.22472    50.162232   -899.06249    1796.6292    9267.6254    2.2026097     21.14946   0.13951387 
   12900   -950.74048    51.765804   -898.97468    1854.0634     8248.251    2.2009482    20.866128   0.13089498 
   13000    -944.4201    50.400454   -894.01964    1805.1615   -16290.435    2.1277587    22.904494   0.12167301 
   13100   -941.53108    48.402696   -893.12839     1733.609    -4051.875    2.1524219    23.119847   0.13687276 
   13200    -949.5451    49.436884   -900.10822    1770.6499    11311.603    2.2108559    23.441014   0.14172504 
   13300    -944.2178    50.429394    -893.7884     1806.198   -2047.3617    2.1660889    22.848361   0.13632386 
   13400   -942.46928    48.211026   -894.25826    1726.7441   -8580.1117    2.1450355    23.848092   0.14433035 
   13500   -950.58889    49.185348   -901.40354    1761.6408    982.54236    2.1869322    19.536993   0.12673792 
   13600   -942.93298    48.566934   -894.36604    1739.4914    6540.0657    2.1867158    20.896977   0.13475007 
   13700   -941.46793    47.335512   -894.13241    1695.3864   -3223.9629    2.1600371    18.588435   0.13960799 
   13800   -949.17271    47.456532   -901.71618    1699.7209   -7344.3381    2.1662828    21.539813   0.11657693 
   13900   -945.16434     50.11233   -895.05201    1794.8419    5437.5289      2.18374    22.220175   0.12813997 
   14000   -940.95567    48.328609   -892.62706    1730.9555    5327.6533    2.1751914    22.504472   0.13498313 
   14100   -947.82558    46.675686   -901.14989    1671.7538   -6391.7827    2.1650195    22.128183   0.11749075 
   14200   -946.20944    50.705258   -895.50418    1816.0785   -4256.0618    2.1655511    22.105817   0.12982892 
   14300   -940.59602     49.53345   -891.06257    1774.1085    6479.8839    2.1796664     29.07716   0.14346351 
   14400   -945.08229    45.404045   -899.67824    1626.2082    1074.3098    2.1781252    37.167417   0.14402808 
   14500   -943.58029    47.923871   -895.65642    1716.4593    -11587.17    2.1422867    40.293204   0.15161192 
   14600   -940.50515    49.695249    -890.8099    1779.9036    1012.8614    2.1657681     35.42105   0.15023663 
   14700    -946.0095    49.034983   -896.97451    1756.2553     17103.89    2.2149738    37.084883   0.16911689 
   14800   -945.15844    45.759106   -899.39933    1638.9252    -8511.729    2.1520522    34.072171   0.15627385 
   14900   -938.13051    45.492824   -892.63769     1629.388   -15776.975    2.1224531    36.803245   0.17370353 
   15000   -941.65633    46.442256   -895.21408    1663.3932    12888.518    2.1985144      43.1254   0.15492663 
   15100   -946.74604     47.67223   -899.07381    1707.4464    7869.4628    2.1937354    33.427755   0.14841808 
   15200   -940.64199    48.782443   -891.85955    1747.2102    -9589.296    2.1361824    32.680398   0.16236985 
   15300   -943.95429    49.486723   -894.46757     1772.435   -5092.9565    2.1602692    30.695757   0.15262999 
   15400   -946.85374    48.085868   -898.76788    1722.2614    7587.7489     2.197417    35.714858   0.16008372 
   15500   -946.76683    55.134233   -891.63259    1974.7083   -4629.5921     2.162064    37.178627   0.14478183 
   15600   -943.38388    49.643791   -893.74009    1778.0606    -8432.023    2.1451409    37.670014    0.1571895 
   15700    -946.9968    48.241161   -898.75564    1727.8234    3962.3036      2.18772    44.665468    0.1493427 
   15800   -942.66062    51.831546   -890.82908     1856.418    3394.6784    2.1749165    32.019246   0.17461388 
   15900   -942.01558    47.788996   -894.22659    1711.6285    -4874.777    2.1512761    41.929025   0.15658364 
   16000   -943.67116    43.923139   -899.74802    1573.1675   -3838.9926    2.1632668    35.473137   0.17258481 
   16100   -942.80519    50.944848   -891.86034    1824.6597    6262.6915    2.1825325    26.450182   0.15703142 
   16200   -940.78144    47.744512   -893.03693    1710.0353    5785.8828    2.1737083    32.012222   0.17582185 
   16300   -942.15445     41.01005    -901.1444    1468.8313   -5959.3956    2.1556546    33.480464   0.14036429 
   16400   -943.36523    48.937731    -894.4275     1752.772    -3542.465    2.1616835    26.746145   0.17078354 
   16500   -943.78022    51.427411   -892.35281    1841.9434    6842.0133    2.1867054    36.609093   0.16263004 
   16600   -947.26142    46.563125   -900.69829    1667.7223   -2126.7847    2.1758343    29.530246   0.16008302 
   16700   -940.81252    46.051348   -894.76117    1649.3923   -8275.2484    2.1479545    30.348408   0.17117899 
   16800   -942.11608    50.657774   -891.45831    1814.3778    5912.0609    2.1821491    27.202774    0.1639931 
   16900   -944.23429    45.770499   -898.46379    1639.3333    10307.161     2.203935    21.616728   0.16098649 
   17000   -939.27543    44.408381   -894.86705    1590.5471   -16282.493    2.1273413    30.918582   0.19427951 
   17100   -938.99306    47.097742   -891.89532    1686.8703   -7264.4609    2.1442127    28.304332   0.19961684 
   17200   -944.61716    49.072091   -895.54507    1757.5843    17036.378    2.2196685    29.475935   0.16471236 
   17300   -944.08782     44.81655   -899.27127    1605.1663   -3268.8099    2.1767349    17.860112   0.16920266 
   17400   -941.75981     51.77516   -889.98465    1854.3985   -16007.593    2.1282552    17.726479   0.16169815 
   17500   -948.40491    52.300888   -896.10403    1873.2281    3763.4599    2.1864385    29.268942   0.14836064 
   17600   -943.93292    45.900343   -898.03258    1643.9838    4649.7761     2.189777    29.595634   0.17508693 
   17700   -943.20509    51.258481    -891.9466    1835.8929   -7279.9048    2.1511837    30.751845   0.16108653 
   17800   -945.74123    52.459924   -893.28131    1878.9242   -5361.6475    2.1578505     30.94784   0.15734985 
   17900   -948.43072    49.077868   -899.35285    1757.7913    5876.9931    2.1930604    29.383824   0.15921683 
   18000   -945.88834    53.037824   -892.85052    1899.6225    -174.4861    2.1709061    24.661421   0.15809092 
   18100   -941.93688    48.346291   -893.59059    1731.5888   -9777.9725    2.1423729    32.227838   0.18489662 
   18200   -946.30206      43.9943   -902.30776    1575.7163    999.87956    2.1798137     28.80267   0.16873576 
   18300   -943.43824    49.345092   -894.09315    1767.3622    7900.2136     2.183552    32.790077   0.15277606 
   18400   -943.49331    49.302719   -894.19059    1765.8446    -5501.958    2.1531178    29.607901   0.15190196 
   18500   -942.78558    40.595978    -902.1896    1454.0007   -4253.9826    2.1546736    27.728251   0.15314963 
   18600   -943.45929    46.955831   -896.50346    1681.7876    7934.9138    2.1866105    26.132398    0.1561642 
   18700   -943.09426    50.930685   -892.16357    1824.1524    6433.6789    2.1794964    28.679979   0.16983812 
   18800   -943.77826     44.17237   -899.60589    1582.0941   -11739.215    2.1423244    28.239255   0.15487855 
   18900   -939.20921    42.313866   -896.89535    1515.5292   -2923.6691    2.1548662    29.744552   0.16596576 
   19000   -936.87116    47.658687   -889.21247    1706.9613    15183.562    2.1910543    26.375435   0.17513421 
   19100   -945.59934    49.189078   -896.41026    1761.7744   -1429.6464    2.1675464    29.418987   0.14254461 
   19200   -941.85392    43.272707   -898.58121    1549.8714   -10223.447    2.1397597     31.26484   0.16657074 
   19300    -941.8458    52.379579   -889.46622    1876.0466    683.20889    2.1648675    29.809623   0.16685379 
   19400   -946.23803    52.079361   -894.15867    1865.2938    6395.8898    2.1851702    28.362796    0.1454016 
   19500   -943.31725    44.814886   -898.50236    1605.1067   -3339.8176    2.1606693    29.006975   0.15350518 
   19600   -939.69181    47.224796   -892.46701    1691.4209   -1843.0883    2.1553248     26.78714   0.15112328 
   19700   -940.29268    50.557312   -889.73536    1810.7796    1019.3641    2.1615768    31.884845   0.15780984 
   19800   -947.25001    47.486834   -899.76318    1700.8062    3394.1784    2.1863424    34.913761   0.15834884 
   19900   -940.68146    45.416804   -895.26466    1626.6652   -1277.6814    2.1602828    21.501193   0.14541755 
   20000   -938.96273    45.781135    -893.1816    1639.7142   -1535.5429     2.157239    25.947427   0.17042888 
   20100   -946.60128     44.76783   -901.83345    1603.4213    3734.3322    2.1930839    29.828997   0.15194063 
   20200   -944.20445    49.423506   -894.78095    1770.1707   -71.763426    2.1704363    26.343234   0.14389847 
   20300   -940.50607    46.912577    -893.5935    1680.2384   -4936.2162    2.1503101    28.539805   0.16664073 
   20400   -946.99528    45.869171    -901.1261    1642.8674   -591.10021    2.1756402     27.58497   0.14509444 
   20500   -943.24722    48.263692   -894.98353    1728.6304    6189.4834    2.1810224    18.972188   0.17482204 
   20600   -940.82958     49.41944   -891.41014    1770.0251    -3992.436    2.1490372    20.012001   0.16487248 
   20700   -943.69147    44.965061    -898.7264    1610.4854   -7598.3043    2.1534121    28.859109   0.16700768 
   20800    -945.2853    48.430118   -896.85518    1734.5912    6432.4769    2.1916818    25.344903   0.15873675 
   20900   -936.36692    47.925334   -888.44159    1716.5116    5070.5614    2.1669823    28.380746   0.18891468 
   21000   -940.52466    43.100763    -897.4239     1543.713    -10836.05    2.1391699    30.286006   0.15181413 
   21100   -943.57654    46.621806   -896.95474     1669.824   -3460.5972    2.1641008    31.536905   0.17263943 
   21200   -945.07154    55.981712   -889.08983    2005.0619    10560.733    2.1948894    25.677532   0.15842418 
   21300   -941.14903    45.230223   -895.91881    1619.9826   -864.48118    2.1637241    25.889951   0.15052241 
   21400   -945.34918    45.758747   -899.59043    1638.9124   -14627.037    2.1416304    27.083881   0.16458418 
   21500   -941.27142    50.106145   -891.16527    1794.6204    4327.6711    2.1749866    40.042692   0.15369151 
   21600   -946.00726    49.989776   -896.01748    1790.4525    5226.7646    2.1878809    21.452156   0.15551312 
   21700   -944.61494    43.936687   -900.67826    1573.6528   -4689.8021    2.1692905    29.352156   0.17301089 
   21800   -940.67733     48.06672   -892.61061    1721.5756   -2377.2486    2.1566642    31.524784   0.16328415 
   21900   -941.77996    46.695596   -895.08437    1672.4669    3137.3902    2.1744229    33.152317   0.17254055 
   22000   -941.69447    41.844086   -899.85039    1498.7034    4197.7493    2.1814624    26.967106   0.16127687 
   22100   -939.82658    48.434942   -891.39164     1734.764   -5520.2293    2.1495022    33.353837   0.14585741 
   22200   -941.16706    45.509185   -895.65788     1629.974   -903.07367    2.1617791    42.571754   0.15552848 
   22300   -945.13007    46.566632   -898.56344    1667.8479    4378.0957    2.1833233    19.804094   0.14119312 
   22400   -939.39119    49.210431   -890.18075    1762.5392   -598.42261    2.1626285     16.54254   0.14260496 
   22500   -941.97468    45.595728   -896.37896    1633.0736   -4489.9659    2.1547142    27.974728   0.16267811 
   22600   -946.54077    47.247236   -899.29353    1692.2247   -3729.2134     2.171615     29.14623   0.15689186 
   22700   -939.71621    49.800846   -889.91537    1783.6857    6625.9947    2.1756549    29.215133   0.15661904 
   22800   -943.35745    47.918708   -895.43874    1716.2744   -4150.6857    2.1600371    22.348361   0.15193143 
   22900   -947.06329    46.501529   -900.56176    1665.5161   -9252.1121    2.1543518    22.048205   0.13699059 
   23000   -941.17436    48.403228   -892.77113    1733.6281    11459.817    2.1897501    20.128219   0.14537185 
   23100   -945.60742    49.568174   -896.03925    1775.3522     6372.525    2.1870824    22.573725   0.13805427 
   23200   -944.99524    42.484475   -902.51077    1521.6398    -10041.96    2.1498584    18.616588   0.11853026 
   23300   -942.36588    46.412901   -895.95298    1662.3418   -2418.6122    2.1633978    20.534826   0.12254416 
   23400   -940.74888    47.711004   -893.03788    1708.8352     12011.79    2.1951093    23.252938   0.15303988 
   23500   -945.92561    43.275269   -902.65034    1549.9632   -1858.5839    2.1748451     23.19917    0.1238119 
   23600   -943.41794    46.408153   -897.00978    1662.1717   -9808.7024    2.1423064    22.377253   0.13637704 
   23700   -943.34108    50.044613   -893.29646    1792.4166    2192.4106     2.175158    19.080397   0.13801494 
   23800   -945.47002    45.529856   -899.94016    1630.7143    5830.9815    2.1866581    18.983472   0.12880046 
   23900    -948.6602    50.746059   -897.91414    1817.5398   -5114.5151    2.1640256    19.001077   0.13111511 
   24000   -939.96586    48.041495   -891.92436    1720.6721   -4171.2142    2.1523851    24.468544   0.13836282 
   24100   -945.65159    47.657029   -897.99456     1706.902    3263.6146    2.1771259    19.577142   0.11919516 
   24200   -945.18507     46.02707     -899.158    1648.5227    1707.1052    2.1764951    23.189104   0.11874511 
   24300   -938.95259    48.906772   -890.04582    1751.6632   -3350.1162    2.1494309    18.831366   0.12902931 
   24400   -945.13991    46.885103   -898.25481    1679.2544    1788.0865    2.1763395    19.835205   0.10984189 
   24500   -942.96545    45.015435   -897.95001    1612.2896    4206.9453    2.1784153    18.526894   0.13135869 
   24600   -937.42984    47.041175   -890.38866    1684.8443   -635.09196    2.1545204    22.490527   0.13910918 
   24700   -945.41952    46.060673   -899.35884    1649.7263   -946.51531    2.1744673     15.82365   0.13389443 
   24800   -942.05678    43.555921   -898.50086    1560.0151    2567.0716    2.1741294    19.133616   0.12649416 
   24900    -944.2038    51.762718   -892.44108    1853.9528   -388.25825    2.1679419    20.600595   0.13206909 
   25000   -948.60497    48.511085   -900.09388    1737.4911    -4027.665    2.1685028    21.965478   0.11425938 
   25100   -947.50201    47.607635   -899.89438    1705.1328   -3256.8957    2.1682734    21.311668   0.10895284 
   25200    -942.0866    49.247796    -892.8388    1763.8775    5507.6737    2.1806055    21.145892   0.14054906 
   25300   -946.08039    46.990062   -899.09033    1683.0136   -580.00357    2.1765352    16.007169   0.11533385 
   25400   -948.18693    46.178257   -902.00867    1653.9377     -9081.38    2.1604319    20.625152   0.12743065 
   25500   -943.24681    50.161558   -893.08525    1796.6051   -2885.1928    2.1636939    20.269827   0.14067747 
   25600   -944.64926    48.191471   -896.45779    1726.0437    6741.3921    2.1899805    23.486615   0.13167573 
   25700   -946.79026    45.054132   -901.73613    1613.6756   -1966.6923    2.1729937    20.934883   0.12954721 
   25800   -941.19263    49.307708   -891.88492    1766.0233   -8723.4209    2.1425332    23.823883   0.13735758 
   25900   -944.98094    49.205144   -895.77579    1762.3498    5729.7272    2.1864311    18.313482   0.12682444 
   26000   -943.82943    44.396916   -899.43252    1590.1365    4331.6003    2.1876775     18.46731   0.13832328 
   26100   -944.39513    52.471469   -891.92366    1879.3377   -11495.404    2.1432803       22.763    0.1280183 
   26200   -943.72308    49.127192   -894.59588    1759.5579   -3023.3105    2.1615312    20.136877   0.14022272 
   26300   -947.86585    48.976849     -898.889    1754.1731    6681.6006    2.1982339    20.338706    0.1360205 
   26400   -943.73925    50.751389   -892.98787    1817.7307    342.17914    2.1675981    19.759661    0.1453864 
   26500   -943.75354    49.653222   -894.10032    1778.3984   -14836.557    2.1337192    22.502799   0.13911885 
   26600   -945.40506    44.171312   -901.23375    1582.0562    5010.4593    2.1841211    23.595303   0.13226004 
   26700   -941.85457    48.341527   -893.51304    1731.4182    15837.187    2.2004508    21.331747   0.13716423 
   26800   -941.73794    46.581335    -895.1566    1668.3745   -5614.8444    2.1480401    23.337366   0.12966353 
   26900   -947.27727    43.807344   -903.46993    1569.0202   -9241.9451     2.152634    21.707916   0.10742425 
   27000   -941.40728    44.558676    -896.8486    1595.9302    8577.4776    2.1871549    18.856439   0.13770201 
   27100   -945.24407    51.847122   -893.39695    1856.9759   -304.62437    2.1737698    17.832186   0.13454532 
   27200   -945.58474    44.142398   -901.44234    1581.0206   -5033.0591    2.1593628    20.957414   0.11475897 
   27300   -946.50074    47.820632   -898.68011    1712.7616   -2434.1253     2.167625    20.754403   0.12514683 
   27400   -940.66872    48.314059   -892.35466    1730.4344    3387.0663    2.1710722    19.299159   0.12560843 
   27500   -943.38151    43.566964   -899.81455    1560.4107    902.62104    2.1734994    20.928068   0.12308063 
   27600   -945.96987    46.849133   -899.12073     1677.966    -4949.193    2.1606318    20.978863   0.12561514 
   27700   -944.48694    52.387285   -892.09965    1876.3226   -1197.0457    2.1616086    22.005205   0.12352849 
   27800   -945.44515    47.039165   -898.40598    1684.7723    3737.0299    2.1809219    23.035882   0.12247464 
   27900    -944.3381    44.538524   -899.79957    1595.2084     -260.788    2.1693888    20.933767   0.12357631 
   28000   -943.76274    52.627354   -891.13539     1884.921   -7381.6066    2.1443554    20.047365   0.12199437 
   28100   -947.65687    49.094109   -898.56276     1758.373    2683.4402    2.1831865    18.734977   0.11893451 
   28200   -944.57597     46.38803   -898.18794     1661.451    4661.7609    2.1821975    21.761731   0.12404047 
   28300   -940.59599    49.357822   -891.23817    1767.8182   -9162.6606    2.1385275    21.205926    0.1253215 
   28400     -942.087    42.273598    -899.8134     1514.087    575.82686    2.1702941    22.000107   0.14202513 
   28500   -944.87414    46.641326   -898.23281    1670.5232    9310.7921    2.1939624    19.447115   0.13738456 
   28600   -939.97853    48.514567   -891.46396    1737.6158    1416.2474     2.159456    18.804484   0.14340581 
   28700   -936.32946    41.233805   -895.09565    1476.8454   -9467.5102    2.1344316    25.288339   0.14191521 
   28800   -948.01807    48.294492   -899.72358    1729.7336    4096.2534    2.1865208    19.680245   0.15672462 
   28900   -943.61602    53.097685   -890.51834    1901.7665    10009.788    2.1889095    33.589802   0.17585861 
   29000    -938.1176    44.613137   -893.50446    1597.8808   -5081.9823    2.1428033    25.593205   0.16939224 
   29100   -943.49717    43.381331   -900.11584     1553.762    -7544.657    2.1509886    28.037742   0.15685468 
   29200   -944.03063    50.646436   -893.38419    1813.9717    8724.2118     2.188369    21.110577   0.14429009 
   29300    -943.2118    52.460798   -890.75101    1878.9555   -338.84344    2.1671986    22.371152   0.15605751 
   29400    -943.7878    44.101578   -899.68622    1579.5586   -4661.4302    2.1589467    22.342568   0.15165928 
   29500   -940.91645    46.660968   -894.25549    1671.2267    540.19644    2.1664544    22.238946   0.13500378 
   29600   -942.03349     51.62039    -890.4131    1848.8552    2958.8764    2.1654885     22.10074   0.11736937 
   29700   -945.65877     45.49218   -900.16659    1629.3649    2127.5804    2.1737673    19.820688   0.13795262 
   29800    -945.9139    50.138555   -895.77535    1795.7812   -4381.6704    2.1581316     23.32613   0.11628663 
   29900   -941.43175    49.278386   -892.15336    1764.9731   -44.172527    2.1591671    21.230312   0.13370774 
   30000   -947.09184    45.166736    -901.9251    1617.7087    4837.3498    2.1902039    21.725197   0.11869557 
   30100   -942.85444    46.406083   -896.44836    1662.0976   -1646.4657     2.163494    24.735408   0.14353239 
   30200   -942.38147    49.763655   -892.61782    1782.3537   -3557.9796     2.156709    22.943321   0.14860743 
   30300   -945.24668    44.494908   -900.75177    1593.6463    1480.4723    2.1729537    20.007351   0.15056882 
   30400    -942.8188    44.671472   -898.14733    1599.9701    4809.0733    2.1808532    22.320272   0.13226818 
   30500   -940.23076    48.045648   -892.18512    1720.8209    964.81415    2.1610199    31.257583   0.15616925 
   30600   -942.68479    44.475537   -898.20925    1592.9525   -7455.7216    2.1492587    29.039016    0.1564441 
   30700   -944.73981    47.394846   -897.34497    1697.5115    3407.7711    2.1819219    32.860554   0.15483777 
   30800   -939.29248    51.361316   -887.93117    1839.5761    9114.4638    2.1822469    48.438179   0.14312729 
   30900   -943.44394    47.459483   -895.98446    1699.8266   -11033.309    2.1391598    58.689302   0.13334865 
   31000   -940.99005     42.12699   -898.86306     1508.836   -4685.2972    2.1506321    52.703621   0.11422676 
   31100   -941.27485    48.087378   -893.18747    1722.3155    15601.683    2.2029413    48.594318   0.13943005 
   31200   -945.13109    54.451394    -890.6797    1950.2515   -4405.2536    2.1551617    55.544046   0.10765538 
   31300   -944.65707    44.468861   -900.18821    1592.7133   -7603.6619     2.147888    55.690814   0.10449519 
   31400   -943.96414    47.101098   -896.86304    1686.9905    3355.9575    2.1773943    51.343037   0.11696034 
   31500   -941.02373     48.96298   -892.06075    1753.6764    5675.5475    2.1753645     51.96341   0.12327137 
   31600   -944.22236    48.205617   -896.01675    1726.5504   -7153.8073    2.1481004    51.468221   0.11394918 
   31700   -949.03627    48.739731   -900.29654    1745.6804   -2682.1087    2.1706353    49.977856   0.10769196 
   31800   -944.70592    50.138201   -894.56772    1795.7685    6682.6116    2.1841641    50.158617   0.13701491 
   31900   -944.13016    47.746855    -896.3833    1710.1192   -3188.6684    2.1637261    51.636092   0.12352531 
   32000   -947.14544    42.659215   -904.48623    1527.8984   -2453.7714    2.1713753    52.384025   0.13140271 
   32100   -944.33579    48.042961   -896.29283    1720.7246     1815.255    2.1726351    50.196494   0.12470502 
   32200   -947.26981    52.417622   -894.85219    1877.4091    -1385.718    2.1717826    54.781267   0.11935752 
   32300   -948.40977    45.558973   -902.85079    1631.7572   -3381.3813    2.1739925    47.985261   0.13239233 
   32400   -945.33967    45.880517   -899.45915    1643.2737   -1711.6028     2.170392    52.283749   0.12880096 
   32500    -943.6721    49.584852   -894.08724    1775.9496    3970.6804    2.1774231    49.259582   0.13950279 
   32600   -946.76477    48.040228   -898.72454    1720.6268   -2539.4561    2.1727782    48.927025   0.14032988 
   32700    -948.6557    44.936951   -903.71875    1609.4786   -7112.2252    2.1643968    51.461015   0.12402369 
   32800   -942.45164    48.581766   -893.86988    1740.0227    2754.1997    2.1712269    51.944618   0.13749432 
   32900   -941.58147    47.386755   -894.19472    1697.2217    17410.499    2.2083986    50.543723   0.13663746 
   33000   -944.69816    44.856137   -899.84202    1606.5841   -9938.0501     2.148287    54.732835   0.13263011 
   33100   -940.64102    48.330882   -892.31014    1731.0369   -11768.048    2.1314713    49.989127   0.13379895 
   33200   -938.53366    48.396334   -890.13733    1733.3812    13295.042    2.1914805    45.688554   0.15132387 
   33300   -947.67514    50.255846   -897.41929    1799.9821    4294.5986    2.1853349    49.174413   0.12407518 
   33400   -942.44777     45.12874   -897.31903    1616.3478   -9453.3704    2.1458614    50.085091   0.14616918 
   33500   -943.49162    53.673634   -889.81798    1922.3949    -3335.734     2.156051    56.566437   0.13709903 
   33600    -943.0606    45.746893   -897.31371    1638.4878    8160.6538    2.1927172    53.680672   0.13961106 
   33700   -945.85806    46.875689   -898.98237    1678.9172   -5196.0372    2.1621816    51.670196   0.13968094 
   33800   -943.24743    47.948556   -895.29887    1717.3434   -4777.7149    2.1564801    47.749799   0.13211163 
   33900   -942.97986    52.393525   -890.58634     1876.546     5624.985    2.1753481    52.927794   0.14403479 
   34000   -944.81465      44.7574   -900.05724    1603.0478    2233.0212    2.1768174    51.862772   0.13978854 
   34100   -941.55629    42.100645   -899.45564    1507.8924   -7751.3813    2.1475311    58.130944   0.13416402 
   34200   -943.74726    48.108007   -895.63925    1723.0544     4773.842    2.1779965    56.874082   0.13893353 
   34300    -941.4024    46.291059   -895.11134    1657.9779    11870.048    2.1901363    60.119493   0.14078074 
   34400   -947.12361    45.322378   -901.80123    1623.2832   -9970.9128    2.1536872    55.112756   0.14043905 
   34500   -947.94345    44.775016   -903.16843    1603.6787   -6334.5007    2.1659222     53.60846   0.13534261 
   34600   -945.55585    48.396456   -897.15939    1733.3855    7289.5743    2.1945353    52.890541   0.15454444 
   34700   -942.72816    47.677321   -895.05084    1707.6287    3180.7331    2.1718842    50.040303   0.15114175 
   34800   -941.80789     47.82429    -893.9836    1712.8926   -3856.9887    2.1555374    50.921825   0.14729176 
   34900   -948.32125     44.52332   -903.79793    1594.6638    5356.9075    2.1960252    45.874223   0.14828395 
   35000   -948.95965    51.259429   -897.70022    1835.9268    -1322.781    2.1766905    50.237059   0.13017111 
   35100    -941.7134    46.195255   -895.51815    1654.5465   -6622.1053    2.1551761    56.725021   0.12817566 
   35200    -945.4669    47.889786   -897.57711    1715.2385   -2193.8345    2.1727092    51.637732   0.13592603 
   35300   -947.78201    44.241947   -903.54006    1584.5861    10416.023    2.2031829    52.788407   0.13407403 
   35400   -943.36644    47.437923   -895.92852    1699.0544   -3360.5433    2.1631015    51.957741   0.14940121 
   35500   -942.31398    46.385262   -895.92871    1661.3519   -5603.1104    2.1538406    51.892217   0.15473238 
   35600   -948.40843    46.156866   -902.25156    1653.1715    4332.1806    2.1947452    51.062089   0.13846463 
   35700   -944.85712    42.753526    -902.1036    1531.2763    5694.8308    2.1912833    50.245422   0.16269116 
   35800   -946.84708    51.385234   -895.46185    1840.4327   -8966.8251    2.1515613     53.78852    0.1394378 
   35900   -940.09999    43.710572   -896.38942    1565.5542   -4511.7595    2.1576872     57.18204   0.17849145 
   36000   -941.64675    44.914475   -896.73227    1608.6736    13298.034    2.2051716    52.400223   0.17133286 
   36100   -935.21277    50.277741   -884.93503    1800.7664   -941.52899    2.1483827    51.477121   0.16841633 
   36200   -940.12401    48.832933   -891.29108    1749.0186    -10545.96     2.135567    57.255712   0.15490973 
   36300   -945.60706    50.300116   -895.30694    1801.5677    4927.0698    2.1864917     61.74957   0.14565661 
   36400   -948.57297    50.529403   -898.04357      1809.78    8510.4015    2.2019084    64.397459    0.1386521 
   36500   -940.02186    45.706103   -894.31575    1637.0269   -9869.7133    2.1408672    57.209139   0.15916856 
   36600   -941.56009    51.118541   -890.44155    1830.8808   -9526.8837    2.1430215    62.322303   0.14195687 
   36700   -944.73751    48.793815    -895.9437    1747.6175    11738.217    2.2026633    59.512627    0.1302565 
   36800   -945.05741    47.013242   -898.04416    1683.8438    3920.1569    2.1834852    58.546028   0.12534781 
   36900   -938.51499    48.333111   -890.18188    1731.1168   -9648.2877    2.1355138     58.50785    0.1441623 
   37000    -942.5994    47.632796    -894.9666     1706.034   -44.133858    2.1689519    60.775228   0.13522107 
   37100    -944.8041    46.763522   -898.04058    1674.8998    7175.6601    2.1896799    61.527693   0.13935524 
   37200   -941.92341    46.440956   -895.48245    1663.3466    1163.6113    2.1670517    56.526242   0.14435647 
   37300   -939.39314    49.740967   -889.65217     1781.541   -2281.6759    2.1526476    59.999057    0.1420439 
   37400   -947.48001    48.331121   -899.14889    1731.0455   -1170.3896    2.1756932    59.588696   0.14066876 
   37500   -943.47537    44.883639   -898.59173    1607.5692   -1179.7855    2.1679348    61.127212   0.13201274 
   37600    -944.5277    49.276539   -895.25116    1764.9069   -1632.7434    2.1693401    63.867778   0.12690807 
   37700   -943.55979    50.250866   -893.30892    1799.8038    661.44311     2.169178     60.30121   0.12613187 
   37800   -947.70533    44.056745   -903.64858    1577.9528    1904.1875    2.1839589    58.816734   0.11302299 
   37900   -943.02672    44.169497   -898.85722    1581.9912   -4586.7054    2.1566243    62.187865   0.12651661 
   38000   -943.80835    48.952332   -894.85602     1753.295    125.23855    2.1644862    56.644303   0.12541453 
   38100   -944.80044     47.48427   -897.31618    1700.7143    9332.2873     2.191407    60.359481   0.14657928 
   38200   -950.17128    46.388866   -903.78242    1661.4809   -732.18417    2.1784844    60.406904   0.12482326 
   38300   -941.65889    45.234398   -896.42449    1620.1321   -9890.0713    2.1402143    63.021667   0.14687697 
   38400    -942.8244    48.157189   -894.66722    1724.8159    4929.3273    2.1798066    60.246415   0.14473038 
   38500   -950.17708    48.770475    -901.4066    1746.7815    10699.244    2.2099335    65.722012   0.12789437 
   38600   -941.89987    46.732703   -895.16717    1673.7959   -8512.5167    2.1407076    64.666406   0.11835069 
   38700   -937.10752    44.387764   -892.71976    1589.8087      -4615.4     2.157462    51.506657   0.17003297 
   38800    -938.6632    45.951972   -892.71123     1645.833    8486.7855    2.1881061    52.192451   0.16213007 
   38900   -944.00717    46.809872    -897.1973    1676.5599   -2150.3461    2.1716079    43.463477   0.17610036 
   39000   -944.56092    40.780105   -903.78081    1460.5955   -2231.8684    2.1781556    43.599617   0.18593457 
   39100   -939.81072    44.836898   -894.97382    1605.8951    1992.3654    2.1773439    49.330606   0.17796134 
   39200   -934.30827    42.312546   -891.99573     1515.482    5689.7804    2.1738356    43.139499   0.20857216 
   39300   -940.03016    47.979595   -892.05057    1718.4551    -3952.165     2.161669    39.220793   0.19737609 
   39400   -945.36982    43.912329   -901.45749    1572.7804   -1207.5413    2.1746312    37.755131   0.20696451 
   39500   -940.94104    46.428897   -894.51214    1662.9147    2396.1142    2.1759524    41.751138   0.19656165 
   39600   -941.57732    50.250471   -891.32685    1799.7897   -2563.0445    2.1573709    46.156746   0.18744889 
   39700   -943.42528    44.896383   -898.52889    1608.0256     -3446.43    2.1610581    45.875678   0.15156494 
   39800   -945.47861    49.536872   -895.94174    1774.2311    2918.7241    2.1792126    39.912848   0.16391167 
   39900   -939.61834    50.369263   -889.24908    1804.0444    4801.1037    2.1721237    42.282692    0.1952959 
   40000   -944.61932    47.863109   -896.75621     1714.283   -6907.4023    2.1541599    53.329278   0.14581372 
   40100   -942.27974    46.572977   -895.70676    1668.0751   -1555.8749    2.1638521     55.31251   0.15523797 
   40200   -940.85117     53.96819   -886.88298    1932.9449    3483.6938    2.1690599    52.703286   0.16561946 
   40300   -941.55044    46.356489   -895.19395    1660.3213    2198.5238    2.1744311    58.089225    0.1569277 
   40400   -945.59402    48.079459   -897.51456    1722.0318   -8327.1823    2.1525055    61.609388   0.15356945 
   40500   -939.17593    50.272347   -888.90358    1800.5732   -223.01569    2.1542236    50.858709   0.16317253 
   40600   -942.98683    48.687699   -894.29913    1743.8168     11284.21    2.1949579     61.15878   0.14532975 
   40700   -945.55054     47.89853   -897.65201    1715.5516   -5540.7376    2.1576236    61.527904    0.1560422 
   40800   -939.32565    45.504252    -893.8214    1629.7973   -3488.5138     2.149056    64.698824   0.14427515 
   40900    -938.1418    50.767629   -887.37417    1818.3124    8806.0784    2.1805785     59.99741   0.16973897 
   41000   -941.63335    52.114455   -889.51889    1866.5508   -3633.8007    2.1493155    40.639356   0.15941262 
   41100   -940.00204    43.435254   -896.56679    1555.6933   -5833.5729    2.1489647    49.685408   0.15906396 
   41200   -943.08845    48.090325   -894.99813     1722.421    11997.142    2.1909398    34.970507    0.1761049 
   41300   -944.72736     47.68661   -897.04075    1707.9614    4803.1142    2.1793056    44.455065   0.15958097 
   41400    -939.8599     51.51163   -888.34827    1844.9598   -16175.823    2.1119247    41.852883   0.15938306 
   41500   -939.07347    50.571945   -888.50152    1811.3037     5193.146    2.1640772    41.657995    0.1402121 
   41600   -946.19455    53.603516   -892.59104    1919.8835    10001.353    2.1949559    35.530682    0.1550919 
   41700   -944.87182    47.761583   -897.11023    1710.6467   -10328.821    2.1438254    39.055727   0.15874292 
   41800   -943.55127    47.119899   -896.43137    1687.6639   -9645.2456    2.1474113    35.166303   0.15652205 
   41900   -938.23877    52.804147   -885.43462     1891.253    9462.1957    2.1736267    43.859525   0.15837318 
   42000   -940.76578    49.349484   -891.41629    1767.5195    4482.8739    2.1653915    38.510111   0.15558391 
   42100   -946.84789    50.007715   -896.84017     1791.095   -8107.0849    2.1564183    38.620117   0.14138197 
   42200   -941.69559    46.454938   -895.24065    1663.8474    1937.6899    2.1680225     34.32459   0.15177345 
   42300   -936.00908    50.155884    -885.8532    1796.4019    7240.4459    2.1670986    35.224559   0.16287145 
   42400   -940.51103    45.988043   -894.52299    1647.1249    474.91563    2.1629682    23.366888   0.13809786 
   42500   -945.90542    48.299712   -897.60571    1729.9205   -7920.2531    2.1529065    14.433374   0.11927775 
   42600   -943.81994    49.109137    -894.7108    1758.9112      4533.64    2.1779296    15.822356   0.12735244 
   42700   -938.78611    52.739424   -886.04668    1888.9349    3151.2313    2.1611413    14.111625   0.12451954 
   42800   -944.04236    48.054536   -895.98782    1721.1392   -1885.8795    2.1620717    12.433883   0.12512126 
   42900   -944.37302     46.90549   -897.46753    1679.9845   -1873.9985    2.1623634    12.935601   0.11419055 
   43000   -947.74219      53.8796   -893.86259    1929.7719    2084.6872    2.1767806    13.171957   0.11150907 
   43100   -944.65938    57.957315   -886.70206    2075.8209   -5908.1142    2.1494499     15.90955   0.12351668 
   43200    -944.0882    46.833804    -897.2544     1677.417   -2267.3766    2.1670981     15.51953   0.12732109 
   43300   -943.67339    46.989713   -896.68368    1683.0011    3974.1472    2.1787552    15.052469   0.13576552 
   43400   -943.83044    48.400346   -895.43009    1733.5249   -1769.7404    2.1663404     15.71925   0.12442132 
   43500   -938.17528    53.483681    -884.6916    1915.5915   -6959.1384    2.1361485    16.184077    0.1202748 
   43600   -945.13845    50.386746    -894.7517    1804.6705    7016.2699    2.1911224    14.709909   0.13640163 
   43700   -945.09684    48.505663   -896.59118    1737.2969   -1807.9593    2.1737048    14.671377   0.13496048 
   43800   -944.67833    46.558398   -898.11993     1667.553   -10082.013    2.1474267    17.914995   0.14005003 
   43900   -945.52943    45.073149   -900.45628    1614.3567    3217.3996     2.184037     14.37195   0.12482159 
   44000    -952.4392    44.883868   -907.55533    1607.5774    14008.473    2.2245111    14.842496   0.12362828 
   44100   -945.98408    46.930141   -899.05394    1680.8674   -11315.035    2.1474538    17.037447   0.11887845 
   44200   -944.26323    46.848581   -897.41465    1677.9463   -9641.1943    2.1481007     16.74991   0.12364199 
   44300   -941.19762    47.906196   -893.29143    1715.8262    12412.898    2.1938612    14.336685   0.14226322 
   44400    -945.1828    44.146888   -901.03591    1581.1814    2263.3328     2.177613    19.077699     0.131785 
   44500   -946.31637    44.966175    -901.3502    1610.5253   -7401.3171    2.1571576     13.33487   0.13857821 
   44600   -943.60495    48.263394   -895.34156    1728.6197    969.72034    2.1767034    15.510657   0.14017234 
   44700   -941.69637    45.160561   -896.53581    1617.4875    5024.8729    2.1815769    16.112418   0.14953719 
   44800   -950.04039    44.680122   -905.36027    1600.2799    -2189.111    2.1761226    15.020684   0.12257839 
   44900   -945.11902     48.11282    -897.0062    1723.2267    -3596.926    2.1625504    16.503072   0.14003045 
   45000   -944.87984    50.088472   -894.79137    1793.9874    4559.6416    2.1839052    15.013358   0.13277886 
   45100   -946.77284    46.493352   -900.27949    1665.2233   -1096.9804    2.1768936    14.724895   0.14051859 
   45200   -948.70929    44.836545   -903.87274    1605.8824   -5865.9444    2.1685638    15.479796   0.12362744 
   45300   -942.40234      48.3648   -894.03754    1732.2517   -892.75274    2.1639884     15.49873   0.14174216 
   45400   -944.77361    48.969735   -895.80388    1753.9183    6279.6907      2.18838    15.424298   0.13390921 
   45500   -944.84627    45.852414   -898.99386    1642.2672   -1398.6656     2.171061    14.161619   0.14590595 
   45600   -938.43773    49.192306   -889.24542      1761.89   -9475.9012    2.1335916    14.642393   0.14719035 
   45700   -942.47314    50.701879   -891.77126    1815.9574    9888.9415    2.1915233    14.213075   0.13582917 
   45800   -941.61114    45.599247   -896.01189    1633.1997    7046.3515    2.1836372    16.370902   0.14798407 
   45900   -944.07646    45.051651   -899.02481    1613.5868   -15940.789    2.1301497    15.975773    0.1334066 
   46000   -942.14467    51.019305   -891.12537    1827.3265    58.490927    2.1657157    13.963489    0.1397547 
   46100   -941.23233    48.666968   -892.56536    1743.0743    14594.314    2.2001527    15.578816   0.14961578 
   46200   -944.49847    45.433707   -899.06476    1627.2706   -5239.3891    2.1592689    14.946745   0.12969887 
   46300   -942.35202     46.04205   -896.30997    1649.0593   -5270.5845    2.1565309    13.685681   0.13781623 
   46400   -937.55128    47.154389   -890.39689    1688.8992    7898.8101      2.17626    12.263775   0.13955245 
   46500   -945.44905    46.572472   -898.87657     1668.057   -241.35738    2.1743152    14.706217   0.13096684 
   46600   -946.86285    47.359989   -899.50286    1696.2631    -7875.722    2.1560736    14.392905   0.12240899 
   46700   -941.73181    47.215716   -894.51609    1691.0957    4544.7218    2.1742099    14.400838   0.12710106 
   46800   -942.60908    46.273462   -896.33561    1657.3476     5466.002      2.18153    17.708289   0.13035244 
   46900   -946.03902    42.159103   -903.87992    1509.9862     428.0395    2.1754763    16.257674   0.12784512 
   47000     -943.578    47.069947   -896.50806    1685.8748   -2056.2914    2.1606954    14.059211   0.11934349 
   47100   -944.49218    50.422521   -894.06966    1805.9518    3913.4883     2.175865    14.812238   0.12917696 
   47200   -947.77489     45.35547   -902.41942    1624.4685    3601.5809    2.1868658    13.122339   0.12593499 
   47300   -945.53958    46.794911   -898.74467     1676.024   -7839.4225    2.1545371    16.290269   0.11940891 
   47400   -944.06395     49.66285    -894.4011    1778.7432   -308.92088    2.1655599    16.633163   0.12188602 
   47500   -943.08166    46.307874   -896.77378    1658.5801    12067.507    2.1974547    14.114672   0.12446969 
   47600   -948.19356    44.567961    -903.6256    1596.2627   -4420.3598    2.1721402    16.176826   0.12611331 
   47700    -939.3326    45.559178   -893.77342    1631.7645   -13284.023    2.1306694    16.634544   0.16138217 
   47800   -940.82931    46.013953   -894.81536    1648.0529    11331.331    2.1970307     16.34473   0.15022102 
   47900   -944.07412    45.251509   -898.82261    1620.7449    12921.115    2.2039519    15.634749   0.13231838 
   48000   -940.96257     48.95158   -892.01099    1753.2681   -11306.846    2.1341094    17.622593   0.14333652 
   48100   -945.81076    53.002688   -892.80807    1898.3641   -7618.7638    2.1529381    15.910693   0.13249818 
   48200    -943.0001    45.068282   -897.93182    1614.1824    9614.0745    2.1927453    15.686615    0.1430715 
   48300   -941.80017    45.783084   -896.01709     1639.784    1161.1591    2.1720939    15.624481   0.15270228 
   48400   -939.27645    49.091827   -890.18462    1758.2912   -9593.1799     2.134598    15.756019   0.14265659 
   48500   -947.89866    47.586658     -900.312    1704.3815    3481.4248    2.1867127    14.800228   0.13223895 
   48600   -944.89533    47.956053   -896.93927    1717.6119    3538.1761    2.1818395    14.763995   0.15575297 
   48700   -939.38525    46.923897   -892.46135    1680.6438   -4285.5234     2.151241    16.578042    0.1484528 
   48800   -945.62601    43.334671   -902.29134    1552.0908   -1294.3063    2.1725801    15.588694   0.15089386 
   48900   -944.99955    46.445743   -898.55381    1663.5181    3607.4255    2.1816781    12.359296   0.14152241 
   49000   -941.94561    48.246824   -893.69878    1728.0263    -903.9429    2.1643233     12.40566   0.14060057 
   49100   -942.10418    42.296394   -899.80778    1514.9034   -3522.3553    2.1621075    14.024059   0.14372877 
   49200   -944.77729    43.709538   -901.06775    1565.5171    2391.2345    2.1790504    15.149008   0.13843273 
   49300   -943.59627    50.451516   -893.14475    1806.9903    4188.9813    2.1806128    14.754297   0.13830985 
   49400   -942.79492    44.767235   -898.02768       1603.4   -4655.9973    2.1518545    16.997668   0.13435416 
   49500    -946.9378    43.281986   -903.65581    1550.2038   -8496.3231     2.158149    15.142715   0.13997334 
   49600   -946.88367    52.207527   -894.67615    1869.8843    10704.304     2.203744    15.509916   0.14538512 
   49700   -942.90202    48.585215    -894.3168    1740.1462    6109.9397     2.181938    15.351414   0.14950838 
   49800   -945.01004    44.904872   -900.10516    1608.3297   -15988.456    2.1331817    15.377352   0.13405036 
   49900    -942.4402    47.241947   -895.19825    1692.0352    1824.4298    2.1714495    12.789492   0.13890269 
   50000   -941.98497    52.228547   -889.75642    1870.6372    7996.5393    2.1843182    13.484468   0.13774017 
   50100   -945.23954    46.842043    -898.3975    1677.7121   -4086.2444    2.1614547    13.529648   0.12541475 
   50200   -941.76828    44.562961   -897.20532    1596.0837   -4381.1839    2.1526727    15.373169   0.13285843 
   50300   -938.08943    49.378901   -888.71053    1768.5732    6880.3226    2.1703886    15.949229   0.13371028 
   50400    -943.8359    46.411254   -897.42465    1662.2828    4632.3648    2.1810832    14.052946   0.12121651 
   50500   -942.56813    43.422467   -899.14567    1555.2353   -5377.3151    2.1498871    16.172163   0.12307397 
   50600   -942.43606    50.003588   -892.43247    1790.9472   -1261.2604    2.1602933    14.483128   0.11584876 
   50700   -946.42051    47.571612    -898.8489    1703.8426    7497.1943    2.1937351    16.000356   0.11799349 
   50800   -945.84345    45.087442   -900.75601    1614.8686   -1143.1391     2.169901    15.622398   0.12077351 
   50900    -941.8944    47.025962   -894.86844    1684.2994   -2456.9507    2.1577449     14.13017   0.12583799 
   51000   -941.44882     45.56211   -895.88671    1631.8695    4667.0444    2.1751315    12.343864   0.12858914 
   51100   -946.15621    43.358244   -902.79796     1552.935    6366.6895    2.1902467    15.052984    0.1301298 
   51200   -939.14752    46.033974   -893.11355      1648.77   -8366.5339     2.139671   0.50313755    0.1253676 
   51300   -943.04866    46.708962   -896.33969    1672.9456   -1196.2107    2.1645391   0.13219743   0.12662971 
   51400   -945.63364    45.977928   -899.65571    1646.7626    10110.844    2.1992943   0.14185597   0.11418948 
   51500   -935.79876    45.762299   -890.03646    1639.0396    112.05424    2.1536554  0.030298856   0.13357592 
   51600   -939.83513    44.636245   -895.19888    1598.7084   -4563.8245    2.1530458  0.023686703   0.12924169 
   51700   -943.97733    45.924783   -898.05254    1644.8592    4393.4345    2.1818673   0.88138475   0.13584027 
   51800   -940.32014     50.53632   -889.78382    1810.0277    653.68553     2.167035    4.9771493   0.16181102 
   51900   -942.36382    48.084451   -894.27937    1722.2107   -2637.0848    2.1553335    2.9750727   0.15508436 
   52000   -943.69984    45.806425   -897.89341      1640.62    1646.9771    2.1710625    4.9732765   0.13842486 
   52100   -940.78966    50.075853    -890.7138    1793.5354    1614.4763    2.1696197    2.7765386   0.16376532 
   52200   -941.47569    49.078431   -892.39726    1757.8114   -4015.3821     2.154281    5.2917168   0.17291203 
   52300    -944.4818    46.385025   -898.09678    1661.3434   -384.21942    2.1709271    4.5062107    0.1601984 
   52400   -943.91705    50.265155   -893.65189    1800.3156    4864.2559    2.1829968    3.6753719   0.16134463 
   52500   -938.97311    48.112449   -890.86066    1723.2135   -1810.9276    2.1522323    4.2813051   0.16728808 
   52600   -945.38394    44.564064   -900.81987    1596.1231   -1033.9427    2.1685439    4.4131442   0.14429168 
   52700   -943.02789    47.142478   -895.88541    1688.4726    2346.2674    2.1761559    8.0492425   0.16325463 
   52800   -940.49242      48.2198   -892.27262    1727.0584   -954.51778    2.1655569    8.1807661   0.16155681 
   52900   -946.63957    45.113615   -901.52595    1615.8061   -4206.0969    2.1652978    7.7417083   0.14568636 
   53000   -942.58367    44.786618   -897.79705    1604.0942    1310.4032    2.1671194    6.5281115   0.15427608 
   53100   -938.53464    46.839578   -891.69506    1677.6238    7610.2252    2.1775729    4.4126232    0.1586438 
   53200   -945.55627    46.185141   -899.37113    1654.1843   -1861.6368     2.174152    9.6648788   0.14167614 
   53300   -941.84832    43.733013   -898.11531    1566.3579   -5544.9356    2.1593988    12.496198   0.15549365 
   53400   -942.95037    51.385515   -891.56485    1840.4428    2352.8037    2.1736357    7.7625598   0.13156105 
   53500   -943.75987    47.536614   -896.22326    1702.5891    7498.4564    2.1897086     7.695732   0.15510225 
   53600   -945.90447    45.564376   -900.34009    1631.9507   -11105.366    2.1490126    8.0539333   0.16212843 
   53700   -940.58189    50.032106   -890.54978    1791.9686   -7633.8734      2.14118     5.214258   0.14704088 
   53800   -942.78644    47.509078   -895.27736    1701.6029    16545.765    2.2088071    4.5194472   0.15742384 
   53900   -943.12419    45.272986    -897.8512    1621.5142    855.92585    2.1756926     13.83916   0.15658021 
   54000   -941.18306    48.066791   -893.11627    1721.5782   -11761.589    2.1337002    10.738927    0.1550387 
   54100   -940.35006    51.218398   -889.13166    1834.4573    1946.5465    2.1665393    4.5022278   0.16268395 
   54200   -944.96805    46.103256   -898.86479    1651.2514    10092.896    2.1971498    3.3109238   0.14084089 
   54300   -941.93344     46.26079   -895.67265    1656.8937   -4281.8438    2.1575828    6.3599688   0.15576083 
   54400   -937.70772    46.011285   -891.69644    1647.9574   -4942.5307    2.1495153    7.1530123   0.18185721 
   54500    -944.5518    42.804891   -901.74691    1533.1159    7317.8119    2.1944108    4.5025756   0.17052031 
   54600    -942.2075    45.929777   -896.27772    1645.0381      5263.18    2.1752095    3.9661213   0.16794028 
   54700   -942.90392    49.610414    -893.2935    1776.8651   -7182.5334    2.1519109    3.3217138   0.15387745 
   54800   -944.18683    43.129529    -901.0573    1544.7433    1381.3191    2.1758379    5.4652234   0.14517354 
   54900   -941.20953     43.48918   -897.72035    1557.6247    4634.0055    2.1811786    4.7788677   0.16091363 
   55000   -938.96055     46.36647   -892.59408    1660.6788    2909.6642    2.1628818    3.6033369   0.14496339 
   55100   -941.77159    42.426751   -899.34484    1519.5724   -2947.1128    2.1590118    5.4550493   0.16931515 
   55200   -945.58741    46.255815   -899.33159    1656.7155   -130.21297    2.1739448    5.5106594   0.16609281 
   55300    -937.8502    47.241227   -890.60898    1692.0094    7061.0016    2.1769619    4.2059053   0.15175314 
   55400   -942.52232    46.013731   -896.50859     1648.045   -6195.0915    2.1553947    6.5710385   0.16788851 
   55500   -947.28908    47.735951   -899.55313    1709.7287   -11897.499    2.1524291    5.6553273    0.1543815 
   55600   -937.47534    48.415899   -889.05944    1734.0819    11118.904    2.1854966    5.6552384   0.18190066 
   55700    -944.3358    51.265023   -893.07078    1836.1272    9774.3915    2.1921925    5.1751623   0.17219311 
   55800   -947.35077    48.563275    -898.7875    1739.3604   -15611.999    2.1390872    5.4902855   0.15460608 
   55900   -941.16673    48.493149   -892.67358    1736.8487   -2816.0748    2.1528097    6.6025381   0.16420324 
   56000   -940.10163    52.618372   -887.48326    1884.5992    12288.236    2.1885701    3.1763888   0.15320331 
   56100   -940.77435    42.865399   -897.90895    1535.2832     4300.713    2.1746209    5.7378308   0.15578547 
   56200   -942.59258    45.824626   -896.76796    1641.2719    -9285.585    2.1465511    4.2395741   0.16996382 
   56300   -941.47061     48.55009   -892.92051    1738.8882    4104.3915    2.1696476    3.7024082   0.15864003 
   56400   -945.85646    43.978416   -901.87805    1575.1474    6393.6107    2.1930554    4.7944584   0.15194589 
   56500   -943.81133    44.273104   -899.53822     1585.702   -3599.9596    2.1610945    6.2086995   0.17950232 
   56600   -944.57043    49.784607   -894.78582    1783.1041   -4859.1845     2.159494    6.5851229   0.16025449 
   56700    -943.8516    48.595368   -895.25623    1740.5098     4811.753    2.1816006    4.4209956   0.15515093 
   56800   -946.01535    41.976388   -904.03896     1503.442    5050.1767    2.1858123    8.2577861   0.13937757 
   56900   -942.40597    47.490464   -894.91551    1700.9362   -10144.209    2.1416007    9.5941841   0.13743318 
   57000   -946.80292    52.664738   -894.13818    1886.2599   -2121.0446    2.1691213    14.953771   0.13968671 
   57100   -945.71513    45.572716   -900.14241    1632.2494    7891.9938    2.1957579    14.001855    0.1473437 
   57200   -943.12317    41.880633   -901.24253    1500.0124   -2767.8113    2.1675279    15.862116   0.16523398 
   57300   -940.99454    47.556244    -893.4383    1703.2922   -7682.4245    2.1445974    15.765092   0.15548165 
   57400   -946.54129    49.666475   -896.87481     1778.873    4775.3526    2.1847554    14.856155   0.13826026 
   57500   -943.79977    43.765105   -900.03466    1567.5073    7544.0416    2.1903732    14.807541   0.13924791 
   57600   -935.39175    45.859479   -889.53227    1642.5202   -8075.2041    2.1241249    12.828711   0.15161785 
   57700   -942.14196     45.18704   -896.95492    1618.4359    250.46331    2.1677046    16.530874   0.13697333 
   57800   -943.87789    47.567621   -896.31027    1703.6997    22839.523    2.2219361     12.30518   0.14299398 
   57900   -939.66188    43.810875     -895.851    1569.1467   -7025.6707    2.1397351    15.090572   0.15177464 
   58000    -939.0262     47.32629   -891.69991    1695.0561   -18484.862      2.11075    14.923787   0.15332944 
   58100   -946.98554    47.449974   -899.53556     1699.486    12038.673    2.2068955     14.27661    0.1428842 
   58200   -945.98725    47.734621   -898.25263     1709.681    5525.0465     2.189308    16.643645   0.12436279 
   58300   -940.98388    47.919062   -893.06481     1716.287    -9187.938    2.1372426    15.591709   0.14475012 
   58400   -947.20367    46.304834   -900.89884    1658.4712   -1570.2231    2.1679038     15.77031   0.13039696 
   58500   -945.20358    46.454039   -898.74954    1663.8152    8049.9891    2.1930986    13.709426    0.1378798 
   58600    -939.9306    47.305173   -892.62543    1694.2997    2026.8288    2.1625334    14.167922   0.15048513 
   58700   -943.07069    43.928081   -899.14261    1573.3446   -6147.8734    2.1516907     15.96453    0.1236335 
   58800   -949.37172    49.290647   -900.08107    1765.4122    -708.2354    2.1787029    13.889749   0.12614979 
   58900   -944.01585     52.64038   -891.37547    1885.3875    5372.2178    2.1775776    15.586745   0.13245265 
   59000   -942.72275    44.667649    -898.0551    1599.8332   -3540.5594    2.1550041    15.255661   0.12829288 
   59100   -943.19268    42.899608   -900.29307    1536.5084   -3427.5792    2.1602406    14.645259   0.13866473 
   59200   -940.48566    49.844134   -890.64153    1785.2361    5267.4954    2.1724859    16.207078    0.1311035 
   59300   -942.17631     45.88605   -896.29026    1643.4719    4200.4373    2.1767377    13.084954   0.13773165 
   59400   -947.22994    46.450359   -900.77958    1663.6834   -9015.7627    2.1540493    12.718242   0.13577956 
   59500   -942.41448    50.571787    -891.8427     1811.298    -1857.933     2.157345    13.468305   0.13854994 
   59600   -944.00447    48.490324   -895.51415    1736.7475    8635.7585    2.1910908    15.405858   0.12806765 
   59700    -943.6468    43.523325   -900.12347    1558.8477   -832.18938    2.1659794     15.91042   0.13353992 
   59800   -942.40922    48.358567   -894.05065    1732.0285    -11483.15    2.1337271    13.708797   0.12649392 
   59900   -941.31385    49.817146   -891.49671    1784.2695     8455.937    2.1808376     15.09758     0.128183 
   60000   -945.73855    46.463832   -899.27472     1664.166    14279.775    2.2076481    15.238587   0.13863883 
   60100   -941.71806    45.862605   -895.85546    1642.6322   -14510.365    2.1268978     15.99557    0.1231794 
   60200   -942.26295    49.018406   -893.24455    1755.6615   -8086.9081    2.1433933    15.099028   0.14423018 
   60300   -946.53627     47.53762   -898.99865    1702.6251    13928.078    2.2096492    15.609021   0.14550927 
   60400   -949.43958    48.699536   -900.74005    1744.2408   -523.82284    2.1793947     14.98625   0.13269727 
   60500   -942.17632    49.268119    -892.9082    1764.6054   -9465.3821    2.1392596    15.774567   0.14684776 
   60600   -947.19701    48.563421   -898.63359    1739.3656    27.098182    2.1756105    14.852338   0.13093935 
   60700   -945.70497    45.915179   -899.78979    1644.5152    7605.9079    2.1921126     14.00452   0.13734494 
   60800    -938.4112    47.255457   -891.15574    1692.5191   -4005.5078    2.1487325    15.974967   0.14778251 
   60900   -945.62866    47.042348   -898.58631    1684.8863   -5235.8395     2.160274    15.381777    0.1350145 
   61000   -945.01205    46.625107   -898.38695    1669.9422    4985.8438    2.1841273    14.785859   0.14073949 
   61100   -936.31611    46.183186   -890.13292    1654.1142     3729.943    2.1636029    14.884948   0.16962036 
   61200   -945.21204    47.307976   -897.90406    1694.4001     -6249.38    2.1594431    15.820598   0.14541483 
   61300   -944.86131    45.661408    -899.1999     1635.426   -2106.2773    2.1671261    15.965755   0.14882681 
   61400   -944.84803    53.910993   -890.93704    1930.8963    3822.1625     2.178259    15.467763   0.14715608 
   61500   -947.11564    49.013645   -898.10199     1755.491   -2171.4144    2.1706844    15.479978    0.1364158 
   61600    -946.0643    45.564945   -900.49936    1631.9711   -10518.825    2.1513274    13.347554   0.15310288 
   61700   -940.73291    48.086462   -892.64645    1722.2827    4164.7432    2.1688976    15.456173   0.15246754 
   61800   -945.01926    47.431681   -897.58758    1698.8308    13280.057    2.2030518    14.831418   0.13911356 
   61900   -946.60644    44.708555   -901.89789    1601.2983   -7137.1836    2.1585345    13.974068   0.14471722 
   62000   -942.39723    47.763832    -894.6334    1710.7272   -13400.748    2.1358253    17.100646   0.13769194 
   62100   -943.62655     49.08871   -894.53784    1758.1796    11634.812    2.1983221    16.727799   0.15101491 
   62200   -949.88597    48.539793   -901.34618    1738.5194     5376.028    2.1983631    16.374594   0.12806804 
   62300   -939.75834    45.558084   -894.20025    1631.7253   -9571.2478    2.1382022    17.489194    0.1487381 
   62400   -943.92874    49.941922   -893.98682    1788.7385   -3738.7243    2.1610869    14.727353   0.14137396 
   62500   -947.34701     47.03613   -900.31088    1684.6636    6781.5371    2.1944109    15.395524   0.13211464 
   62600   -940.93347    47.880432   -893.05304    1714.9034   -961.40961    2.1629715    15.850335   0.15003141 
   62700   -944.96791    50.791176   -894.17673    1819.1557   -5513.6155    2.1550118    14.993551   0.13868771 
   62800   -951.11364     50.79727   -900.31637     1819.374   -1642.9316    2.1810728    13.486677   0.11601998 
   62900    -942.5359    49.210742   -893.32516    1762.5503     3409.362     2.175306    15.546374   0.13347064 
   63000   -942.73501    49.369667   -893.36534    1768.2424   -1573.5834    2.1608123    14.039759    0.1191665 
   63100   -946.00844    45.115601   -900.89284    1615.8772    -2554.824    2.1713156    15.571134   0.13315667 
   63200   -944.45451    50.320825   -894.13369    1802.3095    2603.0818    2.1766179     14.97299   0.13138669 
   63300    -943.6786    50.703383   -892.97522    1816.0113   -344.99121    2.1697419    15.682789   0.13056986 
   63400   -946.80802    45.333359   -901.47466    1623.6765    -3505.082    2.1681404    13.669149   0.12548297 
   63500   -945.71937    50.297067    -895.4223    1801.4585    -1340.386    2.1668504    13.872851   0.12225465 
   63600   -943.90248    51.626897   -892.27558    1849.0882    5372.2683    2.1847493    13.436877   0.13200324 
   63700   -945.54939    44.174443   -901.37495    1582.1684   -1424.6374    2.1741009    14.739274   0.13345068 
   63800   -940.69615     44.67294   -896.02321    1600.0227   -9461.0997    2.1404704    16.172343   0.12470537 
   63900   -942.21125    50.130663   -892.08059    1795.4985    6890.8076    2.1826326    17.345191   0.11623644 
   64000   -946.56137    47.424068    -899.1373    1698.5581    11485.534    2.2040239    14.680848   0.13952804 
   64100   -938.36977    41.025004   -897.34477    1469.3669   -7041.3857    2.1438242    14.232064   0.13643891 
   64200   -939.83316    47.521258   -892.31191    1702.0391    -7422.208    2.1448368     14.14345   0.15570491 
   64300   -945.25229    47.197827   -898.05446     1690.455    9030.2198     2.198376    15.368034   0.12811205 
   64400   -943.67418    43.757428   -899.91675    1567.2324    4666.7532    2.1852629    15.916444     0.142836 
   64500   -936.78993      45.4299   -891.36003    1627.1343   -6882.0206    2.1394631    17.577063   0.13866356 
   64600   -946.31248    47.243073    -899.0694    1692.0755    663.20184    2.1745927    12.576823   0.12510974 
   64700   -944.31787    45.829305   -898.48857    1641.4395    6607.8178    2.1886912    15.629677   0.12756342 
   64800    -938.5281    46.735716   -891.79238    1673.9039   -1229.8702    2.1537194    16.414802   0.12185954 
   64900   -943.20522    45.690953   -897.51427    1636.4842   -3436.2035    2.1586497    17.591853   0.10867058 
   65000   -946.73275    47.033717   -899.69903    1684.5772    2771.6893     2.182915    16.513944   0.12607624 
   65100   -942.98377    50.212355   -892.77141    1798.4245    3193.3151     2.171052    15.650175   0.12538516 
   65200   -944.01246    46.835804   -897.17665    1677.4886   -3494.2857     2.158111    14.187299   0.14249029 
   65300   -948.49284     47.19873   -901.29411    1690.4874   -979.13877    2.1753803    17.141378   0.13904917 
   65400    -944.8753    51.938836   -892.93647    1860.2608    1877.4429    2.1731264    14.805595   0.12259115 
   65500   -946.52934    49.128149   -897.40119    1759.5921     -1623.33    2.1686992    15.709743   0.12616209 
   65600   -948.01531    45.302608    -902.7127    1622.5751   -3045.1211    2.1695793    14.953863   0.12393645 
   65700   -943.70475    50.143646   -893.56111    1795.9635   -1104.1578    2.1662828    14.761082   0.13152975 
   65800    -942.6913    46.419263   -896.27204    1662.5697     5796.537    2.1783466    15.163989   0.13036625 
   65900   -947.63242    45.198845   -902.43357    1618.8587   -761.09962    2.1746028    16.636414   0.12441233 
   66000   -941.24118    48.410176     -892.831     1733.877   -3783.2648    2.1518283    16.052016   0.12913936 
   66100   -943.79916    48.775073   -895.02409    1746.9462    11382.807     2.196205    15.246319   0.15211809 
   66200   -947.35724     47.90526   -899.45198    1715.7927    1025.1849    2.1801575     15.32358   0.14037028 
   66300   -941.19128    48.808194   -892.38308    1748.1325    -15770.46    2.1232826    15.398345   0.14114203 
   66400   -940.15969     49.02914   -891.13055     1756.046    3339.7719    2.1727194    16.026415   0.14698634 
   66500   -946.52533    49.671541   -896.85379    1779.0545    13331.781    2.2089061     17.55252   0.13082989 
   66600   -945.45224    48.158777   -897.29346    1724.8727   -9687.8555     2.152663    15.203198   0.12815569 
   66700   -940.99906    51.438046   -889.56101    1842.3243   -9351.5862    2.1346651    14.332736   0.12928899 
   66800   -947.00135    47.309759   -899.69159     1694.464    11243.756    2.2040419    14.394865   0.12919032 
   66900    -946.4926    48.380263   -898.11234    1732.8056    861.34447    2.1763203    16.554363   0.12357488 
   67000   -941.78636    47.589888   -894.19647    1704.4972   -7154.8448    2.1434628    14.917251   0.13956864 
   67100   -940.49125    44.463486   -896.02777    1592.5208    3141.4732    2.1714995    14.516329   0.14231505 
   67200   -947.80127    45.835777   -901.96549    1641.6713    9919.3159    2.2036909    15.630819   0.13483746 
   67300   -942.57786    46.930792   -895.64706    1680.8908    -4724.058    2.1572256    13.185054   0.14273531 
   67400   -941.06626    45.436091   -895.63017     1627.356   -7993.3607    2.1460467    14.882595   0.12659013 
   67500   -948.56953    45.437432    -903.1321     1627.404    7322.9789    2.1977007    16.551585   0.12045642 
   67600   -944.13453    47.722045   -896.41248    1709.2306    3846.8923    2.1802066    16.008512   0.13057599 
   67700   -942.09201    47.061545   -895.03047    1685.5739   -7195.7539    2.1496152    16.295665   0.13368275 
   67800   -946.50702    47.271993   -899.23502    1693.1114   -3983.3415     2.161861    15.692011   0.13490427 
   67900   -947.48759    46.345757   -901.14183     1659.937    7343.3712    2.1957342    16.991115   0.13518469 
   68000   -943.52091    52.115271   -891.40564      1866.58   -4824.5831     2.154166    14.573784   0.13190223 
   68100   -943.32372     46.29166   -897.03206    1657.9994   -4129.4215    2.1569864    14.467718   0.13082072 
   68200   -948.23932    49.809766   -898.42956    1784.0052    2473.5873     2.183746    17.368653   0.12115537 
   68300    -939.7132     51.32246   -888.39074    1838.1844    3199.8531    2.1623697    12.378791   0.13730771 
   68400    -943.4377     49.02622   -894.41148    1755.9414   -2157.9719    2.1618876    15.910673   0.12950989 
   68500   -944.72595    46.331802   -898.39415    1659.4371   -1477.0319    2.1701213    15.586868   0.14289296 
   68600   -942.06637    48.629565   -893.43681    1741.7347    2921.6442    2.1742845    15.558256   0.13253797 
   68700      -938.22    47.994482   -890.22552    1718.9883   -774.14163    2.1550305    14.546891   0.14352975 
   68800   -944.80433    45.723661   -899.08067    1637.6557    346.70962    2.1736791    15.506707   0.13115665 
   68900   -944.68895    48.893499   -895.79545    1751.1878    762.65886    2.1760505    15.037468   0.13830435 
   69000   -938.17667    46.940225   -891.23645    1681.2286   -1106.4634    2.1597637    14.591604   0.15468981 
   69100   -946.60219    45.360846   -901.24134     1624.661   -2041.6011    2.1745753    16.180804   0.12791818 
   69200    -943.9937     45.03737   -898.95633    1613.0753   -1829.1331    2.1692143    17.431368   0.13898778 
   69300   -944.78268    50.505443   -894.27724    1808.9218    1445.5847    2.1743564     15.93018   0.13193601 
   69400   -947.56889    49.566059   -898.00284    1775.2765   -2011.3323    2.1710163    16.863444   0.12988067 
   69500   -948.21077    45.340792   -902.86998    1623.9428   -2127.3288    2.1747783     14.58194   0.13588443 
   69600    -944.5559    49.079032   -895.47686    1757.8329    2571.9851    2.1736932    16.274218   0.13746343 
   69700   -942.00068    46.671919   -895.32876    1671.6189    1505.9881    2.1690466    14.786804   0.13091807 
   69800   -945.03502    40.415304   -904.61971    1447.5296    -359.2886    2.1739005    13.125876   0.13045516 
   69900   -944.74112    47.005778   -897.73534    1683.5765   -1185.7647    2.1657037    17.118115   0.13319593 
   70000   -942.28524    48.145084   -894.14016    1724.3823    7946.2264     2.184294    13.657481   0.11843363 
   70100   -944.06789    44.903862   -899.16403    1608.2935   -2769.9531    2.1641307    19.607136   0.14817602 
   70200   -941.56875     48.60237   -892.96638    1740.7606   -7855.3998    2.1499559    22.586384   0.13896992 
   70300   -942.97551    52.853742   -890.12176    1893.0293    3866.0156     2.178125    17.953548   0.14430703 
   70400   -943.61314    49.282614   -894.33052    1765.1245    2488.4484    2.1749927    20.064376   0.16308308 
   70500   -940.91114    42.038228   -898.87291    1505.6569   -4857.9624    2.1544213    18.966684   0.13051653 
   70600    -946.8509    41.787831   -905.06307    1496.6885   -1187.8812    2.1733852    18.264865   0.12521515 
   70700   -944.27053    46.375492   -897.89504    1661.0019    12717.359    2.2033902    18.043746   0.12910648 
   70800   -944.01966    48.313909   -895.70575     1730.429    557.91483    2.1722317     19.29252    0.1251955 
   70900   -940.97015    43.416082   -897.55407    1555.0066    -10340.15    2.1354983    20.263135   0.13027503 
[...]
  186800   -940.35094    46.446243   -893.90469     1663.536    6566.2587    2.1772852    43.268942   0.16109463 
  186900   -947.30694    46.388196   -900.91874    1661.4569    3952.1714    2.1869221     42.94349   0.14578239 
  187000   -944.04062     44.86896   -899.17166    1607.0434   -11703.278    2.1447151    46.824268   0.15485243 
  187100   -939.70222     46.06577   -893.63645    1649.9088    -1774.874     2.155222    45.868554   0.15275307 
  187200    -946.5145    51.189281   -895.32522    1833.4144    7372.8013    2.1955605    45.232738   0.15266836 
  187300   -943.90918    43.587554   -900.32163    1561.1481    648.27901    2.1709201    29.533769   0.15210177 
  187400   -938.82986    48.446217   -890.38364    1735.1678   -13676.751     2.126567    46.275323   0.17400262 
  187500   -940.72482     48.14011   -892.58471    1724.2041    9764.0631    2.1876679    44.942005   0.16529155 
  187600   -946.16243    49.574892   -896.58753    1775.5929    8500.2009    2.1936377    51.488399   0.16301359 
  187700   -937.88356    43.255769   -894.62779    1549.2648   -8581.2163    2.1387678     41.35964   0.15156717 
  187800   -938.10908    51.313123   -886.79595      1837.85    -9552.805    2.1378716    38.985642   0.17368939 
  187900   -944.85449    49.690206   -895.16428     1779.723    9768.5206    2.1934361     42.48057   0.15197692 
  188000   -946.82869    50.636512   -896.19218    1813.6162   -2068.7098    2.1696298    35.502529   0.15641298 
  188100   -934.84855     45.87622   -888.97233    1643.1198   -2415.6065     2.142541    47.309184   0.14374325 
  188200   -943.73846     46.83052   -896.90795    1677.2994    851.62789    2.1658362    44.438195   0.13412722 
  188300   -945.31036    47.997737   -897.31262    1719.1049    2078.1264    2.1729091    47.728551    0.1388805 
  188400   -943.28746    50.423201   -892.86426    1805.9762    468.63378     2.167996    43.378346   0.15168037 
  188500   -940.31183    46.924775   -893.38705    1680.6753   -3268.4497    2.1544177     47.39712   0.14763331 
  188600   -950.35721    49.373653   -900.98355    1768.3852   -1917.7923    2.1763303    44.994509   0.15138841 
  188700   -940.54517    46.582904   -893.96227    1668.4307    7398.5378    2.1838287    44.078033   0.15523211 
  188800   -939.54639    45.529439   -894.01695    1630.6994   -1730.6824    2.1564126     47.49916   0.15380004 
  188900   -943.87783    40.462262   -903.41557    1449.2115   -2626.9958    2.1645245    44.802107   0.15394054 
  189000   -943.80301    47.123017   -896.67999    1687.7756     9692.359    2.1907398    41.541668   0.15614027 
  189100   -940.49776    47.739407   -892.75835    1709.8524    8401.6543     2.184027    43.195047    0.1639385 
  189200   -944.59736    45.615112   -898.98225    1633.7679   -16034.234    2.1299928     42.49269   0.15475352 
  189300   -944.40036    45.961108   -898.43926    1646.1602    -5427.071    2.1619469    39.957169   0.16457692 
  189400   -937.67325    48.658825   -889.01442    1742.7827     14207.22    2.1930655    37.751525   0.15734076 
  189500   -942.94263    47.837818   -895.10481    1713.3771   -3600.4333    2.1582268    56.936063   0.14756998 
  189600   -945.19813    46.465315   -898.73281    1664.2191   -9838.7386     2.152227    60.519608   0.14851472 
  189700   -937.73061    45.937267   -891.79334    1645.3063    7551.8522    2.1770496     66.32707   0.15732455 
  189800    -940.0496    47.973784   -892.07582     1718.247    3829.2506    2.1725373    71.319603   0.14744685 
  189900   -944.55417    45.659405   -898.89476    1635.3543   -6261.3427    2.1591116    68.860116   0.14023691 
  190000   -942.38362    47.184639   -895.19898    1689.9826    1178.3283    2.1700809    69.105069   0.14162134 
  190100   -939.97497    52.376662   -887.59831    1875.9421    2565.2469    2.1666931    68.498913   0.14136713 
  190200   -941.47844    43.673754   -897.80468    1564.2355    1397.5551    2.1727263    68.436251   0.15616353 
  190300   -943.14307    45.384267   -897.75881    1625.4999   -6453.1338    2.1588178    66.413223   0.15320028 
  190400    -940.6127    48.827381   -891.78532    1748.8197    4012.0545    2.1694979    69.634738   0.14307154 
  190500   -946.65146      50.6491   -896.00236    1814.0671    2657.3419    2.1808875    70.943469   0.13582778 
  190600   -944.24674    43.813488   -900.43325    1569.2402   -4480.2866    2.1610635    65.603334   0.14961683 
  190700   -941.64211    45.209209   -896.43291    1619.2299    411.02082    2.1715768    69.748056   0.14479121 
  190800   -937.11915    45.385946    -891.7332      1625.56    13790.996    2.1936039    67.712449   0.15338899 
  190900   -945.90245    46.069611   -899.83284    1650.0464   -10553.878    2.1505683     66.67063   0.13304588 
  191000    -944.7892    44.124931   -900.66427     1580.395   -12861.403    2.1419599    66.627517   0.13054548 
  191100   -941.93883    48.501347   -893.43749    1737.1424    14790.525    2.2031526     67.08766   0.14187485 
  191200   -944.43885    47.386977   -897.05188    1697.2297    4989.2461    2.1861047    59.759688   0.14792846 
  191300   -944.51649    40.397447   -904.11904    1446.8901   -11366.575    2.1493174    61.031384   0.13643499 
  191400   -944.76187    47.604989   -897.15688    1705.0381   -1578.5659    2.1692329    66.723166   0.14802885 
  191500   -939.50818    45.596956   -893.91122    1633.1176    12169.281    2.1964207    71.895135   0.17723168 
  191600   -943.42243    43.847288   -899.57514    1570.4508   -1686.2037    2.1672784    70.013187   0.15641654 
  191700   -946.87168     49.45143   -897.42025    1771.1709   -8850.7456    2.1563481    65.344348    0.1444886 
  191800   -941.68437    50.787045   -890.89733    1819.0078    2630.3255    2.1692779    61.693295   0.13989246 
  191900   -944.26681    47.695051   -896.57176    1708.2638    3432.3795    2.1773725    62.542206   0.14524424 
  192000    -943.8343    44.446806    -899.3875    1591.9234   -2172.6373    2.1645027    67.233611    0.1430418 
  192100   -934.67712    44.908924   -889.76819    1608.4748   -35.262704    2.1564248    63.736605   0.16018638 
  192200   -940.80326    46.172515   -894.63074     1653.732    9153.0975    2.1844415    64.796323   0.14045089 
  192300   -947.76205    48.919116   -898.84293    1752.1053   -4773.2826    2.1630344     66.49828   0.13729159 
  192400   -942.77791    48.809291   -893.96862    1748.1718   -5499.9457     2.150715    65.964807   0.15956864 
  192500   -937.55988    49.333871   -888.22601    1766.9603    8032.1811    2.1779356    65.964721    0.1641079 
  192600   -944.72057     46.25494   -898.46563    1656.6842    6816.7148    2.1927201    64.704286   0.15039277 
  192700   -944.32186    47.178598   -897.14326    1689.7663   -14713.563    2.1344352    67.275117   0.14500718 
  192800   -943.55471    50.146144   -893.40857     1796.053   -5574.6959    2.1539343    66.072822   0.16009466 
  192900   -946.94176    44.905155    -902.0366    1608.3398    18188.333    2.2233213    66.790126   0.13738873 
  193000   -944.86762    46.005586   -898.86203    1647.7533   -2773.9524    2.1647138    64.880621   0.12743338 
  193100   -942.42421    46.747657   -895.67656    1674.3316   -10271.315    2.1408423    71.548752   0.14786258 
  193200   -939.45732     42.95531   -896.50201    1538.5034    8546.3359    2.1829254    64.290467    0.1530345 
  193300   -948.75973     44.05595   -904.70378    1577.9244    6159.6353     2.199734    71.170869   0.14669094 
  193400   -943.05842    47.883883   -895.17454     1715.027   -6922.8445    2.1502115    68.544309   0.15830883 
  193500   -945.14199    49.709328   -895.43266    1780.4079   -12.096365    2.1697323     66.85975   0.14662829 
  193600   -946.78858    47.443151   -899.34543    1699.2416    3643.8685    2.1844106    65.642565   0.13136387 
  193700   -947.31216    45.091193   -902.22097     1615.003   -1783.7622    2.1739008    70.068619   0.14134038 
  193800   -940.97401    49.292987   -891.68103     1765.496   -6546.3146    2.1433389    71.854127   0.13567491 
  193900   -939.30559    44.221574   -895.08402    1583.8564    10205.879    2.1818837    69.825894   0.13247635 
  194000   -945.96721     48.30693   -897.66028     1730.179    5694.7012    2.1862946    66.907766   0.13231037 
  194100    -942.9313    49.320104    -893.6112    1766.4673   -5901.8794    2.1500503    70.300364   0.13681787 
  194200   -942.51184    52.584726   -889.92712    1883.3942   -5460.6112    2.1464806    67.350072   0.13164462 
  194300   -946.34382    49.878132   -896.46569    1786.4538    6731.4788    2.1897718      66.9837   0.13819661 
  194400   -943.68518    46.188351   -897.49683    1654.2992    5313.3867    2.1810525    61.719845   0.12399406 
  194500    -936.2946    47.380616   -888.91398    1697.0018   -9489.3224    2.1267528    71.754021   0.14187065 
  194600   -941.98004    48.859285   -893.12075    1749.9624    906.03866    2.1670665    61.787942   0.12813236 
  194700   -950.80478    54.613052   -896.19172    1956.0415    8806.1024     2.203705    64.990346   0.11615001 
  194800   -940.76567    43.557185   -897.20849    1560.0604   -6558.7868    2.1499579    67.730039   0.13104433 
  194900   -937.01323    45.836247   -891.17698    1641.6881   -11560.242    2.1237072    67.288828   0.12105911 
  195000   -946.56371    50.689241   -895.87447    1815.5048    12827.945    2.2026884    65.875915   0.12067984 
  195100   -946.56783    47.033099   -899.53473     1684.555    4329.4556    2.1878328    66.186271   0.11926377 
  195200   -939.60921     42.28603   -897.32318    1514.5322   -6520.5556    2.1441271    69.013515    0.1316265 
  195300   -942.72663    48.412615   -894.31402    1733.9643   -804.92663    2.1653355    60.910121   0.12776158 
  195400   -945.77147    42.947652   -902.82382    1538.2291    7490.4796    2.1932695    65.787459   0.10488343 
  195500   -947.47705    46.573581   -900.90347    1668.0968   -3653.2238    2.1680424    65.369109   0.10891499 
  195600   -943.52433    47.592726    -895.9316    1704.5988   -2483.7846    2.1628508    68.386643   0.10519274 
  195700   -943.30981    47.538401   -895.77141    1702.6531    3073.0965    2.1776209    69.295636   0.11899505 
  195800   -949.33708    44.305788   -905.03129    1586.8726    3972.2416    2.1950743     65.30901   0.12371527 
  195900   -939.85177    43.111805   -896.73997    1544.1085   -4309.8535    2.1537754    66.660546   0.13028864 
  196000   -942.33307    46.900192   -895.43287    1679.7948    648.77106    2.1698317    65.159699   0.12432986 
  196100   -947.48977    48.891874   -898.59789    1751.1296    5309.5223    2.1927385    64.686304   0.12792865 
  196200   -947.29251     40.66598   -906.62653    1456.5079   -1669.5268     2.177611    67.709607    0.1110922 
  196300    -947.0793    47.840258   -899.23904    1713.4645   -10173.994    2.1542414    65.712104   0.11419189 
  196400   -942.51173    46.354484   -896.15725    1660.2495    14004.677    2.2022684    63.311395   0.11587402 
  196500   -941.83948    46.003688    -895.8358    1647.6853    5502.1444    2.1810077    68.742636   0.11205923 
  196600   -945.03051    48.847973   -896.18253    1749.5572   -18625.256    2.1250318    63.104737   0.13276346 
  196700   -949.30337    42.995601   -906.30777    1539.9465    3902.5865    2.1993192    67.126083    0.1282577 
  196800   -946.55723    49.009226   -897.54801    1755.3327    11345.662    2.2066454    66.400294    0.1432056 
  196900   -941.24749    44.866191    -896.3813    1606.9443   -6255.7461    2.1494714    66.107372   0.14223372 
  197000   -943.26256    47.840555     -895.422    1713.4752   -6326.8175    2.1554868    70.201362   0.14134577 
  197100    -951.3525    46.240477   -905.11202    1656.1662    4470.9015    2.2001631    66.807326   0.12662882 
  197200   -943.65854    46.032884   -897.62566     1648.731   -2402.0204    2.1655103    69.455754   0.14018691 
  197300   -942.14852     46.38902    -895.7595    1661.4865   -2640.6289    2.1632864    68.569993   0.13690166 
  197400   -945.99429    47.151444   -898.84284    1688.7937    986.17099    2.1809907    69.240506    0.1506532 
  197500   -950.79967    45.119588   -905.68008      1616.02    1508.9682    2.1908131    63.137207   0.12058126 
  197600    -942.9999    47.334242   -895.66565    1695.3409   -5970.7757    2.1530755    70.285843   0.13864615 
  197700   -943.61512    47.332909   -896.28222    1695.2931   -216.02672    2.1682865    66.863819   0.13226016 
  197800    -942.2157    42.521071   -899.69463    1522.9506     10507.21    2.1939306    70.611357   0.14423263 
  197900   -949.60431    41.794344   -907.80996    1496.9218   -3994.1675    2.1752659     68.52904   0.12529219 
  198000   -944.62325    45.227905   -899.39534    1619.8995   -7475.5198    2.1520919    62.209213   0.12855314 
  198100   -943.19694    46.551013   -896.64593    1667.2885    12046.859    2.1977803    63.429831   0.12907659 
  198200   -944.32163    48.538414   -895.78322      1738.47    750.20262    2.1751033    65.351823   0.11672577 
  198300   -942.01474    47.849064   -894.16568      1713.78   -10081.854    2.1362374    66.744739    0.1345937 
  198400   -949.36703    44.356676   -905.01035    1588.6953    4558.8733    2.1961186    66.140692   0.11958401 
  198500   -945.83373    47.041952   -898.79178    1684.8721    6100.5917    2.1884598    68.417834   0.12024842 
  198600   -948.74319      53.1266   -895.61659    1902.8021   -7563.2608    2.1563736    63.816694   0.11844837 
  198700   -946.54108    51.736374   -894.80471    1853.0093   -4740.7867    2.1631334    63.398523   0.14216204 
  198800   -951.46985    47.212674   -904.25717    1690.9868    3536.6992    2.1984127    66.029099   0.12157919 
  198900   -944.42978    47.921234   -896.50855    1716.3648   -1438.9508    2.1683705     63.64138   0.12531708 
  199000   -947.10806    51.878129   -895.22993    1858.0865   -4811.7075    2.1627684    63.722102   0.12537366 
  199100   -950.24775    48.037286   -902.21046    1720.5214   -665.78726    2.1821475    62.579324   0.11621054 
  199200   -943.82136    43.670373   -900.15099    1564.1144    4417.7704    2.1843917    65.312594   0.14505613 
  199300     -941.019    46.448321   -894.57068    1663.6104    294.95876    2.1668855    63.475925   0.13691571 
  199400   -944.59636    46.040342   -898.55602    1648.9981   -4028.7064    2.1656998    68.739983   0.11632318 
  199500   -947.31691     45.29426   -902.02265    1622.2761    519.73211    2.1822607    66.329774   0.11956492 
  199600   -939.82896    48.459268   -891.36969    1735.6352    438.24706    2.1592791    68.857882   0.13835385 
  199700   -941.62757    46.232419   -895.39515    1655.8776    3213.3562    2.1720628    62.508043   0.13752328 
  199800   -945.31508    46.146576    -899.1685     1652.803    680.65899    2.1722924    63.056863   0.11813364 
  199900   -941.64435    49.627967   -892.01639    1777.4938   -2120.3208    2.1559635    66.208744   0.13251785 
  200000   -942.15786    50.600616   -891.55725    1812.3306    4243.3296     2.171712    69.258495   0.13162909 
  200100   -944.11376    46.252024   -897.86173    1656.5798    -1553.087    2.1641792    69.239777    0.1157518 
  200200   -943.62167    46.813915   -896.80776    1676.7047   -3843.3881    2.1586795    65.730468   0.13277784 
  200300     -941.162    53.613547   -887.54846    1920.2428    1134.6261    2.1626874    67.777835   0.12743273 
  200400    -945.5445     48.80619   -896.73831    1748.0607    5127.1328    2.1873513    65.243771    0.1281351 
  200500    -942.5396    44.095657   -898.44395    1579.3465   -8171.4087    2.1487454     66.45016   0.13551901 
  200600   -942.09621    50.279124   -891.81709    1800.8159   -4467.7044    2.1504798    66.525316   0.13473404 
  200700   -947.17198    48.261497   -898.91048    1728.5518    7382.6323    2.1984158    70.221176   0.14129902 
  200800   -944.44815    44.416432   -900.03172    1590.8355   -2606.6241     2.168622    69.408389    0.1338633 
  200900   -944.63487     48.70915   -895.92572    1744.5851   -9066.1573    2.1465138    69.151098   0.12459109 
  201000   -938.85908    46.496645   -892.36244    1665.3412    5324.8254    2.1735104    63.503938   0.14728595 
  201100    -945.5511     43.20603   -902.34507    1547.4833      9392.86    2.1987746    66.846846   0.12990422 
  201200   -939.28152    42.237779   -897.04374    1512.8041   -6649.7366    2.1456749    71.133617    0.1448455 
  201300   -946.71833    52.091692   -894.62664    1865.7355    -7119.016    2.1578592    68.946204    0.1416017 
  201400   -950.89539    50.369922   -900.52547    1804.0679    5234.6198    2.1981635    70.008318   0.12554393 
  201500   -945.24821    43.318708    -901.9295     1551.519    2522.8149    2.1816331    72.037515   0.13364807 
  201600   -943.59979    49.404681   -894.19511    1769.4965   -9543.9685    2.1468031    63.321963   0.14372153 
  201700   -944.72015    47.232083   -897.48806    1691.6819    452.55287    2.1738787    68.077615   0.14066457 
  201800   -942.41464    40.987065   -901.42758     1468.008    9275.8111    2.1936998    66.538987   0.13948096 
  201900   -939.24534    48.197945   -891.04739    1726.2756   -1823.9944    2.1539594    62.741011   0.14601427 
  202000   -944.06137    47.925937   -896.13544    1716.5333   -1661.8708    2.1681435    67.113185    0.1375821 
  202100   -946.28374    46.648541    -899.6352    1670.7816    393.46879    2.1795615    68.955238   0.13525648 
  202200    -937.6181    47.420034   -890.19806    1698.4136      1992.03    2.1614122    70.744831   0.14705104 
  202300   -941.17741    46.589315   -894.58809    1668.6603    1954.4696     2.168199    72.768979   0.14195981 
  202400    -946.6614    47.066177   -899.59522    1685.7398   -3169.7944    2.1726643    69.007152   0.13484389 
  202500   -942.23192    49.870167   -892.36175    1786.1685    2028.9609    2.1715851    64.813323   0.15135417 
  202600   -941.61459    48.453587   -893.16101    1735.4318    1197.2684    2.1715341    64.278334   0.14045789 
  202700   -944.07509    44.256764   -899.81833    1585.1168   -2022.3591    2.1700584    66.872933    0.1418383 
  202800   -943.94293    49.429526    -894.5134    1770.3864   -304.90315     2.170595    60.851425   0.13764559 
  202900    -938.9995    48.024189   -890.97532    1720.0523    6476.3649    2.1734726    66.747297   0.15134529 
  203000   -944.43575    43.679605   -900.75614    1564.4451    2293.3108    2.1780319    71.465659   0.14001861 
  203100    -945.2238     48.36381   -896.85999    1732.2163   -8707.8947    2.1532869    66.013952   0.14701837 
  203200   -939.81186     47.15358   -892.65828    1688.8702    4971.8978    2.1699211    66.067873   0.13343758 
Loop time of 142.284 on 1 procs for 200000 steps with 217 atoms

Performance: 364.342 ns/day, 0.066 hours/ns, 1405.639 timesteps/s
100.0% CPU use with 1 MPI tasks x no OpenMP threads

MPI task timing breakdown:
Section |  min time  |  avg time  |  max time  |%varavg| %total
---------------------------------------------------------------
Pair    | 136.46     | 136.46     | 136.46     |   0.0 | 95.90
Neigh   | 2.6971     | 2.6971     | 2.6971     |   0.0 |  1.90
Comm    | 0.92718    | 0.92718    | 0.92718    |   0.0 |  0.65
Output  | 0.06934    | 0.06934    | 0.06934    |   0.0 |  0.05
Modify  | 1.8358     | 1.8358     | 1.8358     |   0.0 |  1.29
Other   |            | 0.2993     |            |       |  0.21

Nlocal:    217 ave 217 max 217 min
Histogram: 1 0 0 0 0 0 0 0 0 0
Nghost:    951 ave 951 max 951 min
Histogram: 1 0 0 0 0 0 0 0 0 0
Neighs:    4201 ave 4201 max 4201 min
Histogram: 1 0 0 0 0 0 0 0 0 0
FullNghs:  8402 ave 8402 max 8402 min
Histogram: 1 0 0 0 0 0 0 0 0 0

Total # of neighbors = 8402
Ave neighs/atom = 38.7189
Neighbor list builds = 4560
Dangerous builds = 85
Total wall time: 0:02:24
