LAMMPS (3 Mar 2020)
Reading data file ...
  orthogonal box = (0 0 0) to (17.469 17.469 17.469)
  1 by 1 by 1 MPI processor grid
  reading atoms ...
  217 atoms
  read_data CPU = 0.000966944 secs
Reading potential file library.meam with DATE: 2012-06-29
Reading potential file LiSi.meam with DATE: 2020-11-07
1 atoms in group Li
Neighbor list info ...
  update every 1 steps, delay 10 steps, check yes
  max neighbors/atom: 2000, page size: 100000
  master list distance cutoff = 6
  ghost atom cutoff = 6
  binsize = 3, bins = 6 6 6
  2 neighbor lists, perpetual/occasional/extra = 2 0 0
  (1) pair meam/c, perpetual
      attributes: full, newton on
      pair build: full/bin/atomonly
      stencil: full/bin/3d
      bin: standard
  (2) pair meam/c, perpetual, half/full from (1)
      attributes: half, newton on
      pair build: halffull/newton
      stencil: none
      bin: none
Setting up Verlet run ...
  Unit style    : metal
  Current step  : 0
  Time step     : 0.000564419
Per MPI rank memory allocation (min/avg/max) = 9.27 | 9.27 | 9.27 Mbytes
Step PotEng KinEng TotEng Temp Press Density c_msdli[4] 
       0   -951.06911    50.256344   -900.81276         1800    -114182.3    1.8918427            0 
     100   -931.49931    27.646877   -903.85243    990.21087   -69114.478    1.9716981   0.28329311 
     200   -954.57831    44.147551   -910.43076    1581.2052    -15981.19    2.1464911   0.31557637 
     300   -954.13825    47.973951    -906.1643     1718.253    33271.372    2.2676725   0.30831744 
     400   -952.28187    49.466292   -902.81558    1771.7032    44511.937    2.2908554   0.73093146 
     500   -949.02865    46.390552    -902.6381    1661.5413    28024.517    2.2395568   0.54986299 
     600    -946.2159    47.758283   -898.45762    1710.5285   -6769.6947    2.1568036   0.33879113 
     700   -940.74504     47.38452   -893.36052    1697.1417    -25564.47     2.092997   0.20572409 
     800   -938.97208    54.480594   -884.49148    1951.2973   -30534.116    2.0738684   0.13995836 
     900   -935.27328    48.868237   -886.40504     1750.283   -15058.543    2.1000331   0.10106842 
    1000   -940.71327    50.203283   -890.50999    1798.0995   -134.65504    2.1541483   0.83745398 
    1100   -947.58244     48.74598   -898.83645    1745.9042    15220.203     2.209065    0.4187707 
    1200   -950.16267    56.866841   -893.29583     2036.764    25405.057    2.2357497   0.21914442 
    1300   -946.04809    47.391431   -898.65666    1697.3892     18335.78    2.2165053   0.32726512 
    1400   -942.85222    49.562819    -893.2894    1775.1604    920.62169    2.1656397   0.14770899 
    1500   -938.40501    56.073763   -882.33125    2008.3588   -15128.978    2.1133708   0.42042737 
    1600   -938.50441    53.701297   -884.80311    1923.3857   -25350.873    2.0839098   0.20096746 
    1700   -931.59889    44.598903   -886.99998     1597.371   -17160.102    2.0939706    0.9793664 
    1800   -937.30464    51.474249   -885.83039    1843.6209   -3826.1939    2.1356335   0.10298738 
    1900   -943.82273    51.527814   -892.29492    1845.5394    8806.8037     2.185193    0.5243832 
    2000    -943.4851    48.109856   -895.37525    1723.1206    21935.261    2.2191297   0.28092902 
    2100   -944.94247    47.982043   -896.96043    1718.5428    20346.795    2.2176061   0.35980648 
    2200   -951.02358    49.628497   -901.39509    1777.5128    2465.4518    2.1843104   0.18359324 
    2300   -941.81052     49.99324   -891.81728    1790.5766   -7054.2643    2.1446706   0.14818876 
    2400   -937.43917    49.307167     -888.132    1766.0039    -13361.71    2.1163518  0.087338481 
    2500   -936.76828    48.232622   -888.53565    1727.5176   -14395.407    2.1116667   0.02532434 
    2600   -943.63135    47.278598   -896.35275    1693.3479   -12924.241    2.1334466    0.1169494 
    2700   -950.20874    48.819866   -901.38887    1748.5506   -1095.8038    2.1761771   0.27261629 
    2800   -942.45857    51.901115   -890.55746    1858.9097    21369.919    2.2156743   0.61252815 
    2900   -941.60472    49.699692   -891.90502    1780.0627    22883.109    2.2186019   0.78082058 
    3000    -946.7005    45.898888   -900.80161    1643.9317    4426.4659    2.1847709   0.42194206 
    3100   -943.52821    50.364933   -893.16327    1803.8893   -8615.6434    2.1428889 0.0048949041 
    3200   -940.54236    53.622029   -886.92034    1920.5466    -17002.47    2.1151025      0.11738 
    3300   -937.64403    50.521383   -887.12264    1809.4927   -13774.521    2.1116339   0.21487097 
    3400   -943.61552    49.379931   -894.23559    1768.6101   -13898.221    2.1325251   0.53148812 
    3500   -942.95374    46.355446   -896.59829     1660.284    3021.2808    2.1727018   0.24899356 
    3600   -938.82591    50.075288   -888.75062    1793.5152    23589.411    2.2087002   0.32312223 
    3700   -946.81005    49.345852    -897.4642    1767.3894    15549.127    2.2120796   0.23973349 
    3800   -943.65349    49.871902   -893.78159    1786.2307     9963.646    2.1865781   0.35968721 
    3900   -938.34286    45.734699   -892.60816     1638.051   -3531.4132    2.1479935   0.12265773 
    4000   -934.67279    51.006708   -883.66608    1826.8753   -10544.357    2.1165139   0.14276023 
    4100   -937.17236     49.02681   -888.14555    1755.9625   -17188.023    2.1056095   0.18163675 
    4200   -940.08045     46.85697   -893.22348    1678.2467   -13219.354    2.1254971   0.19042195 
    4300   -939.09665    54.154805   -884.94184    1939.6287    5192.3952    2.1675351   0.23172394 
    4400   -945.37774    51.540558   -893.83718    1845.9959    12594.768    2.2012028   0.47673564 
    4500   -946.08644    46.984222   -899.10222    1682.8045    16018.608    2.2110662   0.16581769 
    4600   -941.56899    50.197412   -891.37158    1797.8893     13843.75    2.1950519   0.40119535 
    4700   -944.88679    52.531366   -892.35543     1881.483   -2995.8215    2.1594707   0.52002061 
    4800   -939.38243    48.069006   -891.31342    1721.6575   -12637.813    2.1270162   0.26156597 
    4900   -935.06357     50.45706   -884.60651    1807.1889   -11177.865    2.1150153   0.27136096 
    5000   -940.42121    54.001073   -886.42013    1934.1226   -12921.333    2.1251009   0.22444653 
    5100   -940.46514    45.980837   -894.48431    1646.8668   -2973.5622    2.1544805   0.13397563 
    5200   -944.86375    46.371267   -898.49248    1660.8506    8211.8709    2.1901796   0.37619653 
    5300    -949.3889    55.242346   -894.14656    1978.5805    14203.918    2.2136506   0.28228874 
    5400   -942.54809    49.033715   -893.51437    1756.2099    18011.933    2.2082887   0.21888776 
    5500   -945.24003    48.634012   -896.60602     1741.894    1720.4897    2.1754313    0.3282359 
    5600   -941.85364    55.837869   -886.01577      1999.91   -8666.6522     2.138007   0.11115267 
    5700   -937.90191    50.356002    -887.5459    1803.5694   -15309.271    2.1144319   0.16300735 
    5800   -936.22691    51.700227   -884.52669    1851.7147   -11690.679    2.1169049   0.49655888 
    5900   -939.01411    46.017463   -892.99665    1648.1787   -7291.8942    2.1425857   0.14664681 
    6000   -944.07717    53.242368    -890.8348    1906.9486    6355.0355    2.1797378   0.22225603 
    6100   -945.85087    48.382282   -897.46859    1732.8779    13034.527    2.2080247   0.30473711 
    6200   -943.13623    51.909684   -891.22655    1859.2166    18444.582    2.2117832   0.49098669 
    6300   -944.69421    47.144193   -897.55002     1688.534    6114.8442    2.1854943   0.46985574 
    6400   -940.11915    46.423969   -893.69518    1662.7382   -5251.9127    2.1492157   0.98785466 
    6500   -940.89747    53.454727   -887.44274    1914.5545   -13074.206    2.1244222   0.61344148 
    6600   -935.13314    47.417462   -887.71568    1698.3215   -10854.546    2.1208331   0.36073602 
    6700    -940.0322    51.969093   -888.06311    1861.3445   -8261.1556    2.1385351   0.16936079 
    6800   -946.86251    53.087474   -893.77504    1901.4008   -224.06112     2.168214   0.39389343 
    6900   -946.58087    52.854447   -893.72642    1893.0546    10476.947    2.1968688  0.048118444 
    7000   -945.22607    49.915355   -895.31071     1787.787    13176.745    2.2060994   0.56742818 
    7100    -942.7998    48.478247   -894.32156     1736.315    11149.139    2.1920267   0.29662204 
    7200   -942.27865    49.769733   -892.50892    1782.5714   -1854.2223    2.1625893   0.07710656 
    7300   -940.43587    52.474058   -887.96181    1879.4304   -10306.873    2.1353706  0.044787941 
    7400   -938.84641    53.630838   -885.21557    1920.8621    -11547.88    2.1237317   0.28704784 
    7500   -942.85244    51.499927   -891.35251    1844.5406   -14034.356    2.1330495   0.40169409 
    7600   -939.88045    51.986676   -887.89377    1861.9742    1062.0804    2.1609731   0.14096971 
    7700   -946.18519    48.906997   -897.27819    1751.6713    4610.8624    2.1896776   0.46367309 
    7800   -945.34407    51.475356   -893.86872    1843.6606      14246.6    2.2074681   0.16140091 
    7900   -938.82093    48.822219   -889.99871    1748.6348    15741.627    2.2003916    0.4166832 
    8000    -943.4673     45.53233   -897.93497    1630.8029    1176.4438    2.1712796   0.32025825 
    8100   -943.94259    51.386125   -892.55646    1840.4647   -11008.335    2.1442607   0.33464887 
    8200   -937.39378    51.555924   -885.83786    1846.5462   -9851.9242    2.1331211   0.35682206 
    8300   -939.41896    49.568622   -889.85034    1775.3683   -10939.029    2.1373722   0.36870277 
    8400   -940.91558    47.516349   -893.39923    1701.8633   -2468.4253    2.1581829  0.034695689 
    8500   -936.37677    52.605797   -883.77097    1884.1489    13519.538    2.1850425   0.16311418 
    8600   -943.40491    52.724518   -890.68039     1888.401     8814.609    2.1949043   0.63092089 
    8700   -942.75132    48.804246   -893.94708    1747.9911    7258.0881    2.1849313   0.14758304 
    8800   -944.40573    48.486491   -895.91924    1736.6103   -2918.8833    2.1657732   0.10429871 
    8900   -934.96354    49.638761   -885.32478    1777.8804   -1573.6768    2.1494189   0.47360652 
    9000   -941.56395    51.975469   -889.58848    1861.5728   -10246.922    2.1393774   0.10393413 
    9100   -941.23905    51.667614   -889.57144    1850.5465   -8032.1945    2.1445953   0.23090942 
    9200   -939.98809    47.040845   -892.94725    1684.8325   -2837.1739    2.1622202   0.38260568 
    9300   -945.16146    51.754153   -893.40731    1853.6461     4507.737    2.1835738   0.13784253 
    9400   -940.13946    58.026255   -882.11321      2078.29    14278.729    2.1962953   0.50548819 
    9500   -938.48382    48.987808   -889.49601    1754.5656     9763.092     2.185744   0.36727587 
    9600   -947.42444    56.408453   -891.01599    2020.3462   -5331.4058    2.1607771    0.3494621 
    9700   -944.13468    48.481424   -895.65325    1736.4288   -14494.624    2.1408352   0.32783188 
    9800   -936.93477    50.258028   -886.67675    1800.0603   -6785.5438    2.1397245   0.33745625 
    9900   -939.01054    50.968757   -888.04178     1825.516   -2347.9477    2.1512644   0.36396797 
   10000   -942.99565    47.275592   -895.72006    1693.2402    835.16913    2.1694453   0.20832885 
   10100   -944.01497    51.859362   -892.15561    1857.4143    8833.0057     2.187834   0.24754001 
   10200   -943.66434    48.242402   -895.42193    1727.8679    8814.8284    2.1931765   0.60480469 
   10300    -942.5244     56.60785   -885.91655    2027.4879    8965.5645    2.1834255   0.30820852 
   10400   -934.27059    47.511695    -886.7589    1701.6966    3131.5113     2.161277   0.15739115 
   10500   -942.17861    49.760388   -892.41822    1782.2366   -11598.985    2.1375653   0.20756892 
   10600    -944.9655     54.18529   -890.78021    1940.7206   -15579.569    2.1318735    0.2930301 
   10700   -938.31577    50.890084   -887.42568    1822.6983   -5521.4293    2.1483259   0.54711465 
   10800   -937.25365    49.134907   -888.11874    1759.8342    5714.1608    2.1730655   0.13330601 
   10900    -946.1613    53.143512   -893.01778    1903.4079     6272.366     2.191958     0.245021 
   11000   -946.41669    46.619096   -899.79759    1669.7269    7288.7407     2.198758  0.082851734 
   11100   -941.27265    49.694321   -891.57833    1779.8703    9310.1718    2.1911309   0.12291587 
   11200   -939.91928    47.723117   -892.19616     1709.269    994.83994    2.1700121   0.40506282 
   11300   -941.19994    45.428411   -895.77153    1627.0809   -8207.8009    2.1490215   0.21003603 
   11400   -941.55076    54.811617   -886.73914    1963.1534   -7557.4153    2.1422383   0.46970808 
   11500    -941.5006    54.111481   -887.38912     1938.077   -6517.1899    2.1492001   0.35755991 
   11600   -940.47903    47.776305   -892.70272     1711.174   -2007.4474    2.1650161   0.12519046 
   11700   -941.30616    46.825521   -894.48064    1677.1203    6788.1782     2.183183    0.2546841 
   11800   -951.01065    50.463912   -900.54674    1807.4343     3307.164    2.1949188   0.53773693 
   11900    -941.1038    50.865885   -890.23792    1821.8315    12490.158    2.1957575   0.56645449 
   12000   -939.70216     47.08558   -892.61658    1686.4347    6777.4759    2.1784482   0.65683659 
   12100    -940.1189    54.266701   -885.85219    1943.6364   -4595.4553    2.1536244    1.5112739 
   12200   -934.71169    51.213983    -883.4977    1834.2991   -9215.3671    2.1345566    0.6125531 
   12300   -930.49836    48.332058    -882.1663     1731.079   -6103.8851    2.1280866   0.61133591 
   12400   -940.36996    52.493969   -887.87599    1880.1436   -8185.7449    2.1371605   0.57302677 
   12500   -939.81858     49.91106   -889.90752    1787.6332    683.30214    2.1604704    1.2571133 
   12600   -946.17438    47.650811   -898.52357    1706.6793    4484.7053    2.1856434    1.6341284 
   12700   -942.66186    51.920823   -890.74104    1859.6156    14001.357    2.1997893    1.4089345 
   12800   -946.68651    53.051338   -893.63517    1900.1065    6096.4718    2.1906218   0.75311598 
   12900    -943.7079    49.568323   -894.13957    1775.3576   -1083.3798    2.1670017    0.5866182 
   13000   -935.86296    49.452234   -886.41072    1771.1997   -4096.7742    2.1436439   0.62555361 
   13100   -939.04881    48.353241   -890.69557    1731.8377    -11982.01    2.1294356   0.41058967 
   13200   -939.52543    51.125681   -888.39975    1831.1365   -9977.2329    2.1350829   0.51301235 
   13300   -937.91781    53.295196   -884.62262    1908.8406    952.42332    2.1546058    1.0799946 
   13400   -941.49056    50.881007   -890.60955    1822.3731    3675.6204    2.1727362    1.1138442 
   13500   -943.22429    44.235543   -898.98875    1584.3567    4503.6054    2.1841547    1.1922547 
   13600    -940.8771    49.094757   -891.78234    1758.3962    9329.5963    2.1872894   0.70646093 
   13700     -940.564    51.293397    -889.2706    1837.1435     5440.569    2.1781297   0.87443048 
   13800    -942.9909    48.172604   -894.81829     1725.368   -5789.0718    2.1609608   0.90636104 
   13900   -945.99247    51.552401   -894.44007      1846.42   -10018.182    2.1498419    1.0675283 
   14000   -934.91895    49.615759   -885.30319    1777.0565   -19.165807    2.1507338    1.1826418 
   14100    -938.4219    50.698982   -887.72291    1815.8537   -3375.0948    2.1535429   0.55787498 
   14200   -941.26741    49.159593   -892.10781    1760.7183    -1552.024    2.1602738    1.0658818 
   14300   -941.74172    54.767925   -886.97379    1961.5885    3449.5963    2.1680893    1.4062062 
   14400   -943.01945    52.428357   -890.59109    1877.7936    981.09232    2.1713995    1.3682165 
   14500    -936.4016    48.778464   -887.62314    1747.0677    5343.3449    2.1709949   0.90126126 
   14600   -937.22128    56.134207   -881.08707    2010.5237    4465.7558    2.1622501   0.41651236 
   14700   -937.55241    49.040353   -888.51205    1756.4476    -3215.167    2.1467416   0.84435509 
   14800   -938.28429    48.822848   -889.46144    1748.6573   -6988.2685     2.137439    1.2783343 
   14900   -937.21968    50.781906   -886.43777    1818.8237   -5755.6441    2.1397352    1.6607456 
   15000   -941.68129    45.624219   -896.05707    1634.0941   -4224.0029    2.1530049    2.7609547 
   15100     -938.602    50.173469   -888.42854    1797.0317    7892.5102    2.1745432    4.0532323 
   15200   -943.35409    53.649208   -889.70488    1921.5201     8510.843    2.1868283    7.7625779 
   15300   -942.44315    49.667161   -892.77599    1778.8976    6956.9533    2.1825755    1.1423458 
   15400   -940.20356    47.842391   -892.36116    1713.5409    1453.6666    2.1663375   0.97816134 
   15500   -936.42998    54.325739   -882.10425    1945.7509    279.42575    2.1473185   0.37662142 
   15600   -933.61245    46.747475   -886.86497     1674.325   -6647.8599    2.1315007   0.62566473 
   15700   -934.73042     43.45104   -891.27938    1556.2587   -8607.2742    2.1292631    1.0850618 
   15800   -941.52056    53.549615   -887.97095     1917.953   -4518.1616    2.1456565    1.6548267 
   15900   -939.52075    51.680237   -887.84051    1850.9987    3082.2337    2.1697682    8.3070555 
   16000   -945.53261    49.895992   -895.63662    1787.0935    8296.8442     2.187244     5.608937 
   16100   -942.63906    47.677757    -894.9613    1707.6443    11716.398    2.1922001    6.9455373 
   16200   -942.23491    53.530448   -888.70446    1917.2665    5897.9748    2.1792219    15.021723 
   16300   -939.10766    50.134346   -888.97331    1795.6305   -2231.8999    2.1548892    18.025201 
   16400    -935.8794    52.466831   -883.41257    1879.1716   -6242.8343    2.1332447    13.869667 
   16500   -943.10979    52.894585    -890.2152    1894.4922   -16321.856    2.1232825    6.2691144 
   16600   -933.88216    48.428179   -885.45398    1734.5217   -5654.3109    2.1355963    8.9982996 
   16700   -939.87779    52.580819   -887.29697    1883.2542     4669.283    2.1597306    4.1783708 
   16800   -946.24486    56.449779   -889.79508    2021.8264    4167.5057    2.1791371    6.5271636 
   16900   -941.40447      46.4286   -894.97587    1662.9041    10262.492    2.1872706    6.6054548 
   17000   -941.66753    51.365095   -890.30243    1839.7114    7335.5302    2.1804499    8.9333498 
   17100    -941.1944    43.684019   -897.51038    1564.6031    -1227.418    2.1617603     5.989938 
   17200   -940.14103     48.49856   -891.64247    1737.0425   -4951.1018    2.1472319    4.0813207 
   17300   -939.29404      53.7816   -885.51243    1926.2619   -4422.0983    2.1423792    5.4686666 
   17400   -943.18743    52.491126    -890.6963    1880.0418   -9202.1596    2.1446642    10.412586 
   17500     -942.161    54.342886   -887.81811    1946.3651   -1646.2873     2.157413    3.7606327 
   17600   -940.62685    50.450682   -890.17617    1806.9605    2275.6161    2.1702369     2.812019 
   17700   -944.00258    50.474258   -893.52832    1807.8049    3574.7862    2.1757122    4.9124157 
   17800   -940.29491    49.174665   -891.12024    1761.2582    6141.6975     2.174857    7.0468797 
   17900   -936.22592    48.151397   -888.07453    1724.6084    4084.3822    2.1643186    4.6485788 
   18000   -943.47332    49.501688   -893.97163    1772.9709   -7039.0259    2.1486035     8.149051 
   18100   -943.80285    50.657394   -893.14545    1814.3641   -10281.842     2.144355    7.3458096 
   18200   -939.40872      53.3779   -886.03082    1911.8028    336.26767    2.1540335    13.304346 
   18300    -940.5292    49.730778   -890.79842    1781.1761    1073.7812    2.1638754    14.255904 
   18400   -941.46581    48.256505    -893.2093     1728.373    3324.4894    2.1713904    13.217535 
   18500   -937.94312    53.548816    -884.3943    1917.9244    7991.2074     2.173603    13.153226 
   18600   -941.68127    48.834293   -892.84698    1749.0673    1027.0355     2.163788     7.991275 
   18700   -943.16198    51.434658   -891.72732    1842.2029   -5405.4735    2.1531873    5.8725265 
   18800   -935.96266    51.307205   -884.65545     1837.638     545.5391    2.1484119    7.9057586 
   18900   -939.40688    48.325666   -891.08122    1730.8501   -5230.5771    2.1477687    4.7897574 
   19000   -940.06376    48.404269   -891.65949    1733.6654    -2521.312    2.1553253    7.3367699 
   19100    -941.1369    58.078277   -883.05862    2080.1533    4244.2764    2.1680368    6.2841052 
   19200   -934.40329    49.189945   -885.21334    1761.8054    8721.0088    2.1737013    13.121213 
   19300   -939.33806    48.701837   -890.63622    1744.3232    1810.3479    2.1686426    3.7012485 
   19400    -941.0111    46.161777   -894.84933    1653.3475    -1101.185    2.1608296    2.3994961 
   19500   -941.45566    49.700877   -891.75478    1780.1052   -3216.4043     2.157546    2.0526429 
   19600    -936.2157    51.328233   -884.88747    1838.3912    1830.7773    2.1578231    4.1849334 
   19700   -938.73143     47.74266   -890.98877    1709.9689   -235.88392    2.1567133    6.8228931 
   19800   -940.68871    48.032694   -892.65602    1720.3569   -3430.7592    2.1585522    8.7560661 
   19900   -938.59627    54.353124   -884.24315    1946.7318    3625.4365    2.1631123    8.3207051 
   20000   -941.81143    50.163063   -891.64837     1796.659   -133.73341    2.1628191    7.1893192 
   20100   -945.63552     54.13961   -891.49591    1939.0845   -3361.2597    2.1619917    7.4966974 
   20200   -938.87902    57.359035   -881.51998    2054.3926     2421.761    2.1616301     6.873304 
   20300   -937.80548    47.256623   -890.54885    1692.5609   -1888.2933      2.15493     7.734394 
   20400   -941.86613    48.597019   -893.26911     1740.569    -5496.512     2.150963    5.0740022 
   20500   -940.83554    53.505478   -887.33007    1916.3722   -683.05962    2.1564382    4.8945935 
   20600   -939.36431    50.125118   -889.23919       1795.3    766.69153    2.1635414    7.8237637 
   20700    -944.0492    49.643282   -894.40592    1778.0423    -22.77772    2.1683976     8.431649 
   20800   -948.54019    46.038782   -902.50141    1648.9422   -3102.2423    2.1741083    7.0764789 
   20900   -939.72734    47.220187   -892.50715    1691.2558    8263.6464    2.1811624    6.1986744 
   21000   -946.91633    55.714181   -891.20214    1995.4799    2943.0555    2.1795228    6.2258695 
   21100   -941.86315     49.92675    -891.9364    1788.1951   -63.145266    2.1687503    7.0581315 
   21200   -935.73839    50.117244   -885.62114    1795.0179    657.64846    2.1557349    8.4522217 
   21300   -932.36901    47.603933   -884.76508    1705.0002   -2922.2603    2.1427358    7.0763771 
   21400   -937.80528    44.967376   -892.83791    1610.5683   -7471.6126    2.1381875    6.3205984 
   21500   -940.52142    54.592023   -885.92939    1955.2883   -2538.6302    2.1499321    6.5057954 
   21600   -938.02579    47.244867   -890.78093    1692.1398    2570.7248    2.1689211    9.2544714 
   21700   -942.15678    55.534474   -886.62231    1989.0435    8620.0769    2.1829745    10.033354 
   21800   -942.59187     47.19433   -895.39754    1690.3298    3538.4169    2.1824159    12.594645 
   21900   -944.66011    51.775408    -892.8847    1854.4074    154.32872    2.1721987    6.1848535 
   22000   -936.19317    49.379083   -886.81408    1768.5797    1647.6674    2.1575619    1.3967959 
   22100   -940.88991    52.615546   -888.27437     1884.498   -8001.4606    2.1431407    6.4194907 
   22200   -941.48491    47.437027   -894.04788    1699.0223   -7844.0923    2.1404113    11.369703 
   22300   -936.98388    48.760512   -888.22337    1746.4247   -2315.1533    2.1529581    3.7547379 
   22400   -942.10883    49.872976   -892.23586    1786.2691    1756.2252    2.1706895    6.9593477 
   22500   -941.81383    47.066876   -894.74696    1685.7648    7747.2784    2.1844303    7.7383446 
   22600   -941.80182    54.501575   -887.30024    1952.0488    10737.316    2.1867432    7.4851221 
   22700   -944.16836    51.042113   -893.12625    1828.1434    366.07426    2.1722244    5.4783928 
   22800    -942.1044    44.140134   -897.96426    1580.9395   -6200.2249    2.1539541    6.0227072 
   22900   -940.37223    52.109518   -888.26271    1866.3739   -3914.5516    2.1465995     7.135494 
   23000   -937.50665    53.065453    -884.4412    1900.6121   -3672.8192      2.14885    7.5108802 
   23100   -942.30289    50.306314   -891.99658    1801.7897   -2108.3117    2.1560238    5.7146999 
   23200   -944.46129    51.036554   -893.42473    1827.9443   -392.68591    2.1678243    2.6430332 
   23300   -937.10752    53.467748   -883.63978    1915.0208    8532.3193    2.1791036    2.3982853 
   23400   -939.67536    50.247896   -889.42747    1799.6974    4988.2521    2.1751995    3.1580297 
   23500   -943.42769     50.99671   -892.43098    1826.5172    -3132.604     2.161171    3.4236215 
   23600   -937.39561    51.036885   -886.35872    1827.9561   -4352.3895    2.1499471    6.0357228 
   23700   -937.43488     48.30948    -889.1254    1730.2704   -3334.4791    2.1446611      6.62543 
   23800   -940.21528    52.186202   -888.02908    1869.1205   -5831.1759    2.1468633    11.845256 
   23900   -939.40582    50.563605   -888.84222     1811.005   -568.24987    2.1565441    5.1278647 
   24000   -944.06097    48.324166    -895.7368    1730.7964    979.72646    2.1691781    6.2886092 
   24100   -942.02253    53.104194   -888.91834    1901.9997    7725.5131    2.1823658    5.7477737 
   24200   -938.57477    53.117672   -885.45709    1902.4824    10501.314     2.181182    7.5883366 
   24300   -943.14383    47.458248   -895.68558    1699.7823   -1373.6175    2.1653666    6.6976874 
   24400   -940.64118    48.957611   -891.68357    1753.4841   -6747.7066    2.1517844    5.3860362 
   24500   -934.94056    49.920151   -885.02041    1787.9588    -892.2069    2.1465454    7.1670298 
   24600   -939.22635    48.231933   -890.99441    1727.4929   -6377.3795    2.1482689    7.9182093 
   24700   -943.47493    52.519392   -890.95553    1881.0541   -3998.4581    2.1589981     6.718068 
   24800   -943.42118    49.979663   -893.44152    1790.0903     890.2152    2.1749631    7.8573146 
   24900   -938.65843    47.545995   -891.11244    1702.9251      10071.5    2.1874046    5.0608794 
   25000   -943.59689    54.595836   -889.00106    1955.4248    8376.3004    2.1847825    6.6078939 
   25100   -941.52245    44.563011   -896.95944    1596.0854   -995.94552    2.1682751    6.2042672 
   25200   -943.68067    47.919256   -895.76142     1716.294   -7836.8607     2.153839    9.7440615 
   25300   -938.95934    50.830859   -888.12848     1820.577   -4658.1405    2.1507136    7.7535663 
   25400   -939.28171    50.222904   -889.05881    1798.8023   -4136.3976    2.1557627    6.6214975 
   25500   -944.49363     50.75073    -893.7429    1817.7071   -3021.0534    2.1664566     6.562428 
   25600   -945.86919    47.006468   -898.86272    1683.6012    2865.3176    2.1804577    7.5243358 
   25700   -940.54292    49.350712   -891.19221    1767.5635    8631.9583    2.1900785    6.4984417 
   25800   -939.49118    52.733038   -886.75814    1888.7062    9383.0487    2.1840487    7.0798624 
   25900   -947.41328    51.642926   -895.77035    1849.6623   -7134.0306    2.1630129    4.7009027 
   26000   -944.01581    50.438498   -893.57731    1806.5241   -9016.3218    2.1468633    7.7429699 
   26100   -936.63287    51.576023   -885.05684    1847.2661   -5336.9831     2.144114    6.8101399 
   26200    -940.1673    52.307013   -887.86028    1873.4475   -5805.9479    2.1486604    6.6133308 
   26300   -941.50253    48.247239   -893.25529    1728.0411   -2013.6244    2.1610736    7.1024403 
   26400   -942.71014    55.602126   -887.10802    1991.4665     5331.097    2.1769126    5.8333207 
   26500   -941.91524    48.137364   -893.77788    1724.1058    4682.4281    2.1834009    6.6107731 
   26577   -942.50059     51.13644   -891.36415    1831.5218    5875.3469    2.1812923    11.203885 
Loop time of 18.3415 on 1 procs for 26577 steps with 217 atoms

Performance: 70.662 ns/day, 0.340 hours/ns, 1449.009 timesteps/s
100.0% CPU use with 1 MPI tasks x no OpenMP threads

MPI task timing breakdown:
Section |  min time  |  avg time  |  max time  |%varavg| %total
---------------------------------------------------------------
Pair    | 17.815     | 17.815     | 17.815     |   0.0 | 97.13
Neigh   | 0.12495    | 0.12495    | 0.12495    |   0.0 |  0.68
Comm    | 0.11374    | 0.11374    | 0.11374    |   0.0 |  0.62
Output  | 0.0075141  | 0.0075141  | 0.0075141  |   0.0 |  0.04
Modify  | 0.24257    | 0.24257    | 0.24257    |   0.0 |  1.32
Other   |            | 0.03806    |            |       |  0.21

Nlocal:    217 ave 217 max 217 min
Histogram: 1 0 0 0 0 0 0 0 0 0
Nghost:    953 ave 953 max 953 min
Histogram: 1 0 0 0 0 0 0 0 0 0
Neighs:    4188 ave 4188 max 4188 min
Histogram: 1 0 0 0 0 0 0 0 0 0
FullNghs:  8376 ave 8376 max 8376 min
Histogram: 1 0 0 0 0 0 0 0 0 0

Total # of neighbors = 8376
Ave neighs/atom = 38.5991
Neighbor list builds = 212
Dangerous builds = 0
Total wall time: 0:00:18
