LAMMPS (3 Mar 2020)
Reading data file ...
  orthogonal box = (0 0 0) to (12.27 12.27 12.27)
  1 by 1 by 1 MPI processor grid
  reading atoms ...
  108 atoms
  read_data CPU = 0.000919689 secs
Reading potential file /usr/share/lammps-stable/potentials/Ag_u3.eam with DATE: 2007-06-11
Neighbor list info ...
  update every 1 steps, delay 10 steps, check yes
  max neighbors/atom: 2000, page size: 100000
  master list distance cutoff = 7.55
  ghost atom cutoff = 7.55
  binsize = 3.775, bins = 4 4 4
  2 neighbor lists, perpetual/occasional/extra = 1 1 0
  (1) pair eam, perpetual
      attributes: half, newton on
      pair build: half/bin/atomonly/newton
      stencil: half/bin/3d/newton
      bin: standard
  (2) compute rdf, occasional, copy from (1)
      attributes: half, newton on
      pair build: copy
      stencil: none
      bin: none
Setting up Verlet run ...
  Unit style    : metal
  Current step  : 0
  Time step     : 0.001
Per MPI rank memory allocation (min/avg/max) = 3.723 | 3.723 | 3.723 Mbytes
Step PotEng KinEng TotEng Temp Press Density c_msdall[4] 
       0       -307.8    4.1492507   -303.65075          300     2399.079    10.472245            0 
     100   -305.63166    1.9810815   -303.65058    143.23657    8497.0425    10.472245  0.013176954 
     200   -306.07537    2.4248292   -303.65054    175.32052    7528.9698    10.472245 0.0086096328 
     300   -306.12814    2.4775931   -303.65054    179.13546    7355.0298    10.472245 0.0076000715 
     400   -305.72506    2.0745613    -303.6505    149.99537     8529.828    10.472245  0.011180739 
     500     -305.803    2.1525193   -303.65048     155.6319    8477.7272    10.472245 0.0087899997 
     600   -305.21473    1.5643207   -303.65041    113.10385    10129.034    10.472245  0.011257113 
     700   -305.80721     2.156728   -303.65048     155.9362    8459.2607    10.472245 0.0095564747 
     800   -305.85062    2.2001277   -303.65049     159.0741    8202.3285    10.472245 0.0091789041 
     900    -305.4617    1.8112595   -303.65044    130.95806    9348.3253    10.472245  0.010950984 
    1000   -305.68856    2.0380839   -303.65047    147.35798    8772.2713    10.472245  0.010150943 
Loop time of 0.192496 on 1 procs for 1000 steps with 108 atoms

Performance: 448.840 ns/day, 0.053 hours/ns, 5194.911 timesteps/s
100.0% CPU use with 1 MPI tasks x no OpenMP threads

MPI task timing breakdown:
Section |  min time  |  avg time  |  max time  |%varavg| %total
---------------------------------------------------------------
Pair    | 0.12906    | 0.12906    | 0.12906    |   0.0 | 67.05
Neigh   | 0          | 0          | 0          |   0.0 |  0.00
Comm    | 0.0041333  | 0.0041333  | 0.0041333  |   0.0 |  2.15
Output  | 0.00011971 | 0.00011971 | 0.00011971 |   0.0 |  0.06
Modify  | 0.05822    | 0.05822    | 0.05822    |   0.0 | 30.24
Other   |            | 0.0009613  |            |       |  0.50

Nlocal:    108 ave 108 max 108 min
Histogram: 1 0 0 0 0 0 0 0 0 0
Nghost:    990 ave 990 max 990 min
Histogram: 1 0 0 0 0 0 0 0 0 0
Neighs:    4644 ave 4644 max 4644 min
Histogram: 1 0 0 0 0 0 0 0 0 0

Total # of neighbors = 4644
Ave neighs/atom = 43
Neighbor list builds = 0
Dangerous builds = 0
Total wall time: 0:00:00
