LAMMPS (3 Mar 2020)

    # ---------- Initialize simulation ---------------------
    units metal
    atom_style atomic
    dimension  3
    boundary   p p p
    read_data /home/modeler/RemLabs/Lab4/Problem1/size_3/lammps.data
  orthogonal box = (0 0 0) to (12.3 12.3 12.3)
  1 by 1 by 1 MPI processor grid
  reading atoms ...
  108 atoms
  read_data CPU = 0.000914493 secs

    pair_style eam
    pair_coeff * * /usr/share/lammps-stable/potentials/Ag_u3.eam
Reading potential file /usr/share/lammps-stable/potentials/Ag_u3.eam with DATE: 2007-06-11

    velocity  all create 300 87287 dist gaussian

    # ---------- Describe computed properties------------------
    compute msdall all msd
    thermo_style custom step pe ke etotal temp press density c_msdall[4]
    thermo 100

    # ---------- Specify ensemble  ---------------------
    fix  1 all nve
    #fix  1 all nvt temp 300 300 0.05

    # --------- Compute RDF ---------------
    compute rdfall all rdf 100 1 1
    fix 2 all ave/time 1 250 250 c_rdfall[*] file /home/modeler/RemLabs/Lab4/Problem1/size_3/lammps.rdf mode vector

    # --------- Run -------------
    timestep 0.001
    run 1000
Neighbor list info ...
  update every 1 steps, delay 10 steps, check yes
  max neighbors/atom: 2000, page size: 100000
  master list distance cutoff = 7.55
  ghost atom cutoff = 7.55
  binsize = 3.775, bins = 4 4 4
  2 neighbor lists, perpetual/occasional/extra = 1 1 0
  (1) pair eam, perpetual
      attributes: half, newton on
      pair build: half/bin/atomonly/newton
      stencil: half/bin/3d/newton
      bin: standard
  (2) compute rdf, occasional, copy from (1)
      attributes: half, newton on
      pair build: copy
      stencil: none
      bin: none
Per MPI rank memory allocation (min/avg/max) = 3.723 | 3.723 | 3.723 Mbytes
Step PotEng KinEng TotEng Temp Press Density c_msdall[4] 
       0   -307.76813    4.1492507   -303.61888          300   -5083.4882    10.395806            0 
     100   -305.53997     1.921268    -303.6187    138.91193    1305.8712    10.395806  0.013764377 
     200   -306.02079    2.4021228   -303.61867    173.67879    244.36495    10.395806 0.0089386046 
     300   -305.97697    2.3583124   -303.61866     170.5112    342.80054    10.395806 0.0081593803 
     400   -305.56738    1.9487782    -303.6186    140.90098    1639.0915    10.395806  0.011540433 
     500    -305.4755    1.8569313   -303.61857    134.26024    2010.8974    10.395806  0.010236553 
     600   -305.27838    1.6598294   -303.61855    120.00934    2553.5143    10.395806  0.010905456 
     700   -305.83156    2.2129296   -303.61863     159.9997    907.26639    10.395806 0.0099108259 
     800    -305.7794    2.1607751   -303.61863    156.22882     981.0066    10.395806 0.0095525654 
     900   -305.48992    1.8713098   -303.61861    135.29983    1812.2855    10.395806  0.011364616 
    1000   -305.95941    2.3407672   -303.61865    169.24265    503.33491    10.395806 0.0094472387 
Loop time of 0.192278 on 1 procs for 1000 steps with 108 atoms

Performance: 449.349 ns/day, 0.053 hours/ns, 5200.794 timesteps/s
100.0% CPU use with 1 MPI tasks x no OpenMP threads

MPI task timing breakdown:
Section |  min time  |  avg time  |  max time  |%varavg| %total
---------------------------------------------------------------
Pair    | 0.12979    | 0.12979    | 0.12979    |   0.0 | 67.50
Neigh   | 0          | 0          | 0          |   0.0 |  0.00
Comm    | 0.0041373  | 0.0041373  | 0.0041373  |   0.0 |  2.15
Output  | 0.00014817 | 0.00014817 | 0.00014817 |   0.0 |  0.08
Modify  | 0.057233   | 0.057233   | 0.057233   |   0.0 | 29.77
Other   |            | 0.0009677  |            |       |  0.50

Nlocal:    108 ave 108 max 108 min
Histogram: 1 0 0 0 0 0 0 0 0 0
Nghost:    990 ave 990 max 990 min
Histogram: 1 0 0 0 0 0 0 0 0 0
Neighs:    4644 ave 4644 max 4644 min
Histogram: 1 0 0 0 0 0 0 0 0 0

Total # of neighbors = 4644
Ave neighs/atom = 43
Neighbor list builds = 0
Dangerous builds = 0
    
Total wall time: 0:00:00
