LAMMPS (3 Mar 2020)
Reading data file ...
  orthogonal box = (0 0 0) to (17.469 17.469 17.469)
  1 by 1 by 1 MPI processor grid
  reading atoms ...
  217 atoms
  read_data CPU = 0.00104176 secs
Reading potential file library.meam with DATE: 2012-06-29
Reading potential file LiSi.meam with DATE: 2020-11-07
1 atoms in group Li
216 atoms in group Si
Neighbor list info ...
  update every 1 steps, delay 10 steps, check yes
  max neighbors/atom: 2000, page size: 100000
  master list distance cutoff = 6
  ghost atom cutoff = 6
  binsize = 3, bins = 6 6 6
  2 neighbor lists, perpetual/occasional/extra = 2 0 0
  (1) pair meam/c, perpetual
      attributes: full, newton on
      pair build: full/bin/atomonly
      stencil: full/bin/3d
      bin: standard
  (2) pair meam/c, perpetual, half/full from (1)
      attributes: half, newton on
      pair build: halffull/newton
      stencil: none
      bin: none
Setting up Verlet run ...
  Unit style    : metal
  Current step  : 0
  Time step     : 0.003
Per MPI rank memory allocation (min/avg/max) = 8.895 | 8.895 | 8.895 Mbytes
Step Temp E_pair E_mol TotEng Press Volume 
       0         1700   -951.04357            0   -903.57924   -114721.17    5330.9442 
    3200    1545.4287   -940.57527            0   -897.42661   -7862.9957       4704.2 
Loop time of 2.28251 on 1 procs for 3200 steps with 217 atoms

Performance: 363.390 ns/day, 0.066 hours/ns, 1401.966 timesteps/s
100.0% CPU use with 1 MPI tasks x no OpenMP threads

MPI task timing breakdown:
Section |  min time  |  avg time  |  max time  |%varavg| %total
---------------------------------------------------------------
Pair    | 2.1822     | 2.1822     | 2.1822     |   0.0 | 95.60
Neigh   | 0.050972   | 0.050972   | 0.050972   |   0.0 |  2.23
Comm    | 0.014764   | 0.014764   | 0.014764   |   0.0 |  0.65
Output  | 2.6636e-05 | 2.6636e-05 | 2.6636e-05 |   0.0 |  0.00
Modify  | 0.029682   | 0.029682   | 0.029682   |   0.0 |  1.30
Other   |            | 0.004905   |            |       |  0.21

Nlocal:    217 ave 217 max 217 min
Histogram: 1 0 0 0 0 0 0 0 0 0
Nghost:    957 ave 957 max 957 min
Histogram: 1 0 0 0 0 0 0 0 0 0
Neighs:    4101 ave 4101 max 4101 min
Histogram: 1 0 0 0 0 0 0 0 0 0
FullNghs:  8202 ave 8202 max 8202 min
Histogram: 1 0 0 0 0 0 0 0 0 0

Total # of neighbors = 8202
Ave neighs/atom = 37.7972
Neighbor list builds = 86
Dangerous builds = 0
Setting up Verlet run ...
  Unit style    : metal
  Current step  : 3200
  Time step     : 0.003
Per MPI rank memory allocation (min/avg/max) = 9.66 | 9.66 | 9.66 Mbytes
Step PotEng KinEng TotEng Temp Press Density c_msdli[4] c_msdsi[4] 
    3200   -940.57527    43.148664   -897.42661    1545.4287   -7862.9957    2.1438944            0 2.1042568e-32 
    3300   -943.43885    44.559764   -898.87909    1595.9691    3214.5556    2.1800454   0.44916319   0.12062415 
    3400   -939.64009    50.994688    -888.6454    1826.4448    10774.706    2.1847684   0.19107158   0.11564374 
    3500   -944.81259    51.934612   -892.87798    1860.1095    -4304.862    2.1543978   0.78985887   0.14142807 
    3600   -944.72104    46.093091   -898.62795    1650.8873   -9006.8711    2.1507316   0.65977716   0.17318052 
    3700    -944.5024    49.269881   -895.23252    1764.6685     5515.662    2.1877035   0.68450256   0.13351937 
    3800   -938.09196    50.910771   -887.18118    1823.4392    4481.2796    2.1681011   0.53212953   0.14459236 
    3900   -944.75926    47.480985   -897.27827    1700.5967   -5987.4145    2.1557333   0.65327294   0.12080252 
    4000    -947.0744    49.587548   -897.48685    1776.0461   -3357.7365    2.1654161  0.080723848   0.10831909 
    4100   -943.85446    51.593327   -892.26114    1847.8859    5731.5146    2.1833645   0.49539532   0.13378251 
    4200   -941.89957    52.065146   -889.83442    1864.7847   -3322.1828    2.1537405   0.22205812   0.12116966 
    4300   -946.54947    47.186455   -899.36301    1690.0477   -1705.4199      2.17089   0.53810885   0.14082288 
    4400   -946.26398    49.587213   -896.67676    1776.0341    3606.1765    2.1844808   0.55361642   0.17564676 
    4500   -942.11186    48.366144   -893.74572    1732.2999    1176.8903    2.1693814    1.2171751   0.17394617 
    4600   -937.21618    51.262208   -885.95397    1836.0264   -5551.4415    2.1419545   0.44478601   0.17333275 
    4700   -943.73229      47.8136   -895.91869    1712.5098    1913.2677    2.1731665   0.69253299   0.14922752 
    4800   -946.03561    49.238711    -896.7969     1763.552   -1925.0891    2.1705257   0.25091336   0.12601275 
    4900   -947.95253    51.267615   -896.68492    1836.2201   -3985.1693    2.1652079  0.081983466   0.11016427 
    5000   -944.24641    49.722894   -894.52351    1780.8938    1059.3276    2.1702137    0.1480619   0.13448426 
    5100   -938.33025    54.344893   -883.98535     1946.437   -2579.9123    2.1478282  0.017524046   0.14691941 
    5200   -941.93569    47.854388   -894.08131    1713.9706    3651.3377    2.1737054   0.21062479   0.16305237 
    5300   -945.59867    49.509445   -896.08923    1773.2488   -1.8365028    2.1733864    1.2405256   0.16773421 
    5400   -948.79599    49.395473   -899.40051    1769.1667   -4952.6073    2.1667649   0.66673098   0.13048891 
    5500   -948.93621    44.832858   -904.10335    1605.7504    685.39124    2.1835414   0.41328453   0.13876884 
    5600   -951.86009    41.312825   -910.54726    1479.6756    6247.9465    2.2065115   0.18641223   0.11893422 
    5700   -944.21324    44.472117   -899.74112      1592.83   -6135.1463     2.156701   0.21969227   0.13111567 
    5800   -943.98688    45.747176    -898.2397    1638.4979   -2707.9483    2.1660365   0.24462645   0.12743239 
    5900   -945.02684     50.18259   -894.84425    1797.3584    8094.5796    2.1945754   0.44382884   0.12180665 
    6000   -943.93559    45.716471   -898.21912    1637.3982   -590.57053    2.1739039   0.94742873   0.13837102 
    6100   -948.35494     43.26775   -905.08719    1549.6939   -6652.4579    2.1675725   0.43614226   0.14038618 
    6200   -946.23726    48.947623   -897.28963    1753.1263    1266.8286    2.1796066   0.70885276   0.14778888 
    6300   -944.90158    49.925642   -894.97594    1788.1555    5225.0472    2.1865417   0.63411063   0.14388129 
    6400    -945.5408    44.867747   -900.67305         1607   -6743.3311    2.1584768   0.27742735   0.12471208 
    6500   -945.81488    41.894517   -903.92036    1500.5097   -2100.0478    2.1732934    0.4293343   0.13062459 
    6600   -942.71077    47.545377   -895.16539     1702.903    9522.0324    2.1894314  0.090575981   0.12752792 
    6700   -942.10639    45.946911   -896.15948    1645.6517    1390.2936    2.1698836   0.21435305   0.12359337 
    6800    -947.3145    46.185678   -901.12882    1654.2035   -12772.969    2.1477106   0.18713911   0.13091561 
    6900   -947.91211    44.201917   -903.71019    1583.1524    6371.5209    2.1958595   0.92094561   0.12933616 
    7000    -940.7009     46.50678   -894.19412    1665.7042    11106.166    2.1898343   0.70229728   0.15243902 
    7100   -940.61174    44.070436    -896.5413    1578.4432   -10329.945    2.1362227   0.27800994   0.14862323 
    7200   -942.00359    44.622915   -897.38068     1598.231   -3230.0009    2.1550872   0.27400542   0.13403243 
    7300    -949.4007    44.045018   -905.35568    1577.5328    18367.492    2.2273818   0.40385668    0.1287546 
    7400    -945.3334    48.618349   -896.71505     1741.333   -4360.4522    2.1592722   0.28014382   0.12598285 
    7500   -941.57589    45.245303   -896.33059    1620.5227   -7022.5775    2.1454644   0.16510361    0.1317656 
    7600   -940.68201    44.356566   -896.32544    1588.6913    6475.4793    2.1803049    1.0991342    0.1516086 
    7700   -945.30316    41.993309   -903.30985     1504.048    4733.3677     2.185213    1.1279017   0.15695604 
    7800   -950.36337    47.856128   -902.50724    1714.0329    -4973.882    2.1722358    0.7517124   0.13787095 
    7900   -945.54358    49.105012   -896.43857    1758.7635   -2009.3415    2.1688784   0.26072534   0.12871663 
    8000   -944.00168    47.522763   -896.47892     1702.093    835.99804    2.1715691   0.64289481      0.13456 
    8100   -947.52247    48.910444   -898.61203    1751.7947   -1676.8497    2.1717061   0.50926716     0.130887 
    8200   -950.91915    43.904175   -907.01498    1572.4883    1702.3779    2.1905831   0.54636942    0.1381469 
    8300   -942.57719    44.423406   -898.15378    1591.0853   -2114.2932    2.1603359    0.2771912   0.13828097 
    8400   -944.11072    47.738418    -896.3723     1709.817   -1556.8207    2.1669732   0.38996728     0.152256 
    8500   -946.70588    50.365505   -896.34037    1803.9097    2597.7417    2.1805624   0.37472531   0.15485186 
    8600   -949.55769    43.293699   -906.26399    1550.6233   -2125.7642    2.1790511   0.77716969   0.15334049 
    8700   -943.24491    42.355261   -900.88965    1517.0118   -9437.5031    2.1526175    0.8360128    0.1559107 
    8800   -948.67445    52.441674   -896.23278    1878.2706    4288.2666    2.1911255    1.0574756   0.13215207 
    8900   -943.39445    48.011378   -895.38308    1719.5935    5731.0887    2.1873865   0.30764295   0.13098281 
    9000   -944.98555    44.293356    -900.6922    1586.4274   -13232.731    2.1433612   0.56094525   0.12430862 
    9100    -946.9969    43.809101    -903.1878    1569.0831   -688.16763    2.1759413   0.44664392   0.13707725 
    9200   -943.89207    48.809099   -895.08297    1748.1649    12468.194    2.2014107   0.40431117   0.16788794 
    9300   -943.02113    46.624164   -896.39696    1669.9085   -3774.3548    2.1614987   0.55529163   0.15953346 
    9400   -944.73768    44.931404   -899.80627    1609.2799   -7506.4011    2.1561276   0.46486962   0.16338529 
    9500   -950.15352    45.661722   -904.49179    1635.4373    6712.4992    2.2017506   0.36900239   0.14213576 
    9600   -941.06698    45.574092   -895.49288    1632.2987      2159.54    2.1709096   0.34974968   0.13991545 
    9700    -940.2942    43.702465   -896.59173    1565.2638   -3788.2795    2.1561307   0.56945706   0.14098269 
    9800   -945.07041    45.842707    -899.2277    1641.9195    2196.9003    2.1781446   0.20348428    0.1251535 
    9900   -949.61358    42.744893   -906.86868    1530.9671    8238.7398     2.205383   0.38313634    0.1163105 
   10000   -944.96823     47.60556   -897.36267    1705.0585   -7233.1923    2.1556155   0.44362356   0.13056656 
   10100   -943.82889    47.433275   -896.39562    1698.8879    -3053.632    2.1633112   0.46801031   0.14897954 
   10200    -942.4355    46.689685   -895.74582    1672.2552    9282.3034    2.1859372   0.53550548   0.16090967 
   10300   -941.87772    55.207762   -886.66995    1977.3418   -393.17489    2.1612721   0.64835691   0.16172691 
   10400   -939.80909    49.469467   -890.33962    1771.8169   -6442.7599    2.1475983   0.12375125   0.14448027 
   10500   -945.84402    49.628683   -896.21534    1777.5194   -5947.4477     2.161729    0.1966423   0.12080594 
   10600   -947.34057    50.198003   -897.14257    1797.9104    7510.6613    2.1914451   0.49086659   0.10744108 
   10700   -944.76141    47.734669   -897.02674    1709.6827    1416.9091    2.1722641  0.090042999   0.11684722 
   10800   -934.41759     46.73169    -887.6859    1673.7597   -13252.148     2.111976    0.4755524     0.132973 
   10900   -943.50738    46.686304   -896.82108    1672.1341    9232.5133    2.1894532   0.94635902   0.12113823 
   11000   -943.04671    47.397642   -895.64907    1697.6117    17629.379    2.2109203   0.77175473   0.13368452 
   11100   -940.29992    43.149121    -897.1508     1545.445   -9901.4153    2.1369918   0.85096793    0.1481817 
   11200   -937.89336    49.706502   -888.18686    1780.3067   -3711.5884    2.1468855    0.2978169   0.14537884 
   11300   -939.04616    48.218678   -890.82748    1727.0182    8616.5496    2.1811104   0.35577221   0.14647506 
   11400   -941.00132    44.642076   -896.35924    1598.9173   -1893.4816    2.1633135   0.44864503   0.13336904 
   11500   -939.68038    42.171188   -897.50919     1510.419   -1152.6168    2.1609902   0.18623749   0.12557694 
   11600   -944.23385    48.727837   -895.50601    1745.2544    5229.5478    2.1802723   0.41168878   0.11785006 
   11700   -938.59692    51.253514   -887.34341     1835.715   -1784.2163    2.1484166   0.65158674    0.1323844 
   11800    -946.7557    50.717906   -896.03779    1816.5315    -4553.088     2.160413   0.41226194   0.10943828 
   11900   -946.62526    49.277967   -897.34729    1764.9581    3164.5516    2.1800957   0.85558926   0.13422364 
   12000   -943.66147    48.086088   -895.57538    1722.2693    2587.2971    2.1725375   0.91032056   0.12958071 
   12100   -936.48275    49.078817   -887.40393    1757.8253   -8331.1477    2.1275624    1.2838061   0.16001422 
   12200   -941.72483    44.876554   -896.84828    1607.3154    4429.4693    2.1791233     3.410881   0.17048114 
   12300   -942.33687    46.359226   -895.97764    1660.4193    8488.5101    2.1814838    3.9188857   0.16505233 
   12400    -941.5455    49.612463   -891.93304    1776.9385   -9447.3681     2.140537    1.4363843    0.1750688 
   12500    -934.9936    49.047343   -885.94626     1756.698   -5262.1624    2.1348725    4.9694747   0.18509996 
   12600   -943.33057    46.858544   -896.47202    1678.3031    16107.386    2.2101236    8.1167575   0.16523463 
   12700   -943.27727    48.061198   -895.21607    1721.3778   -976.01723    2.1624878    10.516151   0.15622211 
   12800   -940.51691    46.983659   -893.53325    1682.7843   -10173.016    2.1305685    12.553166   0.13166872 
   12900   -945.94672    41.782568   -904.16415    1496.5001    7281.7105    2.1960709     13.55941   0.13715496 
   13000   -943.03452    45.134146   -897.90038    1616.5414      7613.17    2.1827451     12.26864   0.13719622 
   13100   -941.64798    46.230051   -895.41792    1655.7928   -3536.4282    2.1579495    15.770753   0.15928841 
   13200   -947.58559     48.51661   -899.06898     1737.689   -5472.3065    2.1666615    13.087082   0.15921895 
   13300   -947.21361    43.730022   -903.48359    1566.2508    6311.0052    2.1932914     14.77643    0.1610556 
   13400   -939.79967    45.066468    -894.7332    1614.1175   -278.88304    2.1623122    12.295973   0.16387145 
   13500   -944.42239    47.449998   -896.97239    1699.4869   -6174.5597    2.1560335    13.619501   0.13728306 
   13600   -946.25626    43.467041   -902.78922    1556.8318    5248.3238     2.187954    11.579888   0.13130625 
   13700   -944.33188     47.60506   -896.72682    1705.0406    6523.1286    2.1872324    13.623924   0.12826009 
   13800   -941.70974    47.126313   -894.58342    1687.8936   -3336.7739    2.1575203    12.067403   0.13375757 
   13900   -946.25784    47.944315   -898.31353    1717.1915   -7941.8076    2.1569635    12.770006   0.13210049 
   14000   -947.72276    49.526199   -898.19656    1773.8488    4917.9429     2.185717    12.071636   0.14161837 
   14100   -940.41682    52.066425    -888.3504    1864.8305    477.52557     2.160481    16.538503   0.16550917 
   14200   -939.60685    43.744838   -895.86201    1566.7815    -7457.714    2.1441591    12.367821   0.16828691 
   14300    -946.0681    47.719748   -898.34835    1709.1483    1282.9824    2.1768949    12.677787   0.14808871 
   14400   -945.88805    50.320744    -895.5673    1802.3066    14906.395    2.2055462    10.721686   0.13646597 
   14500   -938.55358    49.082278    -889.4713    1757.9492   -10504.155    2.1277284    15.108643   0.14466266 
   14600   -944.54868    45.087164   -899.46151    1614.8587   -10356.883    2.1479535    10.155486   0.12862454 
   14700   -944.84989    48.714637   -896.13525    1744.7816    10964.772    2.2030037    11.100892   0.13462196 
   14800   -942.53032    48.510783   -894.01953    1737.4803    3022.1874    2.1733031    13.225645   0.13684156 
   14900    -942.5237    54.991011   -887.53269    1969.5786   -12941.163    2.1305569    14.221062   0.14443815 
   15000   -945.55381    46.299863   -899.25394    1658.2932    4940.6567    2.1902669    13.509089   0.16103198 
   15100   -943.06354    45.792431   -897.27111    1640.1188    4580.2651    2.1813324    11.802328   0.14937215 
   15200   -945.10623    49.068894   -896.03733    1757.4698   -5668.8754    2.1548167    12.088239   0.14412106 
   15300   -940.59812    51.311968   -889.28615    1837.8086   -1012.6196    2.1587676    12.962684   0.14991061 
   15400   -941.73648    53.355658   -888.38082    1911.0062    261.92146    2.1593967    9.8057801   0.13300965 
   15500   -943.03937    47.321713   -895.71765    1694.8921   -615.60379    2.1623398    11.567982   0.11746269 
   15600   -945.40386    48.608271   -896.79559     1740.972   -892.74788     2.172147    12.752525   0.13159204 
   15700   -943.85028    46.018879    -897.8314    1648.2294    3312.2693    2.1758743    12.969786   0.12998904 
   15800   -948.76571    45.041864   -903.72385    1613.2362   -6818.7887    2.1649505    13.149964   0.12550265 
   15900   -948.36209    42.884055   -905.47804    1535.9513    1258.3147     2.182507    13.614778   0.14407407 
   16000   -948.72911    49.979401   -898.74971    1790.0809    10254.131    2.2014065    11.774689   0.14629571 
   16100   -942.53132    46.458051   -896.07327    1663.9589   -8818.0373    2.1479505    13.125002   0.15156199 
   16200   -941.85795    46.430561   -895.42739    1662.9743   -13080.786    2.1321934    13.464579   0.14082554 
   16300   -949.22596      45.3534   -903.87256    1624.3943    14072.943    2.2139176    12.040978   0.11964455 
   16400   -946.05503    49.511721   -896.54331    1773.3303    5448.5125    2.1844386     11.91767   0.12395224 
   16500   -941.33527    45.669548   -895.66572    1635.7176   -8488.0478    2.1387776    13.818417   0.12352571 
   16600    -942.9637    45.298367   -897.66533    1622.4232   -1615.1256    2.1647243    14.486881   0.12643344 
   16700   -949.24513    45.254577   -903.99056    1620.8548    7612.1035    2.2016473    13.829177   0.13881986 
   16800   -943.05199      49.3975   -893.65449    1769.2393   -3073.6787    2.1532709    14.051443   0.12074087 
   16900    -941.7413    46.450808   -895.29049    1663.6995   -151.77679    2.1622635    14.000106   0.12939424 
   17000   -945.29603    46.488075   -898.80796    1665.0343    2410.8012    2.1795891    13.719168   0.14106107 
   17100    -947.9359    44.925906      -903.01     1609.083   -505.34679    2.1778758    11.400221   0.14851479 
   17200   -938.87774    46.561663   -892.31608    1667.6699   -1828.1714    2.1504283    15.744176   0.15380554 
   17300   -940.97876    46.572582   -894.40618     1668.061    7785.4985    2.1809012    10.116656     0.139609 
   17400   -946.89713    49.434753   -897.46238    1770.5736   -507.27686     2.172565     15.01529    0.1223709 
   17500    -943.7005    44.733075   -898.96743    1602.1765   -4935.5901    2.1562735    13.817407   0.13734887 
   17600   -946.27119      39.3985   -906.87269    1411.1114    3013.4461    2.1830605    16.018977   0.14298948 
   17700   -949.72603    44.791796   -904.93423    1604.2797    4796.2748    2.1974718    12.303195   0.12877837 
   17800   -945.40025    46.511708   -898.88855    1665.8807    -454.3814    2.1719381    13.776703    0.1322913 
   17900   -944.33024    47.811632   -896.51861    1712.4393   -12011.046     2.141705    13.521654   0.14314119 
   18000   -942.49701    50.071313    -892.4257    1793.3728    4945.2006    2.1813512     13.45262   0.16049351 
   18100   -947.13621    45.209471   -901.92674    1619.2393    17073.814    2.2209362    13.919797   0.15714323 
   18200   -945.98957    47.879897   -898.10967    1714.8843   -17758.057    2.1271844    13.549907    0.1428714 
   18300   -944.85558     49.42698    -895.4286    1770.2952   -7351.5002     2.152062    13.222082    0.1340961 
   18400   -947.05802    50.885979   -896.17205    1822.5512    10252.384     2.202625    12.340726   0.13092922 
   18500   -951.87884    47.378916   -904.49992     1696.941   -1610.3255    2.1846656    14.231209   0.15041589 
   18600   -943.94366    47.612018   -896.33164    1705.2898   -8939.2259    2.1483342    15.538233   0.13488824 
   18700   -942.97457    48.143606   -894.83097    1724.3294    5879.8604     2.183159    13.770792   0.14916791 
   18800   -945.29055    47.249481   -898.04107     1692.305    4140.4662    2.1845199    10.102849   0.14072695 
   18900    -948.5098    47.296327   -901.21347    1693.9829   -7283.7315    2.1628015    12.936631   0.12917081 
   19000    -951.9752    41.192863   -910.78234     1475.379   -2801.6519    2.1869673    12.068994   0.15443789 
   19100   -946.93415    42.323962   -904.61019    1515.8908    4803.7222    2.1922759    14.086929   0.14524362 
   19200   -944.46728     45.00966   -899.45762    1612.0828    3279.2556    2.1834986     11.42217   0.17062709 
   19300   -946.93938    50.566972   -896.37241    1811.1255    -5492.624    2.1563072    14.310273   0.13177582 
   19400   -943.78964    49.776797   -894.01285    1782.8244   -2336.1447     2.165116    11.915008   0.13963925 
   19500   -946.84963    42.742209   -904.10742    1530.8709    10747.016    2.2074333    11.599357   0.14363144 
   19600   -943.02327    44.517031   -898.50624    1594.4386    -6033.072    2.1529333    13.646965   0.12912404 
   19700   -941.90187    46.035023   -895.86684    1648.8076   -6819.3784    2.1510958    12.929834   0.14776922 
   19800   -941.86035     47.09179   -894.76856    1686.6571    14788.261    2.1984401    13.388932   0.15936395 
   19900   -937.53909    51.185047   -886.35404    1833.2627    6254.9271    2.1662232    13.348101   0.16193721 
   20000   -938.06809    48.657607   -889.41048     1742.739   -14139.995    2.1215436    14.072364   0.14904768 
   20100   -944.65567    48.182547   -896.47312    1725.7241   -2914.2301    2.1641268    13.590061   0.14545036 
   20200   -949.31723    53.356736    -895.9605    1911.0448    12851.385    2.2098697     13.90344   0.14594538 
   20300   -947.35373    48.899994   -898.45374    1751.4205   -6077.5638    2.1640272    12.048668   0.12329555 
   20400   -950.26967    41.896428   -908.37324    1500.5781   -8702.3007    2.1677338    12.756234   0.13844489 
   20500   -945.42441    44.432632   -900.99178    1591.4157    2900.5256    2.1830693    12.733241   0.14811126 
   20600   -945.55725    48.938156   -896.61909    1752.7873    1922.3432    2.1815603    12.606844   0.13299453 
   20700   -943.80569    48.208058   -895.59763    1726.6378   -2924.8198    2.1606359     15.50752   0.13406039 
   20800   -947.27356    46.004596   -901.26896    1647.7178   -3254.4881    2.1654858    15.409113   0.12269563 
   20900   -945.89164     42.93313   -902.95851     1537.709    7790.2316    2.1933845     14.83367   0.14653412 
   21000   -941.32115    45.307094   -896.01406    1622.7358    4579.6332    2.1738663    12.292295   0.14834037 
   21100   -943.71469    47.497463   -896.21723    1701.1869   -6336.3094    2.1492705     15.27869   0.12788609 
   21200   -948.84536    44.871479   -903.97388    1607.1337   -209.79787    2.1810402    12.823534   0.12187118 
   21300   -948.21191    47.451208    -900.7607    1699.5302    7095.0036    2.1930356    12.046081   0.12918266 
   21400   -942.62504    47.044618   -895.58042    1684.9676   -530.61288    2.1639757    9.9010503   0.13696382 
   21500   -948.11978     50.81151   -897.30827     1819.884   -11619.113    2.1475069    12.864692   0.11533416 
   21600   -948.19272     43.36783   -904.82489    1553.2784    6720.2074    2.1980791    10.242286   0.13824897 
   21700   -945.32216    46.434417   -898.88774    1663.1124    9756.2586    2.1944922    13.628846   0.14048729 
   21800   -942.77212    46.712301   -896.05982    1673.0652   -10232.783    2.1370204    12.796937   0.14432298 
   21900   -944.70259    47.183493   -897.51909    1689.9416   -7747.6832    2.1477593    14.197623   0.14553326 
   22000   -945.81283    48.088806   -897.72403    1722.3666    19570.494    2.2222458    13.653721   0.13900562 
   22100   -939.71156    52.521193   -887.19036    1881.1187    -2822.043    2.1469596    13.365075   0.15157243 
   22200   -939.57568    44.653997   -894.92168    1599.3442   -7594.0622    2.1398265    14.181055   0.13185486 
   22300   -943.89098    46.898825   -896.99216    1679.7458    6286.2026     2.187395    14.107993   0.15087229 
   22400   -943.86135    45.396689   -898.46466    1625.9448    6579.2854    2.1866681    11.344787   0.14465285 
   22500   -938.09389    50.331539   -887.76235    1802.6932     -7260.88    2.1349153    14.773987   0.15013003 
   22600   -941.47178    45.673053   -895.79872    1635.8431     4151.741    2.1750088    10.864825   0.15694491 
   22700   -945.23815    47.672695   -897.56545     1707.463    5297.8719    2.1836356    14.243695   0.16663428 
   22800   -944.01993    50.841085   -893.17885    1820.9433   -3272.1571     2.160459    11.500472   0.14696723 
   22900   -939.11438     49.67289   -889.44149    1779.1028   -5366.6113    2.1453131    11.773304    0.1411327 
   23000   -942.77039    44.609704   -898.16069    1597.7578    6441.9592    2.1832879    12.912174   0.13372435 
   23100   -941.75227    45.777305   -895.97497    1639.5771    5456.4872    2.1802287    11.735963   0.13077814 
   23200   -938.67645    48.437144   -890.23931    1734.8428   -6582.7246    2.1423897    12.379089     0.144778 
   23300   -941.73745    44.543659   -897.19379    1595.3923   -2198.3854    2.1587543    12.861984   0.14593375 
   23400    -947.2915    48.717379   -898.57412    1744.8798    4034.4665    2.1874887     12.32788   0.15169244 
   23500    -941.3772    46.484891   -894.89231    1664.9202    7357.5583    2.1815904    13.604206   0.14927924 
   23600   -940.82488     44.51454   -896.31034    1594.3494   -11022.307    2.1355774    15.313515   0.14152054 
   23700   -948.14373    42.716893   -905.42684    1529.9642    606.83079    2.1826689    15.555115   0.12692798 
   23800   -945.06564    48.620914   -896.44473    1741.4248    16966.556    2.2136808    11.946308   0.14012567 
   23900   -941.12707    45.421074     -895.706    1626.8182   -4914.0112    2.1544745    11.516166   0.13472402 
   24000    -938.8958    41.841316   -897.05448    1498.6042   -9681.4984    2.1364313    13.080882   0.13556654 
   24100   -948.92568    45.568261   -903.35742    1632.0899    11996.623    2.2074012      11.9375   0.13879152 
   24200   -942.68666    49.268282   -893.41838    1764.6112    1533.3319    2.1714007    12.912499   0.13890886 
   24300    -944.3228    48.436547   -895.88625    1734.8215   -7155.0814    2.1532739     14.00755   0.15435299 
   24400   -946.86641    47.528849   -899.33756     1702.311   -2330.6061    2.1709935     12.39738   0.13795693 
   24500   -948.04517    43.065999   -904.97917    1542.4679    6352.7823    2.1935881    12.698391    0.1435834 
   24600   -943.87537    47.848242   -896.02713    1713.7505   -1763.3356    2.1658013    14.048111   0.13924197 
   24700   -940.92095    45.175119   -895.74583    1618.0089    479.08842    2.1678579    13.438186   0.14635173 
   24800   -943.80664    47.035545    -896.7711    1684.6427    608.08278    2.1727884    13.370476   0.14244699 
   24900   -943.48933    45.031424   -898.45791    1612.8623    1580.1225     2.171147     12.69377   0.13936949 
   25000   -949.68536    41.226262    -908.4591    1476.5752   -211.94857    2.1863166    11.086858   0.13917047 
   25100   -946.33623    45.056152   -901.28008     1613.748   -3344.3751    2.1679658    14.100405   0.13464269 
   25200   -941.58119    44.499616   -897.08157    1593.8149    8596.4598    2.1828185     13.85212    0.1559086 
   25300   -941.58631    46.875549   -894.71076    1678.9122    2103.9248    2.1736986    11.046046   0.16027007 
   25400   -943.35443    45.973548   -897.38088    1646.6057   -10159.984    2.1450932    13.415125   0.14625301 
   25500   -948.76884    45.440385   -903.32845    1627.5098    2831.7104    2.1903254    13.009909   0.14533526 
   25600   -942.34428    47.277391   -895.06689    1693.3047    9628.3544    2.1992052     11.01139   0.15443227 
   25700   -942.93577    46.597153   -896.33862    1668.9411    -8258.244    2.1505231    15.052263   0.13560402 
   25800     -944.747    45.278396   -899.46861    1621.7079   -6646.1679    2.1522432    13.285083   0.13351325 
   25900    -949.7652    45.964514   -903.80068    1646.2822    12685.767    2.2172748    11.871705   0.13969911 
   26000   -942.60137    47.923324   -894.67805    1716.4397    1759.2636    2.1698926    12.817233   0.14915941 
   26100    -941.9875    45.096454   -896.89104    1615.1914   -7335.1513    2.1484665    13.913747   0.15980931 
   26200   -946.37233    47.174775   -899.19755    1689.6294    2630.1892    2.1835376    11.915624   0.15530044 
   26300   -953.91891    45.650892   -908.26802    1635.0494    4848.1382    2.2040113     13.24307   0.14791475 
   26400   -946.35374    46.993978   -899.35976    1683.1539   -6841.7813    2.1583402     13.02418   0.14430557 
   26500   -943.72412    46.513755   -897.21036     1665.954    862.27291    2.1729051    14.685041   0.14628931 
   26600   -942.03964    48.216802   -893.82284     1726.951    4518.0046    2.1779455    18.230024   0.14555316 
   26700   -939.55058    47.512095   -892.03848     1701.711   -1236.1653    2.1518273    12.067467   0.14556555 
   26800   -949.96956    47.844778   -902.12478    1713.6264   -736.58984     2.180494    11.815774    0.1390692 
   26900    -945.5294    48.554867   -896.97453    1739.0593    1775.9811    2.1784099    12.577545   0.15242897 
   27000   -938.18649    45.608673   -892.57781    1633.5373   -2313.6831    2.1533079    19.204082   0.15482055 
   27100   -934.54262    44.168677   -890.37394    1581.9618   -5118.4699    2.1431823    20.375257   0.17129939 
   27200   -945.85272    46.175851   -899.67687    1653.8515    11156.076    2.2066002    17.543133   0.16733236 
   27300    -942.8163    48.967821   -893.84848    1753.8498    2887.8422    2.1760004     16.47158   0.14318969 
   27400    -942.1234    45.722607   -896.40079     1637.618   -12473.444    2.1314061    13.117854   0.13999148 
   27500   -946.91085    43.934657   -902.97619    1573.5801    3245.3407    2.1847592    13.555795   0.13439788 
   27600   -940.21013    44.870419   -895.33971    1607.0957    20475.802    2.2138426    11.860783   0.14634802 
   27700   -942.61331    47.799774   -894.81353    1712.0146   -7311.3565    2.1489314     10.18679   0.13571859 
   27800   -945.47104    45.783724   -899.68732     1639.807   -12778.176    2.1384363    11.450894   0.11773229 
   27900   -946.47519    49.290509   -897.18468    1765.4073    9578.3725    2.1967952    13.029162   0.13374945 
   28000   -940.65986    50.996639   -889.66322    1826.5147    60.748506     2.159046    19.870792   0.14549318 
   28100   -941.84162     43.83731   -898.00431    1570.0935   -4762.4152    2.1531053    17.836732   0.15504403 
   28200   -943.90233    47.523626   -896.37871    1702.1239   -877.36523    2.1633996    15.591501   0.14728291 
   28300   -940.25058    51.405283    -888.8453    1841.1508    2994.4257    2.1623412     14.33253   0.14173059 
   28400   -945.21332    47.505704   -897.70761     1701.482   -1133.4833    2.1693923    30.495869   0.16562976 
   28500   -943.32579     46.25113   -897.07466    1656.5477   -5764.8306     2.152672    23.171082   0.16785816 
   28600   -939.61825    50.666568   -888.95168    1814.6927    535.10754    2.1592566    24.011027   0.16913528 
   28700   -946.11392    48.170113    -897.9438    1725.2787    7227.4999     2.189009     20.79179   0.15772231 
   28800   -940.63516    43.644033   -896.99112     1563.171   -3702.2221    2.1529514    25.771177   0.15193557 
   28900   -938.23774    47.593555   -890.64419    1704.6286   -3625.5812    2.1471149    27.421395   0.14546007 
   29000   -946.18576    45.894798   -900.29096    1643.7852    11874.451    2.2026877    21.902679   0.15973029 
   29100   -941.23475      44.8593   -896.37545    1606.6974    -128.2489    2.1638354    25.787948   0.18636739 
   29200     -940.562    47.622402    -892.9396    1705.6617   -7940.7439    2.1398463    38.890927   0.15931755 
   29300   -948.20014    46.613707   -901.58644    1669.5339    3153.0277    2.1898562    41.996505   0.14725977 
   29400   -946.67267     48.49444   -898.17823     1736.895     4346.631    2.1864838     37.65966   0.14665914 
   29500   -940.53479    46.772661   -893.76213    1675.2271   -6317.2719    2.1478394    41.619917   0.14873696 
   29600   -945.47432    44.953531   -900.52079    1610.0724   -4111.6713     2.165507     38.10251   0.15677381 
   29700   -944.10361    44.420524   -899.68308    1590.9821    8190.2554    2.1938775    43.517301   0.15956529 
   29800    -940.1471    47.529041   -892.61806    1702.3179    2195.4541    2.1659159    39.697264    0.1564806 
   29900   -944.36637    45.466884   -898.89949    1628.4589    -10484.67    2.1482807    40.341875   0.16333671 
   30000   -947.52855    46.828803   -900.69975    1677.2379   -1387.2622    2.1760185    38.887438   0.15283957 
   30100   -942.36874    51.655272   -890.71347    1850.1045    14471.331    2.2035483    42.332286   0.18086845 
   30200   -942.00154    46.147624   -895.85392    1652.8405   -8060.4154    2.1481884     37.37132   0.14638759 
   30300   -943.39255    42.877931   -900.51461     1535.732   -12946.322    2.1371919    39.366095   0.13155606 
   30400   -945.92072    50.846948   -895.07377    1821.1533    13481.488    2.2037315    38.281606   0.13713692 
   30500   -943.68571    52.315159   -891.37055    1873.7393    4581.0156    2.1766336    39.092854   0.13525416 
   30600   -943.39589    43.307523   -900.08837    1551.1184   -7554.7259    2.1517453    44.369643   0.14013528 
   30700   -948.07624    51.483606   -896.59263    1843.9561   -2749.4204    2.1671721    42.036243   0.14113713 
   30800   -940.93682    51.128659   -889.80816    1831.2432    7890.1301     2.175738    45.879504   0.15938001 
   30900   -943.14033    43.626724   -899.51361    1562.5511     2488.654    2.1706827    40.935618   0.13830262 
   31000   -946.96965    48.253172   -898.71648    1728.2536   -11296.363    2.1481564    43.857664   0.14816086 
   31100   -941.89522    49.867913    -892.0273    1786.0878    3426.1094    2.1681629     40.14047   0.13793228 
   31200   -949.01119    49.078977   -899.93221     1757.831    6168.8667    2.1910625    42.489953   0.13831122 
   31300   -945.37865    45.825946   -899.55271    1641.3192   -5388.8281    2.1562042     42.53491   0.12273132 
   31400   -943.99532    50.401064   -893.59425    1805.1833   -7757.2711    2.1469715    39.354013   0.11667592 
   31500    -946.7244    47.525197   -899.19921    1702.1802    5608.1569    2.1866366    38.101657   0.12749639 
   31600   -946.95797    45.960371    -900.9976    1646.1338    4121.7584    2.1840893    39.651694   0.11864359 
   31700   -943.05438    50.160371   -892.89401    1796.5626   -9008.0496     2.135653    39.200015   0.13314031 
   31800   -947.18376     48.44066    -898.7431    1734.9688   -3866.1523    2.1661191    36.974599   0.13033705 
   31900   -946.38554    47.454854   -898.93069    1699.6608    12139.552    2.1989259    36.493945   0.13702683 
   32000   -940.11255    49.657826   -890.45473    1778.5632   -3447.0724    2.1462102    40.835116   0.14995992 
   32100   -942.21822    44.657103   -897.56111    1599.4555   -9900.8877    2.1404615    42.990901    0.1436053 
   32200   -948.49381     50.19815   -898.29566    1797.9157    7602.9304    2.1942368    39.864165    0.1317069 
   32300   -940.41937    50.362294   -890.05708    1803.7947    13562.019    2.1928946    38.495115   0.13120601 
   32400   -938.61443    44.171087   -894.44335    1582.0481   -16243.153    2.1147836    41.124269   0.13091573 
   32500   -945.68532    44.725611   -900.95971    1601.9092   -5911.5867    2.1550628    41.219675    0.1220186 
   32600   -944.09088    49.247272    -894.8436    1763.8587     18170.22    2.2137094     36.61653   0.14167119 
   32700   -942.30488    48.283897   -894.02099    1729.3541   -1667.3531     2.161336    39.776655   0.14286466 
   32800   -945.61453    42.728652   -902.88588    1530.3854   -6869.1515    2.1580209    41.835437   0.14444922 
   32900   -943.84996    45.801522   -898.04844    1640.4444    3655.7515    2.1769052    30.890793   0.14675552 
   33000   -941.68845    48.709379   -892.97907    1744.5933    7051.3089    2.1791124    37.062557   0.15830679 
   33100   -945.68579    44.890451   -900.79534    1607.8131   -4233.6787    2.1649135    38.927022   0.14320851 
   33200   -942.77734    43.663231   -899.11411    1563.8586   -3225.6673    2.1611118    38.111883   0.15009109 
   33300   -944.25817    51.715391   -892.54278    1852.2578    3230.0082     2.175078    38.138341    0.1485544 
   33400    -946.0109    47.364474   -898.64643    1696.4237    1563.4021    2.1782413    35.816431   0.14722006 
   33500   -945.52028    44.196184   -901.32409     1582.947   -4364.6913    2.1606587    41.667816   0.13341013 
   33600   -941.86953      50.3296   -891.53993    1802.6238   -5607.0858    2.1507116    40.671261   0.13899671 
   33700   -946.75506    50.362572   -896.39249    1803.8047    6126.8219    2.1926902    39.366558   0.15363072 
   33800   -947.10363    46.824174   -900.27945    1677.0721   -2897.6922    2.1718368    43.476094   0.14892745 
   33900   -937.28834     45.85678   -891.43156    1642.4236   -7994.8848    2.1346834    40.650547   0.17770333 
   34000    -943.1498    47.745273   -895.40453    1710.0625    4899.9692    2.1790921    36.914904   0.14612427 
   34100   -946.38159    47.636028   -898.74557    1706.1498    7916.3147    2.1902929    41.302471   0.14114171 
   34200    -940.6014    46.180026   -894.42137    1654.0011   -6292.6053     2.146021    44.952143   0.15280965 
   34300   -940.26029    48.423067   -891.83722    1734.3387    -4897.405    2.1458157    39.367689   0.14378378 
   34400   -945.44419    45.401423   -900.04276    1626.1143    14667.164    2.2080496    36.030437   0.13777589 
   34500   -943.75223    49.045803   -894.70643    1756.6428    2317.7265    2.1751923    42.224855   0.15516989 
   34600   -939.93323    45.375046   -894.55818    1625.1696   -16166.905    2.1188884    43.138731   0.13717022 
   34700   -952.65439    50.042558   -902.61183    1792.3429    -3983.698    2.1800154    35.571171   0.14790581 
   34800   -948.15012    50.670258   -897.47986    1814.8249    15471.933    2.2138393     38.17235    0.1522423 
   34900   -938.83952    44.796664   -894.04286     1604.454   -5411.5351    2.1494853    41.670553    0.1513568 
   35000   -942.39387    43.391192   -899.00267    1554.1151   -7916.7811    2.1490559    40.013782   0.15430359 
   35100   -946.68909    46.782781   -899.90631    1675.5896    5985.6292    2.1929763    39.669212   0.12389866 
   35200   -940.64528    49.219871   -891.42541    1762.8773    2549.3395    2.1698751    40.775967   0.15399878 
   35300   -943.32212    44.866691   -898.45543    1606.9622   -5448.7033    2.1592373    43.043964     0.128183 
   35400   -946.93141    47.772102   -899.15931    1711.0234   -1443.8768    2.1704937    39.073092   0.13142938 
   35500   -940.65348    50.367854   -890.28563    1803.9939    1716.9299    2.1705789    41.990333   0.15708494 
   35600   -943.37618    45.526535   -897.84965    1630.5954     2285.593    2.1763499    39.133698   0.14300938 
   35700    -946.1849    46.516966   -899.66793     1666.069   -5409.2323    2.1610877    41.278724   0.13617804 
   35800   -937.45894    46.277627   -891.18131    1657.4968    1894.9451    2.1616792    42.846121   0.14885725 
   35900   -945.94448    47.507323   -898.43715      1701.54    7194.4876    2.1920966    39.476117   0.16291438 
   36000   -947.29278    47.300511   -899.99226    1694.1328    -3809.267    2.1667415    39.162666   0.15148171 
   36100   -942.11207    49.338415   -892.77366    1767.1231   -6987.4531    2.1461256     39.96793   0.13464072 
   36200   -943.03303    43.796012   -899.23702    1568.6143    7760.2238    2.1931332    38.816088   0.14029462 
   36300   -944.49731    44.439488   -900.05782    1591.6613    6063.3551    2.1918471    43.423163   0.14001916 
   36400   -943.21664    49.650367   -893.56628    1778.2961    -10130.05     2.139422    42.547762   0.13377911 
   36500    -944.5762     48.14875   -896.42745    1724.5136   -5126.9904    2.1586714    44.769185   0.15798611 
   36600    -945.2301    45.438598   -899.79151    1627.4458     16262.14    2.2158279    39.506919   0.14864399 
   36700   -939.75478     48.19126   -891.56352    1726.0362   -27.228987    2.1604339    40.383388   0.15869733 
   36800   -941.70437    45.910223   -895.79415    1644.3377   -14042.646    2.1313443    40.166601   0.15041221 
   36900   -945.71507    46.073933   -899.64114    1650.2012    4672.7103    2.1881836     40.52866   0.16197045 
   37000   -945.62107    51.808551   -893.81252    1855.5944    11890.321    2.1979661    37.530767   0.16372717 
   37100   -941.53238    48.713392   -892.81899    1744.7371   -6415.6378    2.1465367    46.426615   0.15510587 
   37200   -943.35384    43.252488   -900.10135    1549.1473   -1766.2766    2.1661093    37.950906   0.15684925 
   37300   -944.21206    47.157616   -897.05445    1689.0148    6833.1088    2.1838009    38.523488   0.13831767 
   37400    -943.0325    51.923367   -891.10914    1859.7067   -499.60894    2.1626651     38.21369   0.14546555 
   37500   -945.14887    45.292074    -899.8568    1622.1978   -2140.6297    2.1690516    42.064865    0.1398139 
   37600   -940.88843    44.026014   -896.86241    1576.8522    74.580916    2.1688929     40.22008   0.16047329 
   37700   -941.38025    50.548087   -890.83216    1810.4492    1619.8299    2.1689854    42.808454   0.17352103 
   37800      -946.06     46.03386   -900.02614    1648.7659    1747.2137    2.1803024    38.957268   0.15964269 
   37900   -946.37419    49.343848   -897.03034    1767.3177   -6580.5022    2.1622317    43.472028   0.15887641 
   38000   -939.81202    47.998192   -891.81383    1719.1212    194.51847    2.1658692    38.816843    0.1717777 
   38100     -947.106    46.575877   -900.53012     1668.179    7088.9103    2.1957637    40.847822   0.14369692 
   38200   -947.29271    50.550976   -896.74173    1810.5526   -6324.0199    2.1622243    38.977077    0.1350509 
   38300   -943.13917    49.607486   -893.53169    1776.7602    -8990.994    2.1460888     44.00752   0.14482556 
   38400   -946.56793    45.572884   -900.99504    1632.2554    9381.3197    2.2036503    43.010316   0.14018226 
   38500   -946.05113    47.584782   -898.46635    1704.3143    7146.1986    2.1948981    40.612757   0.16135165 
   38600   -939.30005    45.438539   -893.86151    1627.4437   -13591.478    2.1305656    39.312208   0.15659948 
   38700   -945.38584    45.863092   -899.52275    1642.6496   -3476.0099     2.166732    39.435925   0.15305826 
   38800   -947.57249    48.602283   -898.97021    1740.7575    15520.625    2.2167094    38.620501   0.16724092 
   38900    -941.5956    50.083834   -891.51177    1793.8213   -1183.0322    2.1613887    41.258523   0.16256242 
   39000   -945.20659    47.521835   -897.68475    1702.0598   -10341.064    2.1467335    41.102285   0.13945309 
   39100   -949.40691    50.255453   -899.15146    1799.9681    2552.0338    2.1845421    40.143661   0.13438826 
   39200   -941.50541    51.198078   -890.30733    1833.7295    5195.7973      2.17609    41.073236   0.12884818 
   39300   -946.59712    49.851583   -896.74553    1785.5029   -4931.6358     2.163793    40.239097   0.14146969 
   39400   -949.24553    49.355885   -899.88965    1767.7488   -6221.1453    2.1626082    41.311334    0.1259347 
   39500   -939.49441    48.265845   -891.22857    1728.7075    4387.2944    2.1732712    39.539829   0.16454662 
   39600   -943.53557    46.183546   -897.35203    1654.1271    3736.7196     2.181329    41.464078   0.17950156 
   39700   -945.23185    44.453628   -900.77822    1592.1678   -5568.5804    2.1624412    40.316602   0.16804637 
   39800   -940.99445    48.123222   -892.87123    1723.5993    145.34304    2.1615038    41.530936   0.16599331 
   39900   -943.30871    45.762114   -897.54659     1639.033    8796.4936    2.1883349     37.05495   0.14344113 
   40000   -947.44542    46.114105   -901.33131      1651.64   -2308.1371     2.176251    42.827782   0.14219348 
   40100   -939.44675    45.464119   -893.98263    1628.3599   -4179.5779    2.1509564    38.855391    0.1361666 
   40200    -942.8043    46.771739   -896.03256    1675.1941    4117.1718    2.1787156    41.114473   0.13683892 
   40300   -943.34035    42.075321   -901.26503    1506.9854    10984.465    2.1984766     43.58851   0.14165071 
   40400   -938.40626    45.726273   -892.67998    1637.7493   -8102.6466    2.1398241    42.181939   0.16114305 
   40500   -942.00697    45.801875   -896.20509    1640.4571   -6217.4494    2.1509903    37.468136   0.17753872 
   40600   -946.90673    48.190677   -898.71605    1726.0153    14780.433    2.2142651    40.155241   0.16853227 
   40700   -943.37561    52.414314    -890.9613    1877.2906    1310.7289     2.172843    39.669636     0.168811 
   40800    -938.5666    45.017839   -893.54876    1612.3757   -12294.414    2.1313755    44.351447   0.15703796 
   40900   -942.69313    43.405853   -899.28727    1554.6403    1658.4644    2.1744866    39.067034   0.13694473 
   41000   -945.13612    49.198173   -895.93795    1762.1001    10405.612    2.1996037    40.390211   0.13966507 
   41100   -942.23777    51.433512   -890.80426    1842.1619   -6011.9328    2.1455082    37.183781   0.13959206 
   41200   -944.87235    44.322771   -900.54958    1587.4809   -4124.0508    2.1613934    41.275534   0.12775418 
   41300   -945.95152    48.473879   -897.47764    1736.1586    4122.1373    2.1817208    38.073367   0.15352399 
   41400   -943.58911    52.117143   -891.47197    1866.6471    478.50173    2.1666427    44.342339   0.15134452 
   41500   -945.27062    45.870778   -899.39985    1642.9249   -4287.4049    2.1579149    41.662802   0.14120916 
   41600   -946.76003     47.33666   -899.42337    1695.4275    -2569.659    2.1644421    41.156252   0.14248003 
   41700   -943.67107    51.148412   -892.52266    1831.9506    4300.9965    2.1767201    41.583525   0.13430795 
   41800   -943.42043     44.73153    -898.6889    1602.1212    897.60036    2.1672076     61.81262   0.16428659 
   41900   -944.53716    43.322641   -901.21452    1551.6599   -2430.7004    2.1627895    62.997016   0.16558689 
   42000   -942.55781    49.966547   -892.59127    1789.6205    815.82286    2.1653072    65.850698   0.16429496 
   42100   -946.82724    50.645098   -896.18214    1813.9238    418.90562    2.1748896    66.418288   0.16677267 
   42200   -945.47966    44.125315   -901.35435    1580.4088   -2231.5604    2.1700712    65.967415   0.16861982 
   42300   -937.56311    46.549504    -891.0136    1667.2344    -5344.312    2.1423842    66.815673   0.16039811 
   42400   -946.13863    51.783767   -894.35486    1854.7067    10958.519    2.2011186     64.87208   0.18584241 
   42500   -946.87572    48.753365   -898.12235    1746.1687    2446.6137    2.1810846    61.437608   0.15698786 
   42600   -940.55839     49.21629    -891.3421     1762.749   -14931.196    2.1230821     80.13419    0.1522232 
   42700   -938.23904    47.670996   -890.56805    1707.4022    193.78683    2.1523856    68.641103   0.16159509 
   42800   -946.42561    49.908525   -896.51709    1787.5424    11183.732    2.2020939    61.171158   0.15958244 
   42900   -942.07271    46.492508    -895.5802     1665.193   -1732.4437    2.1604913    65.243706   0.14854904 
   43000    -936.9199    47.795308   -889.12459    1711.8546   -8261.9624    2.1316522    64.767513   0.17271607 
   43100   -946.61003    46.889218   -899.72081    1679.4017    7441.4726    2.1963978    68.336361   0.15557059 
   43200   -946.63094    50.167842    -896.4631    1796.8302    1323.0654    2.1759667    72.134557   0.15280579 
   43300   -944.22492    51.012859   -893.21206    1827.0956   -9265.5944    2.1417237    67.605749   0.15406025 
   43400   -949.21395    47.467852   -901.74609    1700.1263   -2685.8447    2.1715528    69.737612   0.15520284 
   43500   -942.73451    44.406352   -898.32816    1590.4745     6568.424    2.1814781    63.661533   0.17533565 
   43600   -941.09947     47.88886   -893.21061    1715.2053   -1065.1243    2.1581479    69.244983   0.17901717 
   43700   -944.77173    46.282291   -898.48944    1657.6638   -3192.8471     2.158245    50.530242   0.16871984 
   43800   -943.73254     44.02318   -899.70936    1576.7507     3829.173    2.1789967    44.923545   0.15764129 
   43900   -941.90618    49.909877   -891.99631    1787.5908    1411.7119    2.1672852     36.69822   0.14087059 
   44000   -946.29592    47.085037   -899.21089    1686.4153   -6903.1546    2.1586748    36.195915   0.13948423 
   44100   -946.29476    47.359348   -898.93541    1696.2401   -3857.6616    2.1666494    38.824129    0.1394362 
   44200   -940.30297    50.280455   -890.02252    1800.8635    8446.2603    2.1806963    37.192819   0.13976086 
   44300   -939.97245    43.054086   -896.91836    1542.0412    782.34198    2.1594403    39.619723   0.14027285 
   44400   -942.96283    43.140547   -899.82229    1545.1379   -10514.345    2.1416184    38.370675   0.14309673 
   44500   -940.85639    49.874299   -890.98209    1786.3165    9692.2554    2.1835598    39.758302   0.16693673 
   44600   -943.75555    49.021278   -894.73427    1755.7644    8888.6105     2.186342    40.762718    0.1605246 
   44700   -942.73639    42.304644   -900.43174    1515.1989   -6271.1381    2.1495825    40.692418   0.14956452 
   44800   -941.97468    49.190975   -892.78371    1761.8423   -3453.1634    2.1508896     28.65496   0.15932807 
   44900   -945.08599    50.532919   -894.55308    1809.9059    6383.7909    2.1863542    31.672622   0.15083351 
   45000   -944.95307    43.914477   -901.03859    1572.8573    2992.0081    2.1843767    39.230238   0.14731928 
   45100   -940.76482    48.092368   -892.67246    1722.4942   -6711.3266    2.1471619    35.966892   0.14552025 
   45200   -943.26352    47.698114    -895.5654    1708.3735    1607.1139    2.1701436    50.091658    0.1613019 
   45300   -946.52612     48.34252   -898.18359    1731.4538    4004.0904    2.1911668    48.092053   0.17276606 
   45400   -938.84083    49.150074   -889.69075    1760.3774   -5573.5626    2.1430158    45.042138   0.15847932 
   45500   -941.34932    44.683579   -896.66574    1600.4037   -1562.6509    2.1544347    43.917877   0.14655829 
   45600   -945.64952    47.382415   -898.26711    1697.0663    11513.326    2.2005797       40.349    0.1281015 
   45700   -939.91458    48.384638   -891.52995    1732.9623    3021.1644    2.1653609    40.786222   0.14270119 
   45800   -941.44252    47.385352   -894.05717    1697.1715   -14894.436    2.1247651    48.394582   0.13591927 
   45900   -946.15298    46.105886    -900.0471    1651.3456    3790.3602    2.1839791    42.195288   0.13365059 
   46000   -942.43291    48.774774   -893.65813    1746.9355    18568.279    2.2134347    40.822328    0.1505149 
   46100   -942.77738    48.640496   -894.13689    1742.1262   -11054.741    2.1375721    43.727204   0.14698917 
   46200   -944.32417    41.063966   -903.26021    1470.7624   -6276.0592    2.1555963    39.372871   0.14666158 
   46300   -944.50721     47.08287   -897.42434    1686.3377    8709.8392    2.1913674    41.836453   0.15177945 
   46400   -942.26395    48.677714   -893.58623    1743.4592     3682.045     2.171409    42.291629   0.15027526 
   46500   -944.53426    43.905239   -900.62902    1572.5264   -5167.9709    2.1581592    41.754436    0.1350241 
   46600   -946.48263    46.044453   -900.43817    1649.1453    70.397404    2.1733457    39.397991   0.13259668 
   46700   -942.25558    49.211027   -893.04455    1762.5605    5482.1092     2.179415    42.718058   0.13824771 
   46800   -945.62425    46.897316   -898.72694    1679.6918   -3395.2737    2.1634124    36.283763   0.12587694 
   46900   -946.43695    44.592775   -901.84418    1597.1515   -5879.7638    2.1604819    37.255857   0.13921834 
   47000    -940.6603    48.766036   -891.89426    1746.6226    2906.3766    2.1686599    37.935425   0.13598238 
   47100   -944.61491    49.329162   -895.28575    1766.7917    4325.1813    2.1824162    43.570752   0.15035171 
   47200   -947.82522    46.617043   -901.20818    1669.6534   -5761.2637    2.1680798    38.719007   0.17091376 
   47300   -940.30891    47.678223   -892.63069     1707.661   -2713.3313    2.1574797    42.305378   0.17632259 
   47400   -942.89147    49.651405   -893.24007    1778.3333    8788.0799    2.1901179    36.110445   0.16793338 
   47500   -946.31743    47.070148   -899.24728     1685.882   -2568.9796     2.173754     37.88327   0.14044699 
   47600     -941.838    47.456833   -894.38117    1699.7317   -11313.511    2.1398994    37.461684   0.13958531 
   47700    -939.4732    49.766028   -889.70717    1782.4386    4289.5287    2.1725998    36.389391   0.14062028 
   47800   -947.05305    49.901405   -897.15164    1787.2874    10968.647    2.2038082    36.271835   0.16405649 
   47900    -941.5982    43.724406   -897.87379    1566.0497   -9043.9368    2.1452034    41.827966   0.15910959 
   48000   -935.86775    44.742895   -891.12486    1602.5282   -8211.8575    2.1343986    41.956349    0.1645648 
   48100   -948.07129    47.874188    -900.1971    1714.6798    17198.163    2.2194935    36.324042   0.15775926 
   48200   -948.04458    49.052692   -898.99189    1756.8895    1760.9126    2.1797856    41.197106   0.14197337 
   48300   -941.49373      46.7072   -894.78653    1672.8825   -8321.7985    2.1417919    42.839038   0.13506255 
   48400   -941.89275    47.039395   -894.85335    1684.7805    4240.2481    2.1738422    39.593918   0.14045086 
   48500   -950.63804    47.584915   -903.05313    1704.3191    6987.5048    2.2003141    38.834817   0.12810904 
   48600   -945.37847    49.783302   -895.59517    1783.0573   -4961.1144    2.1588259    38.070129   0.12620291 
   48700   -943.48704    48.296502   -895.19054    1729.8055   -3157.8914     2.157252    43.922173   0.14005947 
   48800   -951.15651     48.52614   -902.63037    1738.0304    4061.2581    2.1940476    40.835416   0.13913656 
   48900   -946.83798    50.011744   -896.82623    1791.2393    995.51304    2.1746452    40.873887   0.15501881 
   49000   -943.00125     48.27054   -894.73071    1728.8757   -5408.1973    2.1548224    40.987193   0.14585793 
   49100   -941.05588    41.987243   -899.06864    1503.8308    1201.3568    2.1693356    44.108286   0.15525011 
   49200   -946.69338    45.915066   -900.77831    1644.5112    6569.1169    2.1925574    40.255624   0.13481107 
   49300   -938.90584    47.731876   -891.17397    1709.5827   -2764.5669     2.149787    41.223688   0.14038659 
   49400   -942.61678    45.239556   -897.37722    1620.3168   -3579.5296    2.1585828    43.551606   0.13399041 
   49500   -945.50912    47.666281   -897.84284    1707.2333    8604.6523    2.1964263    42.200209   0.14412993 
   49600   -940.08504    52.377105   -887.70794    1875.9579    1023.3831     2.161422    41.978697   0.14301401 
   49700   -942.41752    47.855468   -894.56205    1714.0093   -8717.4551    2.1456547    42.682619   0.14778275 
   49800   -945.01765    46.572322   -898.44533    1668.0517    759.55132    2.1764524    41.339644   0.15319933 
   49900   -945.74503    51.599717   -894.14532    1848.1148    10754.805    2.2004679    38.463276   0.15310108 
   50000   -938.96964    48.819831   -890.14981    1748.5493    -9155.703    2.1366316    42.798124   0.15669691 
   50100   -947.14302    46.407522    -900.7355    1662.1491   -9573.9163    2.1569683    39.019716   0.15847572 
   50200   -947.59981    51.050779   -896.54903    1828.4538    10113.842    2.2010782    37.519209   0.14327327 
   50300   -944.22094    50.609229   -893.61171     1812.639    2502.0266    2.1767433    41.042746   0.13729146 
   50400   -942.01772    47.939318    -894.0784    1717.0125   -13773.235    2.1347811     40.56497   0.13537239 
   50500   -946.46342    44.737801   -901.72562    1602.3458    3882.1075    2.1875325     40.24347    0.1425924 
   50600   -940.26496    45.094086   -895.17087    1615.1066    8932.0656     2.187657    36.108946   0.17079093 
   50700   -943.34686    47.943739   -895.40312    1717.1709   -4771.9185     2.157543     39.83819   0.15483188 
   50800    -945.5975    40.845974   -904.75153    1462.9547    53.707439    2.1751513    37.996667   0.15833679 
   50900    -941.9976    44.727993   -897.26961    1601.9945    4682.9403    2.1768913    40.429022   0.14631841 
   51000   -945.03455     50.30581   -894.72874    1801.7717    1687.0264    2.1712407    36.981849   0.14391058 
   51100   -946.71073    45.651015   -901.05972    1635.0538   -2219.1307    2.1661683    36.817257    0.1437624 
   51200   -947.30043    46.101998   -901.19844    1651.2064     1155.558    2.1771804    38.816095    0.1267675 
   51300   -944.95043    51.366508   -893.58392     1839.762    1768.0499    2.1688976     37.31244   0.12961819 
   51400   -945.67046    48.077942   -897.59252    1721.9775   -3626.1994    2.1604934    40.418294   0.12650268 
   51500   -947.18271    45.452312   -901.73039     1627.937   -2040.7758     2.168308    40.265074   0.13972751 
   51600    -942.0696    48.884986   -893.18461    1750.8829     5150.712    2.1806232    38.737891   0.14749312 
   51700   -940.33968    47.359895   -892.97978    1696.2597    8491.5138    2.1770563     41.73734   0.14931143 
   51800   -944.26792    46.100426    -898.1675    1651.1501   -13215.208    2.1358123    42.820968   0.14177769 
   51900   -944.85644    49.139054   -895.71739    1759.9827   -3577.2478     2.158364    38.896926   0.14487724 
   52000   -939.97517    54.159535   -885.81564    1939.7981     12588.09    2.1909793    40.624507   0.16533283 
   52100   -941.25829    46.547081   -894.71121    1667.1476   -927.27683    2.1647358    38.117994   0.15141456 
   52200   -943.96584    45.458044   -898.50779    1628.1423   -10876.971    2.1443684    41.172674   0.14618867 
   52300   -942.34972    48.578027   -893.77169    1739.8888    5540.7274    2.1794341    36.446605   0.13483927 
   52400   -938.87706     51.34476    -887.5323    1838.9831    5522.3367    2.1710714    41.399269    0.1526118 
   52500   -942.51641    44.706504   -897.80991    1601.2249   -2090.5023    2.1654149    42.760074   0.14258896 
   52600   -942.70189    45.398661   -897.30323    1626.0154   -2918.7864    2.1639493    37.288644    0.1545273 
   52700   -943.64686    51.058998   -892.58786    1828.7482    2949.5793    2.1761087    39.329078   0.15094497 
   52800   -941.97248      54.2333   -887.73918    1942.4401   -2433.4199    2.1576635    41.388633   0.14584494 
   52900   -944.26943    45.539096   -898.73033    1631.0453    145.94526    2.1774578    37.815152   0.14127674 
   53000   -945.28739    48.004538   -897.28285    1719.3485   -620.53886    2.1726067    42.143492   0.14391878 
   53100   -945.46296    50.193113   -895.26985    1797.7353    21.677784    2.1693413    39.139668   0.14178142 
   53200   -941.89378     53.88622   -888.00756     1930.009     311.4653    2.1638441    41.780166   0.15212236 
   53300   -939.87485    50.388333   -889.48652    1804.7273   -2380.8821    2.1539803    40.742247   0.14140916 
   53400   -947.30085    51.281025   -896.01982    1836.7003   -6486.3109    2.1624923    42.840307   0.14317302 
   53500   -943.57311    46.989042   -896.58407    1682.9771    8824.7233    2.1911426    38.171619   0.16177698 
   53600   -946.23312    47.028358   -899.20477    1684.3852    131.88355    2.1767522    38.237613   0.15383567 
   53700   -939.19505    51.216047   -887.97901    1834.3731   -15363.277    2.1192642    41.421827   0.15458569 
   53800   -939.82477     48.23699   -891.58778    1727.6741    12924.136    2.1888364    40.054416   0.14781545 
   53900   -942.47085    47.423643   -895.04721    1698.5429    11188.824    2.1897007    41.976569   0.13569048 
   54000    -943.4566    44.262961   -899.19364    1585.3387   -12342.366    2.1337989    43.277072   0.14773131 
   54100   -939.52103     47.49219   -892.02884     1700.998   -2085.7851    2.1549306    41.317336   0.14200519 
   54200    -942.3284    51.987591   -890.34081     1862.007    10114.045    2.1872611    38.581771   0.13291621 
   54300   -943.64859    45.237051   -898.41154    1620.2271    725.10141    2.1700081    39.869283   0.14307055 
   54400   -941.22102    44.344611   -896.87641    1588.2632   -5454.5632    2.1519048    35.842192   0.14994784 
   54500   -942.67977    51.813646   -890.86612    1855.7769    1161.7706    2.1654729    36.684171   0.15294403 
   54600   -941.45974    44.524363   -896.93538    1594.7012    4776.9765    2.1733676    40.092558   0.15404752 
   54700   -946.18248      46.5442   -899.63828    1667.0445   -5933.6476    2.1587458    38.230795   0.14374429 
   54800   -941.76958    45.673995   -896.09559    1635.8768    2341.2199    2.1722943    39.709089   0.15422634 
   54900   -937.96851    44.663546   -893.30496    1599.6863    5584.6853    2.1751993    40.353246   0.16065015 
   55000   -941.53192    45.146138   -896.38578    1616.9709   -2311.3924     2.155776    38.023751   0.13102501 
   55100   -949.38115    47.086987   -902.29416    1686.4851   -5797.9069    2.1723204    39.821197   0.14595241 
   55200     -946.069    48.808009   -897.26099    1748.1259    9185.9402    2.1977626    37.167825    0.1417075 
   55300   -941.27868    46.982118   -894.29656    1682.7291    -2193.919    2.1603152    39.943078   0.16115076 
   55400   -940.88367    47.415546   -893.46813    1698.2529   -15422.025    2.1280201    38.562522    0.1557578 
   55500   -950.08228    48.101666   -901.98062    1722.8272    11881.472    2.2141829    36.725861   0.14926913 
   55600   -943.25724    49.071568   -894.18567    1757.5656    11232.975    2.1960108    40.031541   0.15389954 
   55700   -940.94812    45.173193   -895.77492      1617.94    -12930.43    2.1314642    42.675941   0.14140355 
   55800   -948.38015     49.38584   -898.99431    1768.8217   -3283.3361    2.1639977     41.77045   0.12892616 
   55900   -947.72635    43.602033   -904.12432    1561.6667    11533.756    2.2076745    40.308672   0.14142481 
   56000    -944.0736    49.833601      -894.24    1784.8589   -4729.4812    2.1565979    41.089248   0.14493416 
   56100   -940.93609    44.529586    -896.4065    1594.8883   -3169.6873    2.1590761    41.875254   0.13287097 
   56200   -948.78066    49.424372   -899.35629    1770.2018    1944.3393    2.1864614    40.334445   0.13200018 
   56300   -945.22147     47.20152   -898.01995    1690.5873    4931.4854    2.1838761    39.552897   0.15023693 
   56400   -938.62615    47.676918   -890.94923    1707.6143   -9985.7335     2.139458    40.867625    0.1615731 
   56500   -943.82943    47.304125    -896.5253    1694.2622   -2011.1006      2.16606    38.169669   0.14050005 
   56600    -946.3101    50.184762   -896.12534    1797.4362    10010.303    2.1939796    41.186833   0.13989611 
   56700    -940.0363    50.923148   -889.11315    1823.8825   -885.30801    2.1590988     41.62913   0.13617942 
   56800   -938.64355    46.235714   -892.40783    1655.9956   -9264.8653    2.1406046    44.959726   0.16771296 
   56900   -947.09048    49.450311   -897.64017    1771.1308    1055.1566     2.176567    44.081281   0.14732501 
   57000   -944.39322    49.581815    -894.8114    1775.8408    10506.669    2.1922217    36.961736   0.15027272 
   57100   -940.31974    50.919945    -889.3998    1823.7678   -4356.3247     2.146586     39.58217   0.15218415 
   57200   -945.52327    48.279609   -897.24366    1729.2005    -9027.688     2.150778    40.378443   0.14232169 
   57300   -945.42416    47.128065   -898.29609    1687.9564    4730.0368    2.1863703     39.34157   0.15461871 
   57400   -943.68469    48.106702   -895.57798    1723.0076    6801.5474    2.1850347     37.57987   0.14800512 
   57500   -940.92575    44.186314   -896.73944    1582.5935   -5361.5869    2.1487384    43.010985   0.12445916 
   57600   -948.71199    42.696278   -906.01571    1529.2258   -158.82568    2.1819216    38.192718   0.12592567 
   57700   -944.51192    46.787676   -897.72424    1675.7649     2629.632    2.1785658    38.487204   0.14224557 
   57800   -944.31348    48.572095   -895.74138    1739.6763   -1176.5408    2.1665273    38.079879   0.14678886 
   57900   -940.93286    42.324227   -898.60863    1515.9003   -251.86387     2.163835    39.503885   0.14673751 
   58000   -949.88364    44.630101   -905.25354    1598.4884    444.60206    2.1873448    37.470258    0.1457887 
   58100   -947.61572     51.48839   -896.12733    1844.1274   -1847.2723    2.1690672    40.431102   0.12237371 
   58200   -945.47015    49.212429   -896.25772    1762.6107   -1943.3979    2.1650786    40.530745   0.14083767 
   58300   -944.41201    42.782606   -901.62941    1532.3178    1161.9361    2.1758463    39.005283   0.14623695 
   58400   -944.37853    40.493171   -903.88536    1450.3186    4810.6574    2.1878032    40.944352   0.14045453 
   58500   -942.51021    46.807481   -895.70273    1676.4742   -1078.6272    2.1636627    44.894852   0.13149818 
   58600   -944.91005    48.037962   -896.87209    1720.5456   -5964.8908     2.155987     36.90874   0.13569045 
   58700   -944.51311    46.086833   -898.42628    1650.6632    3734.2981    2.1843135     39.11761   0.15614595 
   58800   -948.55342    41.083179   -907.47024    1471.4505    9855.0364    2.2064436    38.483025   0.13937114 
   58900    -943.9264    45.743482   -898.18292    1638.3656    -12008.39    2.1383962    42.614835   0.15297382 
   59000   -944.71768    47.833697   -896.88398    1713.2296   -4846.2851    2.1584525    46.165199   0.13225134 
   59100    -944.6862    51.141553   -893.54465     1831.705    14488.269    2.2068025    40.053482    0.1343684 
   59200   -946.16824    45.110051   -901.05818    1615.6785   -6071.6254    2.1607424    40.007058   0.11630881 
   59300    -947.2355    44.982299   -902.25321    1611.1028   -11868.276    2.1466285    41.711894   0.12467848 
   59400   -942.65721    47.216057   -895.44116    1691.1079    7844.7827     2.185064    37.021829    0.1397913 
   59500   -947.28864    51.173945   -896.11469    1832.8651    858.89286    2.1758259    38.337656   0.14218504 
   59600   -945.61285    42.541593   -903.07126    1523.6856   -7149.9334    2.1560705    37.827984   0.13410773 
   59700   -948.60286    47.377498   -901.22536    1696.8902   -1510.2866    2.1753264    35.979495   0.13597291 
   59800   -945.86658    51.213155   -894.65342    1834.2695    4643.3278    2.1815225    39.392313   0.13988435 
   59900    -941.5405    43.958676   -897.58182    1574.4404   -1263.1394    2.1602452    40.725531   0.13954438 
   60000   -947.83253    43.655039   -904.17749    1563.5652   -4179.7907    2.1666561    44.272235   0.13923769 
   60100   -943.82147    45.064051   -898.75742    1614.0309    8761.7353    2.1918054    41.985199   0.13283432 
   60200   -946.48062    51.518593   -894.96202    1845.2092    1614.8019    2.1784958    42.552024   0.13946308 
   60300   -945.07394    47.102876   -897.97106    1687.0542   -9921.2953    2.1464754    39.448719    0.1251677 
   60400   -944.55082     49.03695   -895.51387    1756.3257   -175.01114    2.1694802    43.974561   0.14322186 
   60500   -936.17064    48.757378   -887.41327    1746.3125    6072.9711    2.1710089    36.619502   0.17862759 
   60600   -942.35032    46.887598   -895.46272    1679.3437   -2774.2099    2.1592081    40.341067   0.16619808 
   60700   -944.96343    46.841276   -898.12215    1677.6846   -3620.5575    2.1630607    36.393345   0.15780898 
   60800   -940.85577    46.500895   -894.35487    1665.4934    6898.1884     2.181246    41.194278   0.16868039 
   60900    -937.8265    49.059724   -888.76678    1757.1414   -1064.8822    2.1537426    46.428463   0.14728184 
   61000   -942.12576    44.211075   -897.91469    1583.4804   -3550.7962    2.1572092    42.878195   0.13895523 
   61100   -943.40176     46.91416    -896.4876    1680.2951    4936.1023    2.1786651    39.451761   0.13568636 
   61200   -938.22735    48.269915   -889.95744    1728.8533    8408.5179    2.1782754    41.652496   0.13689568 
   61300   -938.33214    45.542218   -892.78993    1631.1571    -14663.53    2.1214565    39.367328    0.1462114 
   61400   -943.95652    44.181917    -899.7746     1582.436   -6621.5253    2.1491546    39.195222    0.1430355 
   61500   -944.76027    51.275514   -893.48475     1836.503    22292.944     2.223516    38.302039   0.18599468 
   61600   -943.87847    46.912145   -896.96633    1680.2229   -175.70577    2.1639771    41.280376   0.15148351 
   61700   -948.83391    43.316748   -905.51716    1551.4488   -14700.786    2.1445287    43.204335   0.13910594 
   61800   -944.58181    45.403057   -899.17875    1626.1728    3450.3666    2.1811982    39.740106   0.13733087 
   61900   -947.28043    52.892512   -894.38792     1894.418    6219.9916    2.1899253    42.312533    0.1298198 
   62000   -944.89604     45.41275   -899.48329      1626.52   -7419.5704    2.1525007    43.218106   0.13465233 
   62100   -946.05307    42.763843   -903.28923    1531.6458   -4574.3826    2.1647061    41.515652   0.14036733 
   62200   -945.19727    51.989039   -893.20823    1862.0588    4596.4932    2.1780268    38.612959   0.14506889 
   62300   -945.76101    50.321523   -895.43949    1802.3344    2558.3843    2.1748275    38.839479   0.15391358 
   62400    -945.1352    45.091239   -900.04396    1615.0047   -6373.4991    2.1561245    39.057753   0.15451203 
   62500   -943.57969    49.215916   -894.36377    1762.7356   -457.41769    2.1693109    39.671107   0.14224249 
   62600   -945.04122    53.441729   -891.59949    1914.0889    3518.6876    2.1774437    40.840001   0.15129792 
   62700   -944.75871    46.533667   -898.22505    1666.6672   -6256.2399    2.1538817    40.092596   0.12213354 
   62800   -943.32398    46.569434   -896.75455    1667.9482   -4022.0286    2.1576819    39.976713    0.1294816 
   62900   -942.46914    55.415051   -887.05409    1984.7662    4667.2925    2.1727439    39.973752   0.12817203 
   63000   -943.79938    48.076897   -895.72248    1721.9401    5885.8395    2.1787096    39.625201   0.13458724 
   63100   -946.15982    47.254922   -898.90489    1692.4999   -12205.646    2.1436792    40.592166   0.15540435 
   63200   -940.07704    47.584059   -892.49298    1704.2884   -598.45268    2.1614035    41.543845   0.14701938 
   63300   -943.11841    51.057489   -892.06092    1828.6941    10881.033    2.1954219    38.301735    0.1595828 
   63400   -947.67704    47.767077   -899.90996    1710.8435   -3517.3089    2.1700849    41.184048   0.13913304 
   63500   -942.01497    45.023463   -896.99151    1612.5772   -8727.5566     2.145001     41.65791     0.133733 
   63600    -940.8704    48.668018   -892.20238    1743.1119    5818.5905    2.1814194    38.152618   0.13959634 
   63700    -943.5473    41.934741   -901.61256    1501.9503    10416.045    2.1980734     43.32851   0.14684654 
   63800   -945.79654    46.998631   -898.79791    1683.3205   -8413.4892    2.1536362    34.991486   0.12193299 
   63900   -944.64987    50.370007   -894.27987     1804.071   -1105.0447     2.161302    39.045547   0.15048922 
   64000   -947.22229    47.563362   -899.65893    1703.5471    3586.8318    2.1808927    39.324473   0.14844418 
   64100   -948.38291    45.691471   -902.69143    1636.5028    123.62738    2.1816831    38.216068   0.14292161 
   64200   -942.58141    49.111486   -893.46993    1758.9953   -5790.7678    2.1488721    44.760685   0.17176863 
   64300   -947.81036    50.534498   -897.27586    1809.9624   -596.93916     2.175796    41.406732   0.13697776 
   64400   -950.99855    50.425686   -900.57287    1806.0652    2629.6854    2.1929656    38.931418   0.13445913 
   64500   -938.35903    48.100928    -890.2581    1722.8008   -5898.0944    2.1474575    43.419073   0.14986944 
   64600   -943.44908    48.065498   -895.38358    1721.5318   -4502.7571     2.156012    30.966106    0.1564207 
   64700   -947.07692    48.226377   -898.85054    1727.2939    3019.5653    2.1849361    30.147818   0.15918853 
   64800   -936.88539    47.659202   -889.22619    1706.9798    2838.9294    2.1645309    28.498341   0.19912607 
   64900   -947.75913    54.500114   -893.25901    1951.9964   -6733.3933    2.1557323    33.573412     0.155636 
   65000   -947.16676    48.746336   -898.42042     1745.917   -5735.3682    2.1630325    34.869402   0.17138615 
   65100   -942.34986    49.950214   -892.39965    1789.0355    3916.7267    2.1774979    33.466703   0.19850015 
   65200   -941.98266    52.471157   -889.51151    1879.3265   -235.49412    2.1594852     24.64381   0.16293983 
   65300   -945.14046    46.344358    -898.7961    1659.8868   -2959.0663    2.1627249    32.863578   0.13817117 
   65400   -944.42174    49.188121   -895.23362    1761.7401    755.93501    2.1698032    35.941124   0.15560495 
   65500   -938.67828    49.564138   -889.11414    1775.2077    4620.6208    2.1685626    36.549608   0.15768371 
   65600   -941.75936    44.852799   -896.90656    1606.4646   -4078.0182    2.1539985    39.025494   0.15921492 
   65700   -940.81453    42.534004   -898.28052    1523.4138   -2531.0244    2.1582877    31.573041   0.15310178 
   65800    -944.1453    52.432408   -891.71289    1877.9387    11356.847    2.1944242    33.230996    0.1483235 
   65900   -947.72429    47.912947   -899.81134     1716.068   -966.66861    2.1745195    35.621097   0.14864954 
   66000   -942.31146    41.539293   -900.77216    1487.7868   -12305.443    2.1396549    36.417912   0.13887649 
   66100   -942.68802    48.954788   -893.73324     1753.383    864.33121    2.1723729    37.160937    0.1469754 
   66200   -944.50628    47.918132   -896.58815    1716.2537    10573.816    2.1929778    34.548849   0.14243953 
   66300   -949.07327    45.931362   -903.14191    1645.0948   -3871.3074    2.1692368    31.064831   0.11296889 
   66400   -940.49474    47.051034   -893.44371    1685.1974   -5026.4369    2.1479895    31.712458   0.13807603 
   66500   -942.41204    47.386927   -895.02511    1697.2279    7137.3442    2.1860317    34.029791   0.13591112 
   66600   -947.33907    47.190902   -900.14817     1690.207    1655.3004    2.1829712    27.060196   0.14745341 
   66700   -942.43905    50.929941   -891.50911    1824.1258   -6598.2814    2.1476285    34.775316   0.15455863 
   66800   -945.16328    49.812067   -895.35121    1784.0876   -2285.6638    2.1682197    34.854632   0.17662548 
   66900   -943.59876    44.564093   -899.03467    1596.1242    5089.1403    2.1844889    35.529353   0.14352479 
   67000   -942.94858    50.327244   -892.62134    1802.5394   -941.87554    2.1593138    32.077396   0.14900788 
   67100   -944.18185    51.139134   -893.04271    1831.6183   -4967.1325    2.1536715    36.134721   0.13044693 
   67200    -944.9896    45.130811   -899.85879     1616.422    3427.8769    2.1812827    33.468603   0.14206451 
   67300   -940.42963    46.306022   -894.12361    1658.5138    3801.5228    2.1697939    35.866065   0.14254362 
   67400   -941.78795    48.733529   -893.05442    1745.4583    -4991.981    2.1479922    34.078708   0.14211371 
   67500    -947.7375    45.715818   -902.02168    1637.3748    1729.8498    2.1781781    34.180128   0.13541559 
   67600   -941.51332    46.241549   -895.27177    1656.2046    7417.4823    2.1787738    33.553561   0.14521343 
   67700   -941.12086    46.226292   -894.89457    1655.6581   -279.47948    2.1588715    38.684545   0.14322522 
   67800   -947.00399    42.939445   -904.06455    1537.9352   -2642.0128    2.1705966    31.876721   0.13806763 
   67900   -945.91586    49.236882   -896.67898    1763.4865    1292.9153    2.1740164    36.966166   0.14620557 
   68000   -945.43958    51.455327   -893.98425    1842.9432    4072.0782    2.1757696    32.779095   0.13566716 
   68100   -945.44183    43.515049   -901.92678    1558.5512   -7131.3562    2.1534718    31.218869   0.14699533 
   68200   -944.02694    47.186475   -896.84047    1690.0484   -7979.3917    2.1444074    36.600164   0.14918453 
   68300   -943.52303    52.167264   -891.35577    1868.4422    16854.357    2.2030754    33.475864   0.14905836 
   68400    -945.8049    48.015685   -897.78922    1719.7477    -999.6776    2.1692308    31.785117   0.13895514 
   68500   -942.80193    43.664228    -899.1377    1563.8943   -13372.697    2.1310006    38.659711   0.13008721 
   68600   -936.88792     47.30449   -889.58343    1694.2753    7286.0157     2.168083    34.742055   0.13901541 
   68700   -946.22554    51.687171   -894.53837     1851.247    10499.419    2.1969694    30.829881   0.14303836 
   68800   -944.75801    45.035966   -899.72205     1613.025   -7738.1942    2.1491787    36.361835   0.13267318 
   68900   -943.81126    49.862626   -893.94863    1785.8984   -7533.8972    2.1470122    35.279542   0.14184919 
   69000   -938.71301    47.844745   -890.86826    1713.6253    10271.044    2.1814865    30.307383   0.12992739 
   69100   -941.71746    41.123568   -900.59389    1472.8971    9871.4858     2.188901    33.892107   0.13836419 
   69200   -942.35387    45.338352   -897.01552    1623.8553   -8470.2519    2.1435541    35.252659    0.1315897 
   69300   -942.34323    49.167495   -893.17574    1761.0014   -1739.6269    2.1570156     34.41631   0.12404316 
   69400   -944.56645    42.325632   -902.24082    1515.9506    12567.568    2.2039029    35.509394   0.14985694 
   69500   -945.43393    47.125415   -898.30852    1687.8615   -4593.3567    2.1621304     32.21987   0.13068458 
   69600   -941.22551    46.296956   -894.92855    1658.1891   -5011.9686    2.1490499    36.422105   0.13090011 
   69700   -945.31107    46.731424   -898.57965    1673.7501    4479.9873    2.1818694    31.044921   0.13895555 
   69800   -949.84665    46.325941    -903.5207    1659.2272    4790.4634    2.1924898    31.774902   0.11991147 
   69900   -942.73646    48.757468   -893.97899    1746.3157   -9651.4989    2.1415103    31.148894   0.13352621 
   70000   -943.57368    46.555395   -897.01828    1667.4454   -2084.7367    2.1612978    35.698621   0.14176891 
   70100   -946.03575    46.311951    -899.7238    1658.7261    12139.313    2.2017289    32.888532   0.15015755 
   70200   -938.16734     48.96757   -889.19977    1753.8408   -1294.6424    2.1509921    36.221899   0.14875507 
   70300   -942.46696    47.274925   -895.19204    1693.2164    -2050.097    2.1586591    34.073759    0.1209829 
   70400   -943.13087    44.860329   -898.27054    1606.7343    3907.4773    2.1806163    34.174528   0.13378136 
   70500   -944.16046    50.733328   -893.42713    1817.0838    73.487033    2.1706207    31.425782   0.12279334 
   70600   -943.99863    53.250657   -890.74797    1907.2454   -5400.2263    2.1521861    33.733465   0.13284317 
   70700   -944.79938    46.256592   -898.54279    1656.7434    1084.8036    2.1741817    35.673917   0.13065042 
   70800   -944.75224    48.619291   -896.13295    1741.3667    3615.4258    2.1794253    29.325868   0.13702248 
   70900   -937.92145    48.729257   -889.19219    1745.3053   -2206.2144    2.1557721    35.872188   0.15399047 
[...]
  186800   -939.61596    42.859582   -896.75638    1535.0748    -6500.328    2.1522605    336.25039   0.16804962 
  186900   -947.12298    44.535426   -902.58755    1595.0974   -5743.6516    2.1642426     347.5123   0.13547455 
  187000    -943.5036     47.99155   -895.51205    1718.8833    11418.429    2.1996464    348.41204   0.15453514 
  187100   -940.28799    46.460234   -893.82776    1664.0371     3128.996    2.1748052    333.93401   0.16416923 
  187200   -945.89074     45.91771   -899.97303    1644.6059   -7925.7788    2.1545606    356.85924   0.14154141 
  187300   -941.37894    45.175714   -896.20323    1618.0302    2714.7563    2.1735971    334.50972   0.15864025 
  187400    -940.7272    49.870787   -890.85641    1786.1907    3145.5028    2.1724546    331.45803   0.16107711 
  187500     -943.128    44.382519   -898.74548    1589.6209    -1730.359     2.167701    345.05326   0.15278461 
  187600   -940.09047    43.477803   -896.61267    1557.2172    1981.1983    2.1714476    343.41426   0.15667501 
  187700   -935.73339    46.939666   -888.79372    1681.2086    4006.0298    2.1619304     345.9455   0.16742807 
  187800   -945.25129      46.7061   -898.54519    1672.8431    2091.2944    2.1774149    355.44355   0.14674553 
  187900   -944.63997    47.254168    -897.3858    1692.4729   -3073.7048    2.1642779    347.56655   0.14443103 
  188000   -940.37483    49.652183   -890.72265    1778.3611   -403.29163    2.1593572     341.5943   0.16717325 
  188100   -945.59979    45.434674   -900.16512    1627.3053    5756.7257     2.189137    355.42107   0.16632286 
  188200   -942.10503     43.25911   -898.84592    1549.3844   -3761.6158    2.1591075    358.24677   0.15295779 
  188300   -939.28464    45.139658   -894.14499    1616.7389   -2424.7334    2.1532052    346.45208   0.14216802 
  188400   -944.64822    46.171739   -898.47648    1653.7042    11676.992     2.202816    342.99289   0.13272218 
  188500   -949.41162    47.532576   -901.87905    1702.4445    2689.9753    2.1878975    338.14092   0.11889261 
  188600    -945.4205    49.390003    -896.0305    1768.9708   -16762.973    2.1335773    350.19785   0.13560692 
  188700   -942.19372    47.882394   -894.31132    1714.9737   -144.89806    2.1693283    354.86852   0.15350809 
  188800    -947.3827    46.036184   -901.34651    1648.8491    16216.052    2.2168716     341.1302   0.13958056 
  188900   -943.73961    48.861495   -894.87812    1750.0416   -6510.0779    2.1520041    355.80436   0.14277779 
  189000   -941.66179    47.278037   -894.38376    1693.3278   -7432.7503    2.1461668    349.19225   0.14967911 
  189100   -947.08485    49.109583   -897.97527    1758.9272      6647.85    2.1876968    344.20804   0.14944746 
  189200   -946.55412    45.186191   -901.36793    1618.4055    4158.2884    2.1855571    346.86813   0.15967554 
  189300   -936.62165    45.583619   -891.03803    1632.6399   -5615.3712    2.1375855    355.15296   0.13801388 
  189400   -944.06516    47.151431   -896.91373    1688.7933    1301.4832    2.1742605    350.64342   0.11533499 
  189500   -942.83504    44.316737    -898.5183    1587.2648    7611.9322    2.1882846     343.1267   0.12546713 
  189600   -936.75278    47.012754   -889.74002    1683.8263   -1331.8945    2.1485938     352.2637   0.13768984 
  189700   -943.43211    46.984635   -896.44748    1682.8192   -2896.7681    2.1611736     346.5605   0.14266935 
  189800   -943.80421    45.334904    -898.4693    1623.7319    5982.1185    2.1819826    344.11619   0.14457668 
  189900   -940.39669    47.607121   -892.78957    1705.1144    4207.4338    2.1711005       342.54   0.15646566 
  190000   -944.71362    51.848754   -892.86487    1857.0343   -5699.1964    2.1532521    348.68841   0.14590556 
  190100   -944.26108    44.253054   -900.00803    1584.9839    1439.9417    2.1756857    346.90271   0.15664282 
  190200   -945.53235    50.972418   -894.55994    1825.6471    3006.5949    2.1807226    348.46548   0.13645298 
  190300   -942.86742    48.884262   -893.98316     1750.857   -2924.0702    2.1570636    344.68126   0.12198516 
  190400    -942.8419    39.849642   -902.99226    1427.2696    3728.9037    2.1795471    350.88552   0.12046767 
  190500   -943.37474    47.293975   -896.08077    1693.8987    1653.8501    2.1685858    355.35953   0.11945394 
  190600   -943.27289    48.679715   -894.59318    1743.5308    -551.5441    2.1660759     344.6747   0.13869172 
  190700   -944.38506    41.112294   -903.27276    1472.4933    3101.8885     2.179388    343.08452    0.1583848 
  190800   -944.80094    48.643472   -896.15746    1742.2327   -49.851741    2.1693934     336.7579   0.15793173 
  190900   -942.58849    48.590686   -893.99781    1740.3422    467.64369    2.1668319    347.35814   0.13675081 
  191000   -948.98714    47.398055   -901.58908    1697.6264   -1818.6586    2.1748564    350.79191   0.12734634 
  191100   -947.42603      50.6766   -896.74943     1815.052   -2268.4279    2.1653256    349.32648   0.12145654 
  191200   -936.95106     43.74679   -893.20427    1566.8514    5399.4295    2.1661805    351.90782   0.13247034 
  191300   -943.89441    44.240739   -899.65367    1584.5428     928.3104    2.1705015    345.58666   0.12478324 
  191400   -939.87691    43.324179   -896.55274     1551.715    3163.2691    2.1688611    349.04771    0.1356783 
  191500   -944.02358    53.063207   -890.96037    1900.5317   -2379.9375    2.1606536    351.20959   0.13134333 
  191600   -943.70749    44.948182   -898.75931    1609.8809    1716.6913    2.1745077    343.96245   0.15224383 
  191700   -943.16499    45.938916   -897.22608    1645.3654   -323.44865    2.1732085    354.25728   0.15492333 
  191800   -940.11498    50.441182    -889.6738    1806.6202   -2700.9456    2.1555782    352.58912   0.14542625 
  191900   -945.49685    46.314699   -899.18215    1658.8246   -188.91012    2.1762912    348.14852   0.15352531 
  192000   -943.48452    46.123085   -897.36144    1651.9617    1672.3969    2.1745268    349.20396   0.14429024 
  192100   -944.45053    53.917428    -890.5331    1931.1267   -4285.3204     2.155866    356.74724   0.13415836 
  192200   -946.32445    46.402525   -899.92192    1661.9702     617.4297    2.1775001    351.67643   0.13497918 
  192300   -944.70017    46.152432   -898.54774    1653.0127   -1610.6601    2.1702318    352.69037   0.14388801 
  192400    -941.7781    48.881878   -892.89623    1750.7716   -703.57267    2.1616281     348.4477   0.14649847 
  192500   -947.75683    47.543971   -900.21286    1702.8526    -2358.783     2.176641    340.03949    0.1534979 
  192600   -944.39598    44.087321   -900.30866     1579.048    367.29215    2.1751926    354.33956    0.1351532 
  192700   -944.00308    50.153794   -893.84929     1796.327   -1520.2782    2.1650714    342.81323   0.16098778 
  192800   -946.90757    48.487522   -898.42005    1736.6472   -1042.3493    2.1750739     351.0741   0.15413486 
  192900   -948.15954    46.187477   -901.97207    1654.2679    1087.8495    2.1824546    352.98944   0.14708849 
  193000     -944.314    50.802113   -893.51188    1819.5475   -3782.2787    2.1625272    337.94008   0.15200124 
  193100   -943.67538     46.10315   -897.57223    1651.2476    75.813451    2.1680551    357.54655   0.13562677 
  193200   -943.60166     43.78135   -899.82031    1568.0892    5189.3668    2.1814705    371.67921   0.15419856 
  193300   -936.64641    46.299197   -890.34722    1658.2693    917.44901    2.1594812    376.94984   0.15905266 
  193400    -941.5448    46.337011   -895.20779    1659.6237   -3968.2745    2.1617545    390.77953    0.1630402 
  193500   -946.29189    47.062592    -899.2293    1685.6114   -1934.8476    2.1728571    410.19497   0.13655153 
  193600   -939.36907    49.765091   -889.60398    1782.4051     3178.086    2.1669291    420.52658   0.17219174 
  193700   -940.49475    46.887091   -893.60766    1679.3256    2425.2893     2.168377    436.29161   0.15584911 
  193800   -946.04223    47.003201   -899.03903    1683.4842   -7795.1184     2.155648    419.89258    0.1384139 
  193900   -943.72754    49.831744   -893.89579    1784.7924    779.53732    2.1715138    408.34024   0.14517765 
  194000   -942.64294    54.131288   -888.51165    1938.7864    3631.1892     2.176197    416.89692   0.14297437 
  194100   -944.68396    46.724134   -897.95983     1673.489   -3875.4787    2.1617518    422.28219   0.12913351 
  194200   -945.62318    48.387643   -897.23553    1733.0699   -5893.0464    2.1553401    419.21285   0.13447263 
  194300   -947.12478    56.160599   -890.96418     2011.469    3767.1366    2.1828278    428.56191   0.13153352 
  194400    -944.5434    50.719823   -893.82358    1816.6001    135.97692    2.1695863    422.89843   0.14517621 
  194500   -946.30946    46.487697   -899.82177    1665.0207   -10931.679    2.1459949    425.79408   0.14566905 
  194600   -945.46886    48.877237   -896.59162    1750.6054    4131.3463    2.1818489    415.96509   0.13713568 
  194700   -945.94007    53.127081   -892.81299    1902.8194    5981.7371    2.1887112    423.41249   0.15031417 
  194800   -940.82536    50.976192   -889.84917    1825.7823   -9607.8831    2.1345757    416.32085   0.14368038 
  194900   -947.46432    47.169344   -900.29497    1689.4349   -2988.8577    2.1717119    429.26561   0.13819526 
  195000   -944.23566    47.597817   -896.63784    1704.7812    8120.9584    2.1948333    422.71478   0.15398106 
  195100   -941.23334    46.986211   -894.24713    1682.8757    -879.3399    2.1624512    436.63125   0.14711332 
  195200   -937.11392    49.802053   -887.31187    1783.7289   -3582.9788    2.1408509    425.78806   0.15014804 
  195300   -943.56608    46.132597   -897.43348    1652.3023    4767.3815    2.1821839    416.53155   0.16329558 
  195400   -942.32418    44.726516   -897.59767    1601.9416   -283.68971      2.16755     426.2982   0.15347863 
  195500   -938.32489    41.638627   -896.68626    1491.3446    2205.3317    2.1648248    437.52186   0.18134555 
  195600   -939.20821    45.578705    -893.6295    1632.4639    4765.1951    2.1698863    422.37017    0.1643941 
  195700   -935.46386     51.40603   -884.05783    1841.1776   -398.51875    2.1463028    427.37231   0.15313249 
  195800   -942.65963    47.660695   -894.99893    1707.0332    5449.3281    2.1816752    423.88084   0.16013918 
  195900    -944.4059    47.575548   -896.83036    1703.9836   -1366.0798    2.1688333    419.96955   0.15338204 
  196000   -942.59837    45.670924   -896.92745    1635.7669   -3731.8723    2.1617402    438.83661   0.15200358 
  196100    -937.7385    49.419762   -888.31874    1770.0366     5054.907    2.1727686    415.33877   0.17387473 
  196200   -944.21512    53.954819    -890.2603     1932.466   -19.066699    2.1676212    428.45979   0.14398662 
  196300   -944.15941    47.346526   -896.81289    1695.7809   -10552.911    2.1475463    428.61602   0.16248279 
  196400   -942.71123    45.155159   -897.55607     1617.294    481.93225    2.1758884    426.78344   0.16355522 
  196500   -942.45045    45.352608   -897.09784    1624.3659    13145.707    2.2029891    420.82646   0.16220793 
  196600   -934.13284     46.78738   -887.34546    1675.7543   -9948.1039    2.1226169    433.43904   0.16712544 
  196700   -943.91792    47.489385   -896.42853    1700.8976   -7566.5571    2.1541028    435.93443   0.14271461 
  196800   -942.43269     47.03446   -895.39823    1684.6038    11930.962     2.197804    445.00285   0.15630627 
  196900   -940.79843    47.178074   -893.62036    1689.7475    1557.5273    2.1685452    456.91434   0.16687715 
  197000   -935.39429    49.030934   -886.36335    1756.1102   -10853.935    2.1273935    471.72645   0.18639902 
  197100    -944.0076    47.200158   -896.80744    1690.5385    4582.8126    2.1815231    434.37059   0.16293258 
  197200   -941.13824    45.805355   -895.33288    1640.5817    5218.8636    2.1779451    488.93928   0.16635264 
  197300    -942.4761    52.027618   -890.44848    1863.4406   -7206.6968     2.146939    501.28313   0.16892697 
  197400   -944.95477    46.724707   -898.23006    1673.5096   -4561.3329    2.1601254    500.12716   0.17285753 
  197500   -943.66837    45.234673    -898.4337    1620.1419    1883.9786    2.1758404    491.08942   0.17190329 
  197600   -942.49599    48.126173   -894.36982     1723.705    3193.1244     2.171905    503.20286   0.19042817 
  197700   -943.02119    48.650651   -894.37054    1742.4899    -6802.241    2.1509301    498.52193   0.17729043 
  197800     -949.622    45.923286   -903.69872    1644.8056   -1881.4603    2.1782891    501.08795   0.15888388 
  197900   -943.27107    47.569158   -895.70191    1703.7547    5766.8202    2.1783463    498.11638   0.15705365 
  198000   -943.59307    49.235331   -894.35774     1763.431   -1555.2706    2.1614104    512.66322   0.16960348 
  198100   -947.74695    45.706692   -902.04026     1637.048   -9276.3972    2.1587856     509.6964   0.16263578 
  198200   -950.55472    51.351518    -899.2032    1839.2252   -913.78825    2.1806148    508.96087   0.14646175 
  198300   -940.26797    47.599971     -892.668    1704.8583    10899.935    2.1859584     501.6456   0.16083009 
  198400   -943.48153    45.913366   -897.56817    1644.4503   -9082.1092    2.1451574    488.09453   0.15477402 
  198500   -946.23101    47.580455   -898.65056    1704.1593   -7429.1698    2.1562068    497.92051    0.1673861 
  198600   -941.06232    52.347579   -888.71474    1874.9004    11150.993    2.1886704    497.54302   0.18305877 
  198700   -946.26049    52.548492     -893.712    1882.0964    220.06113    2.1742575    512.23019   0.15651951 
  198800   -946.36753     48.21757   -898.14996    1726.9785   -12775.289    2.1410183    497.51409   0.16914373 
  198900   -944.32018     52.50252   -891.81766    1880.4499   -954.55312    2.1704619    513.06122   0.16546353 
  199000   -940.56076    52.844953    -887.7158    1892.7146    9065.0665    2.1835874    514.35906   0.16295719 
  199100   -947.65741    50.696619   -896.96079    1815.7691   -6470.7969    2.1625371    506.02426   0.17694749 
  199200   -944.20873     48.31252   -895.89621    1730.3792   -3793.8044    2.1603065    506.06588   0.16450772 
  199300   -938.14737    46.092876   -892.05449    1650.8797    5633.7576    2.1719722    491.85982   0.16646402 
  199400   -933.19433    50.403767   -882.79057    1805.2801    3324.9135    2.1522143    535.80211   0.18134226 
  199500   -942.56063    48.527373   -894.03325    1738.0745    1425.8225    2.1678455    480.34405    0.1550791 
  199600   -941.20332     45.73291   -895.47041     1637.987    133.14055    2.1627641    496.43056   0.17472306 
  199700   -941.86419    45.571342   -896.29285    1632.2002    2702.9595    2.1705749    509.04496   0.16723915 
  199800   -943.63365    44.551548   -899.08211    1595.6749    735.07344    2.1744653    498.76756   0.16032482 
  199900   -950.90818    45.598703   -905.30948    1633.1802   -1266.3725    2.1866781     492.7335   0.15192123 
  200000   -945.30639    47.884916   -897.42147     1715.064    -2359.055    2.1652433    516.60891   0.17425609 
  200100    -942.4053      47.2607   -895.14459    1692.7069   -2283.4578    2.1577961    514.94159   0.16414118 
  200200   -944.05478    49.892725   -894.16206    1786.9765    1570.0626    2.1764766    454.79238   0.15567442 
  200300   -946.79493    42.542695   -904.25224     1523.725    6792.1246    2.1976589    503.97451   0.17137712 
  200400    -940.6389    43.327303    -897.3116    1551.8269   -11602.497    2.1334447    493.00775   0.18734445 
  200500   -941.61476    46.891606   -894.72316    1679.4873   -1972.7471    2.1623784    477.48597   0.17611208 
  200600   -939.98593    45.934291   -894.05163    1645.1997    15681.865    2.2040058    491.69944    0.1790831 
  200700   -933.48046    48.627699   -884.85276    1741.6678   -1425.3113    2.1447535    497.19356   0.17766607 
  200800   -938.26108    49.219157   -889.04192    1762.8517   -9280.2663    2.1319411    533.69356   0.17229128 
  200900   -939.77639    45.978387   -893.79801    1646.7791    4965.5311    2.1745133    502.72439   0.16134937 
  201000   -941.23949    45.133111   -896.10638    1616.5043    7642.1127     2.185789    489.49965   0.15536687 
  201100   -942.63915     43.09175    -899.5474    1543.3902   -5312.3302    2.1564376    469.73943    0.1479562 
  201200    -952.6257    43.835039   -908.79066    1570.0121   -4617.4733    2.1775098     473.7903   0.15315256 
  201300   -943.25314    44.062447    -899.1907     1578.157    5387.2738    2.1797243    485.56193   0.17118129 
  201400   -941.34074    45.424479   -895.91626    1626.9401    3442.7901    2.1769051    564.52022    0.1586837 
  201500   -939.49337    45.328264    -894.1651     1623.494   -854.08895    2.1582809    558.93671   0.14053696 
  201600   -939.18348    49.004321   -890.17916    1755.1571     291.7572    2.1577835    563.49534   0.14257584 
  201700   -931.38225      48.8294   -882.55285     1748.892    1670.4586     2.143852    507.19101   0.17163336 
  201800   -942.73977     50.35013   -892.38964    1803.3591    2063.9756    2.1691638    504.64854   0.15957459 
  201900   -941.90462    46.657483   -895.24714    1671.1018    489.68592    2.1685491     498.8036    0.1683985 
  202000   -947.05172    49.550217    -897.5015    1774.7091   -5067.3149    2.1642592    537.10379    0.1602591 
  202100   -941.85678    54.306832   -887.54995    1945.0738    1056.2592    2.1645429    586.21168   0.13854943 
  202200   -942.19179    48.342073   -893.84972    1731.4377    3953.3398    2.1792365     579.0089    0.1615769 
  202300   -944.13562    46.011981   -898.12364    1647.9823   -6766.5627    2.1547548     584.9518   0.14122884 
  202400   -944.14735    49.389437   -894.75791    1768.9505    -3277.668    2.1615177     574.0749    0.1450285 
  202500   -938.07253    52.187922   -885.88461    1869.1821    11194.812    2.1854651    586.85608   0.17110963 
  202600   -943.48522    47.398113   -896.08711    1697.6285    2916.4124    2.1799436    580.80589   0.15856713 
  202700   -940.36631    42.626912    -897.7394    1526.7414     -21210.4    2.1092196    597.00825    0.1585546 
  202800   -943.81274    50.536183   -893.27656    1810.0228    2959.1674    2.1757857    574.46452   0.14028051 
  202900    -948.0861    47.853186   -900.23292    1713.9276    14549.081     2.214535     572.0026    0.1475737 
  203000   -944.87253    42.251599   -902.62093    1513.2991   -7189.4628    2.1586574    592.15917   0.14900613 
  203100   -948.05702    51.918804   -896.13822    1859.5433   -11234.954    2.1475054    594.36977   0.12187975 
  203200   -944.68034    49.520505   -895.15983    1773.6449     6302.811    2.1867041    581.71888   0.12806452 
Loop time of 141.497 on 1 procs for 200000 steps with 217 atoms

Performance: 366.369 ns/day, 0.066 hours/ns, 1413.461 timesteps/s
100.0% CPU use with 1 MPI tasks x no OpenMP threads

MPI task timing breakdown:
Section |  min time  |  avg time  |  max time  |%varavg| %total
---------------------------------------------------------------
Pair    | 135.86     | 135.86     | 135.86     |   0.0 | 96.02
Neigh   | 2.4888     | 2.4888     | 2.4888     |   0.0 |  1.76
Comm    | 0.91369    | 0.91369    | 0.91369    |   0.0 |  0.65
Output  | 0.068996   | 0.068996   | 0.068996   |   0.0 |  0.05
Modify  | 1.8571     | 1.8571     | 1.8571     |   0.0 |  1.31
Other   |            | 0.3051     |            |       |  0.22

Nlocal:    217 ave 217 max 217 min
Histogram: 1 0 0 0 0 0 0 0 0 0
Nghost:    953 ave 953 max 953 min
Histogram: 1 0 0 0 0 0 0 0 0 0
Neighs:    4172 ave 4172 max 4172 min
Histogram: 1 0 0 0 0 0 0 0 0 0
FullNghs:  8344 ave 8344 max 8344 min
Histogram: 1 0 0 0 0 0 0 0 0 0

Total # of neighbors = 8344
Ave neighs/atom = 38.4516
Neighbor list builds = 4211
Dangerous builds = 56
Total wall time: 0:02:23
