LAMMPS (3 Mar 2020)
Reading data file ...
  orthogonal box = (0 0 0) to (17.469 17.469 17.469)
  1 by 1 by 1 MPI processor grid
  reading atoms ...
  217 atoms
  read_data CPU = 0.00098939 secs
Reading potential file library.meam with DATE: 2012-06-29
Reading potential file LiSi.meam with DATE: 2020-11-07
1 atoms in group Li
216 atoms in group Si
Neighbor list info ...
  update every 1 steps, delay 10 steps, check yes
  max neighbors/atom: 2000, page size: 100000
  master list distance cutoff = 6
  ghost atom cutoff = 6
  binsize = 3, bins = 6 6 6
  2 neighbor lists, perpetual/occasional/extra = 2 0 0
  (1) pair meam/c, perpetual
      attributes: full, newton on
      pair build: full/bin/atomonly
      stencil: full/bin/3d
      bin: standard
  (2) pair meam/c, perpetual, half/full from (1)
      attributes: half, newton on
      pair build: halffull/newton
      stencil: none
      bin: none
Setting up Verlet run ...
  Unit style    : metal
  Current step  : 0
  Time step     : 0.003
Per MPI rank memory allocation (min/avg/max) = 8.895 | 8.895 | 8.895 Mbytes
Step Temp E_pair E_mol TotEng Press Volume 
       0         1750   -951.04357            0   -902.18323   -114441.46    5330.9442 
    3200     1752.814   -941.27219            0   -892.33329    6367.2362    4623.9122 
Loop time of 2.27118 on 1 procs for 3200 steps with 217 atoms

Performance: 365.203 ns/day, 0.066 hours/ns, 1408.962 timesteps/s
100.0% CPU use with 1 MPI tasks x no OpenMP threads

MPI task timing breakdown:
Section |  min time  |  avg time  |  max time  |%varavg| %total
---------------------------------------------------------------
Pair    | 2.1655     | 2.1655     | 2.1655     |   0.0 | 95.35
Neigh   | 0.055968   | 0.055968   | 0.055968   |   0.0 |  2.46
Comm    | 0.015109   | 0.015109   | 0.015109   |   0.0 |  0.67
Output  | 2.2922e-05 | 2.2922e-05 | 2.2922e-05 |   0.0 |  0.00
Modify  | 0.029734   | 0.029734   | 0.029734   |   0.0 |  1.31
Other   |            | 0.004884   |            |       |  0.22

Nlocal:    217 ave 217 max 217 min
Histogram: 1 0 0 0 0 0 0 0 0 0
Nghost:    957 ave 957 max 957 min
Histogram: 1 0 0 0 0 0 0 0 0 0
Neighs:    4205 ave 4205 max 4205 min
Histogram: 1 0 0 0 0 0 0 0 0 0
FullNghs:  8410 ave 8410 max 8410 min
Histogram: 1 0 0 0 0 0 0 0 0 0

Total # of neighbors = 8410
Ave neighs/atom = 38.7558
Neighbor list builds = 95
Dangerous builds = 0
Setting up Verlet run ...
  Unit style    : metal
  Current step  : 3200
  Time step     : 0.003
Per MPI rank memory allocation (min/avg/max) = 9.663 | 9.663 | 9.663 Mbytes
Step PotEng KinEng TotEng Temp Press Density c_msdli[4] c_msdsi[4] 
    3200   -941.27219    48.938903   -892.33329     1752.814    6367.2362    2.1811201            0 3.1185799e-32 
    3300   -944.03266    48.083499   -895.94916    1722.1766    7810.7037    2.1888451  0.081625216   0.11016484 
    3400   -938.66408    52.344662   -886.31942     1874.796   -9559.9335    2.1294145  0.078199901   0.13886685 
    3500   -938.50128    47.399894   -891.10139    1697.6923   -1574.6688    2.1548363   0.15053407   0.16042003 
    3600   -941.82863    47.291648   -894.53699    1693.8153    9195.4656    2.1901561  0.055460794   0.17627375 
    3700   -944.42794    51.667494   -892.76044    1850.5422   -3476.3776    2.1591974   0.22354925   0.14715233 
    3800   -933.72917    47.209201   -886.51997    1690.8624   -6559.9471    2.1281025  0.031023329   0.14718145 
    3900   -945.60146    49.075972   -896.52549    1757.7234    8013.8605    2.1909415 0.0077964701   0.14039988 
    4000    -942.9948    49.634445   -893.36035    1777.7258    5575.4457    2.1785793  0.024836265   0.11717927 
    4100   -940.31836    50.223219   -890.09514    1798.8136   -10309.248    2.1345412   0.15416533   0.12694323 
    4200   -946.90961    46.465671   -900.44394    1664.2318    1636.6034    2.1807971  0.089399623   0.11911272 
    4300   -944.54503    49.411453   -895.13358    1769.7391    6537.9331     2.184634   0.10653176   0.14246937 
    4400   -938.38162    46.977794   -891.40382    1682.5742   -2307.4076    2.1487004  0.050082926    0.1742349 
    4500   -940.29877    44.918586   -895.38018    1608.8208   -3540.5938    2.1526695   0.10356133     0.150089 
    4600   -944.29028    45.504199   -898.78608    1629.7954    10961.962      2.19505  0.027095774   0.15207967 
    4700   -938.96135    48.927496   -890.03386    1752.4055     2872.595     2.159898  0.077555041   0.13371233 
    4800   -939.94878    45.860757   -894.08802     1642.566   -6255.0305    2.1396711   0.18132527   0.13345374 
    4900   -943.81471    45.369898   -898.44481    1624.9852    5731.1121    2.1809764  0.059134522   0.12589442 
    5000    -939.2477    50.667184   -888.58052    1814.7148     7718.669    2.1742047  0.071002679   0.14053908 
    5100   -939.58066     48.78289   -890.79777    1747.2262   -3293.7393    2.1483592   0.10729691   0.14326689 
    5200   -941.69832    45.867784   -895.83054    1642.8177   -2781.8919    2.1562913   0.21123729    0.1577719 
    5300   -943.55307    49.561496   -893.99157     1775.113    7557.5276    2.1900088  0.059927705   0.16536981 
    5400   -937.70696    51.455468   -886.25149    1842.9483   -1958.4635    2.1474658  0.079730993   0.17137379 
    5500   -942.62511    47.331273   -895.29384    1695.2346   -7063.1186    2.1488969  0.053532932   0.14598315 
    5600   -944.11019    50.079074   -894.03111    1793.6508    3116.8071    2.1749223  0.015831352   0.13722854 
    5700   -941.57694    56.108266   -885.46868    2009.5946    2414.6054    2.1639082   0.01868552   0.13621093 
    5800   -941.15244    48.313952   -892.83848    1730.4305   -6562.1018    2.1454494   0.52682606   0.14136335 
    5900    -940.1455    44.235442   -895.91006    1584.3531   -2580.3412    2.1558952  0.075312523   0.13925103 
    6000   -942.06106    53.353731   -888.70733    1910.9371    8339.1057    2.1804238  0.039752586   0.14186652 
    6100   -941.11781    49.618399   -891.49941    1777.1511    1139.4917    2.1606899   0.05769832   0.13246905 
    6200   -943.99095    45.516242    -898.4747    1630.2267   -9498.0986    2.1482495   0.02411435    0.1409264 
    6300   -942.03978    49.979835   -892.05994    1790.0964    5094.2203    2.1787542   0.35482925   0.15990151 
    6400   -936.11484    48.491425   -887.62342     1736.787    6032.0619    2.1701443    4.0092281   0.16886437 
    6500   -942.57503    48.419742   -894.15529    1734.2196   -10764.169    2.1404004    3.9498056   0.16777721 
    6600   -942.36708      46.0198   -896.34728    1648.2624   -1520.5357    2.1637715    5.1388597   0.14236532 
    6700    -938.0416    49.517504   -888.52409    1773.5374    8529.9378    2.1809482    4.3435823   0.15470094 
    6800   -940.78153    47.680837   -893.10069    1707.7547   -1596.7483    2.1575584    4.5111587   0.16845981 
    6900   -943.51381     44.60489   -898.90892    1597.5854   -745.54869    2.1685166    4.8319418   0.15650722 
    7000    -936.9608    48.037049   -888.92375    1720.5129   -668.64636    2.1585286    4.1174822   0.17309594 
    7100   -943.32063    51.014026   -892.30661    1827.1374    1266.9266    2.1650827     4.428709   0.16804304 
    7200   -946.34359    48.803505   -897.54008    1747.9646    724.84418    2.1734079    5.6997485   0.16352017 
    7300   -938.70333     51.92931   -886.77402    1859.9196    324.30758    2.1536332    6.0279299   0.17585212 
    7400   -945.08121     53.95624   -891.12497    1932.5169    889.25624     2.171999    4.5609229   0.18371996 
    7500   -941.92357    46.409237   -895.51433    1662.2106    1257.7611    2.1663168    7.1887742   0.16192812 
    7600   -935.57784    48.276602   -887.30124    1729.0928   -778.94655    2.1549292    14.476822   0.17550041 
    7700   -940.66712    51.695387   -888.97173    1851.5413    1024.7928    2.1637752    14.261695   0.16005645 
    7800   -942.67387    46.988409   -895.68546    1682.9544    883.95587     2.172612    16.872732   0.16487076 
    7900   -941.38217    49.600677   -891.78149    1776.5164   -1228.3071    2.1628868    15.940131   0.16873524 
    8000    -937.5266    51.391553   -886.13505    1840.6591   -906.17397    2.1528243     15.67079   0.15861826 
    8100   -941.90098    44.800591   -897.10039    1604.5947    5793.1971    2.1845048    14.199418    0.1415229 
    8200   -943.71332    49.673725   -894.03959    1779.1327   -4073.1325    2.1564946    15.714872   0.15520012 
    8300   -943.40052    53.275967   -890.12455    1908.1519   -5016.5256    2.1500783    14.373098   0.15077644 
    8400   -944.20027    44.077531   -900.12273    1578.6973    8332.9013    2.1934027    16.373454   0.15151891 
    8500   -942.70042     46.64259   -896.05783    1670.5684   -2630.1336    2.1624907    15.685936    0.1397449 
    8600   -939.76946      48.0627   -891.70676    1721.4316   -3539.0138    2.1462281    15.903785   0.13542177 
    8700   -940.56016    45.766275   -894.79389     1639.182    6331.3299    2.1792092    12.987484   0.14612426 
    8800   -948.29776    48.492075   -899.80568    1736.8103    5699.0326    2.1932566    15.102963   0.13491331 
    8900   -941.63182    50.494149   -891.13767    1808.5173   -11129.214    2.1360213    15.946871   0.15309914 
    9000   -942.65571    49.201949   -893.45376    1762.2354   -3945.1876    2.1567063    17.984975   0.14687857 
    9100    -945.2249     47.96699   -897.25791    1718.0036    12210.749     2.202346    15.265126    0.1492145 
    9200   -937.05676    49.963527   -887.09323    1789.5124    -3493.025      2.14839    15.367668    0.1715355 
    9300   -941.97281    50.065086   -891.90772    1793.1498   -7595.8835    2.1443749    14.387604   0.14573158 
    9400   -942.72136    46.906719   -895.81464    1680.0286    4497.4746    2.1803192    15.713182   0.14069549 
    9500   -937.62964    45.828816   -891.80083     1641.422    8490.2262    2.1790247    16.856271   0.14712993 
    9600   -937.84759    49.464851   -888.38274    1771.6516   -10416.971    2.1286335    16.110574   0.16657185 
    9700    -941.9468     44.70172   -897.24508    1601.0535   -1065.6962    2.1654786    19.651631    0.1646056 
    9800   -942.13267    49.495296   -892.63737     1772.742    12132.694    2.1924272    16.979894   0.14566264 
    9900   -941.56613    52.511059   -889.05507    1880.7557   -7098.8892    2.1434392    17.337318   0.14110489 
   10000   -944.38127    45.881947   -898.49932    1643.3249   -9051.6372     2.145569    15.281441   0.14154735 
   10100   -945.69798    49.846658   -895.85133    1785.3265    7334.6336    2.1884633    18.551881   0.14728388 
   10200   -942.07372    52.384602   -889.68911    1876.2265    6943.4535    2.1793889    16.027645   0.15765659 
   10300   -939.83614    45.451713   -894.38443    1627.9155   -14004.452    2.1217715    15.843138    0.1469956 
   10400   -950.50528    50.915042   -899.59024    1823.5922   -3322.7734    2.1703564    13.923089   0.10895314 
   10500   -940.58692    51.899745   -888.68718    1858.8606    27758.548    2.2343823    8.0526206   0.16689193 
   10600    -941.1567    50.980456   -890.17624    1825.9351   -10845.214    2.1305219    13.678264   0.18053716 
   10700   -942.90269    50.319341   -892.58335    1802.2563   -9378.4846    2.1427702    14.146398   0.15498058 
   10800   -947.80337    50.836312   -896.96706    1820.7723    8613.5495    2.1983969    14.045377   0.14003321 
   10900    -937.6638     50.76266   -886.90114    1818.1344    2806.9026    2.1642328    14.549566   0.15589241 
   11000   -941.20616    51.333956    -889.8722    1838.5961   -6677.7427    2.1484251    14.164515   0.14114467 
   11100   -944.26293    49.244572   -895.01836     1763.762   -1638.5903    2.1718595    9.7347296   0.15255607 
   11200   -940.46806    49.211256    -891.2568    1762.5687    6077.3221     2.177727    13.656552   0.14166591 
   11300   -936.82647    49.690878   -887.13559     1779.747   -4376.7867    2.1394028    4.6214286   0.16263632 
   11400   -942.38599    46.165094    -896.2209    1653.4663   -298.14808    2.1656589    5.0081194   0.14114012 
   11500   -944.99006    53.516087   -891.47398    1916.7522    4889.0762    2.1825668    4.3085796      0.16918 
   11600   -937.12489    49.475893   -887.64899    1772.0471   -1095.8559    2.1531479    7.7021402   0.16285959 
   11700   -942.60635    44.984565   -897.62179     1611.184   -5076.4697    2.1561358    6.9296164   0.16631375 
   11800   -941.45578    47.860126   -893.59566    1714.1762    2945.1126    2.1737644    5.2978023   0.16745349 
   11900    -940.3462    52.433083   -887.91312    1877.9629    2876.9692    2.1697076     10.72047   0.16757134 
   12000     -942.224    46.402473   -895.82153    1661.9683   -6003.0906    2.1515917    10.718381   0.17493087 
   12100   -941.56637    45.976172    -895.5902    1646.6997   -3833.6266     2.154374    7.3864475   0.16324222 
   12200   -939.26455    51.944933   -887.31962    1860.4791     8766.437    2.1823165    5.6441696   0.16509493 
   12300   -942.63323     47.96756   -894.66567    1718.0241   -1647.8341    2.1634202    5.9903594   0.15593009 
   12400   -943.91716    47.239994   -896.67717    1691.9653   -10778.855    2.1377218    4.5118932    0.1537518 
   12500   -936.97122     49.87177   -887.09945    1786.2259    8841.4571    2.1732956    5.6610814   0.17261472 
   12600   -940.84739    49.950705   -890.89668    1789.0531    8795.6898     2.185703   0.57134203   0.15346555 
   12700   -941.37808    43.555833   -897.82224     1560.012   -7647.3119    2.1464271   0.03507923   0.13430024 
   12800   -942.20244    51.133103   -891.06934    1831.4023   -4159.1724    2.1530582   0.10796223    0.1450704 
   12900   -940.84529     53.16779    -887.6775    1904.2774    5831.6691    2.1745943   0.19972033   0.13506739 
   13000   -945.84198    48.381478   -897.46051    1732.8491    85.908812    2.1736041  0.024029798   0.12461346 
   13100   -940.72571    47.162383   -893.56333    1689.1855   -3510.7556    2.1549836     0.467616   0.15243618 
   13200   -938.93398    51.912146   -887.02184    1859.3048     1646.886     2.159597   0.55971541    0.1474098 
   13300   -945.93329    49.429234   -896.50406    1770.3759   -1763.5992    2.1729374    1.6832471   0.15479332 
   13400   -944.44565    50.246453   -894.19919    1799.6457   -3455.1085    2.1646102   0.79076274   0.16570597 
   13500   -941.80675    53.877003   -887.92975    1929.6789   -947.60304     2.162313   0.31875733   0.17465618 
   13600   -942.81569    47.385085    -895.4306    1697.1619    2060.4538    2.1692848    5.4653007   0.15596611 
   13700   -943.55383    47.648151   -895.90568     1706.584   -1096.0185    2.1607298    5.0586088   0.13655535 
   13800   -942.87141    53.791937   -889.07947    1926.6321   -2722.1853    2.1585441    5.5303247   0.12894956 
   13900    -945.6494    49.595634   -896.05376    1776.3358     2609.668     2.177857     5.730571   0.12355929 
   14000   -942.13127    45.777353   -896.35391    1639.5788     350.0023    2.1680185    5.6522153   0.13576714 
   14100   -937.73582    49.748066   -887.98775    1781.7953   -5834.9345    2.1455699    4.9175857   0.14160855 
   14200   -943.82781    48.177425   -895.65038    1725.5406    4216.3659    2.1829592    5.0346045   0.15053929 
   14300   -940.96962    45.554381   -895.41523    1631.5927     5345.574    2.1786597    5.9496781   0.15208634 
   14400   -932.62755    44.131526   -888.49603    1580.6312   -5391.5811    2.1353037    4.7942451   0.19061691 
   14500   -942.29817    45.446872    -896.8513    1627.7422    2064.7253    2.1721507    6.1196634   0.15230467 
   14600   -944.34398    48.743396   -895.60059    1745.8117    7992.8119    2.1919416     6.663104   0.14682003 
   14700   -938.42706     48.67155   -889.75551    1743.2384   -1423.9367    2.1538102    5.1790912    0.1389768 
   14800   -941.37974    47.357975   -894.02177    1696.1909    -9331.415    2.1452813    4.9120993   0.13540605 
   14900   -946.75335    49.456418   -897.29693    1771.3495    7816.8843    2.1948585    5.4861736   0.13868515 
   15000   -943.79512    55.472426   -888.32269    1986.8211    4175.6945    2.1740072     5.773243   0.13627631 
   15100   -944.94397    51.585432   -893.35853    1847.6031    -12419.89    2.1356473      6.53666    0.1474212 
   15200   -944.65878    46.292658   -898.36612    1658.0351   -152.57712    2.1722273    6.9559211   0.15896833 
   15300   -940.30466    50.802313   -889.50235    1819.5546    13858.975    2.1937049     5.765998   0.16592177 
   15400    -941.4011    50.149242   -891.25186     1796.164   -3274.3746    2.1539761    5.3371824   0.16659166 
   15500   -942.51107    44.268266    -898.2428    1585.5288   -5731.9855    2.1501189    4.7286989    0.1519727 
   15600   -941.46531    49.694905   -891.77041    1779.8913    7414.6519    2.1780002    5.3601499   0.12841778 
   15700    -940.6585    51.480779   -889.17773    1843.8548    2619.3792    2.1667786    5.5900645   0.13718963 
   15800   -941.54718     43.36547   -898.18171    1553.1939   -2952.1931    2.1634611    4.8823981   0.14251481 
   15900   -938.98207    46.496994   -892.48508    1665.3537    106.45515    2.1604777    5.9449326   0.15569286 
   16000   -935.96105    47.384078   -888.57697    1697.1258    5226.9665    2.1626992     6.725137   0.17668557 
   16100   -943.69631    45.764349   -897.93196     1639.113    3073.2068     2.177956    6.2593318   0.15200665 
   16200   -942.42643    49.492965   -892.93347    1772.6585   -3808.1111    2.1577053     4.818424   0.16254266 
   16300   -935.74013    46.216391   -889.52374    1655.3035    2840.0945    2.1577317    4.5073574   0.17442574 
   16400   -943.01469    44.706623   -898.30807    1601.2291    5068.0917    2.1834689    6.1298173   0.15832944 
   16500    -944.9791    52.837873   -892.14123     1892.461    -4376.092    2.1593942    5.5399176   0.14904383 
   16600   -936.40499    46.075616   -890.32938    1650.2615   -1275.3284    2.1512026    7.0574838   0.15111583 
   16700   -942.40784    44.532658   -897.87518    1594.9983    6221.8588    2.1820497    5.9002208   0.12604152 
   16800   -935.93612    43.932477   -892.00364     1573.502    6734.6254    2.1712104    5.6260795      0.16444 
   16900   -936.78932    46.512192   -890.27713    1665.8981   -6716.0307    2.1395088    4.3770258   0.16309136 
   17000   -944.25112    46.113659   -898.13746     1651.624    754.66565    2.1708054    6.1722671   0.15726889 
   17100   -942.43337    49.028483   -893.40489    1756.0225     12244.78    2.1924526    5.1833635   0.15601582 
   17200   -938.71076    49.190085   -889.52067    1761.8105   -3834.0236    2.1436264    5.4189231   0.15829635 
   17300   -944.04609    45.656977   -898.38911    1635.2673    -8897.303    2.1494319    5.1892749   0.15392938 
   17400   -940.83414    46.044208   -894.78993    1649.1366    11583.431    2.1892008    6.5629951    0.1496196 
   17500   -941.40547    53.267116   -888.13835    1907.8349    2172.5628    2.1681529    4.8628996   0.14822612 
   17600   -945.18378    49.064373   -896.11941    1757.3079   -11543.777    2.1403277    8.1318188   0.13933677 
   17700   -941.75429    46.053017   -895.70127    1649.4521   -345.50639    2.1653634    5.2435619   0.14603696 
   17800   -939.92417    52.961113   -886.96305     1896.875    6913.1135    2.1747017    5.0053961   0.14947983 
   17900   -943.45237    48.597108   -894.85526    1740.5722   -2683.9831    2.1618609    4.6955166   0.13455018 
   18000   -945.97665     49.25921   -896.71744    1764.2862   -7786.1974    2.1508165    5.8499267    0.1463602 
   18100   -940.12349    52.528351   -887.59514     1881.375    3881.0426    2.1674066    4.3687647   0.15133832 
   18200   -943.02737    48.788402   -894.23897    1747.4236    1770.0395    2.1770334    6.0403583   0.14849899 
   18300   -941.31481     43.58312   -897.73169    1560.9893   -3902.6106    2.1540557    3.6272374   0.15295116 
   18400   -936.44648     47.87276   -888.57372    1714.6286    3461.8753    2.1563706    6.9955402    0.1439105 
   18500   -944.22371     49.71092   -894.51279    1780.4649     3375.322    2.1772721    3.5762491   0.13159791 
   18600   -943.02111     45.10382   -897.91729    1615.4553      72.3473    2.1712993    5.5811289    0.1444345 
   18700   -936.78988    47.936943   -888.85294    1716.9275   -2587.2178    2.1500764    5.0506297   0.15234162 
   18800   -941.24965    46.501898   -894.74775    1665.5293    2378.8478    2.1728807    5.4653435   0.14052586 
   18900   -943.05834    45.987919   -897.07042    1647.1205    2647.7078     2.176377    4.2060314   0.13563541 
   19000   -942.72138    54.047536   -888.67385    1935.7867   -5210.1758    2.1495242    6.1540393   0.15025492 
   19100   -942.44265    46.995593   -895.44706    1683.2117    88.966232    2.1700207    5.2509487   0.15555469 
   19200   -943.79496    47.057104   -896.73785    1685.4148    2376.9936    2.1787674     5.398512   0.15977071 
   19300   -939.85723     51.42114   -888.43609    1841.7187   -2921.9746    2.1520443    6.0953128   0.15220938 
   19400   -943.57932    48.236935   -895.34238    1727.6721   -2221.1155    2.1676805    5.5053949   0.16089638 
   19500   -945.02961    48.647435   -896.38218    1742.3747    1580.9719     2.178806    5.9697086   0.14867431 
   19600   -938.96203     50.48892   -888.47311      1808.33   -2012.4266    2.1590647    4.5291837   0.17849129 
   19700   -944.75202    48.989375   -895.76264    1754.6217   -5944.5772    2.1622934     6.091312   0.16583906 
   19800   -946.78359    50.465768   -896.31782    1807.5008   -1548.9731    2.1731297    7.5408207   0.14009552 
   19900   -940.31475    52.524474   -887.79027    1881.2362    2829.6716     2.171319    5.2925194   0.17459676 
   20000   -940.28091    45.164016    -895.1169    1617.6113   -175.22143    2.1630019    6.0908085   0.15788091 
   20100     -946.752    50.132139   -896.61986    1795.5514   -7046.4815    2.1578091    6.0495333   0.15035465 
   20200   -939.26842     52.07443   -887.19399    1865.1172    3297.0153    2.1717227    5.6111001   0.16808842 
   20300   -940.94713    47.078001   -893.86913    1686.1633    6610.8837    2.1817386    7.7356841    0.1581975 
   20400   -941.47115     45.52806   -895.94309      1630.65   -9781.0499    2.1457186    21.514221   0.17922767 
   20500   -937.35871    49.324318   -888.03439    1766.6182   -4643.0229    2.1507653    40.941675   0.17734848 
   20600   -943.65702    50.427007   -893.23001    1806.1125    12221.119    2.1978033    41.487206   0.15443414 
   20700   -943.91581    46.743104   -897.17271    1674.1685   -1793.6462    2.1699102    23.781192    0.1651591 
   20800    -934.2971    45.118873   -889.17822    1615.9944   -7866.3601    2.1332612    19.694626   0.20278962 
   20900   -938.04651     46.57174   -891.47477    1668.0308    9291.8141    2.1749344    20.366523   0.18331508 
   21000     -946.153    49.444461   -896.70854    1770.9213    9070.4873    2.1929861     23.37522   0.18427154 
   21100   -940.16441    50.926227   -889.23818    1823.9928   -8202.9024    2.1434591    23.813383   0.19752313 
   21200   -935.31944    45.692932    -889.6265    1636.5551   -1903.9196     2.148234    23.147844   0.16239691 
   21300   -939.29291    44.280993   -895.01191    1585.9846    11615.406    2.1866248    25.098372   0.16318958 
   21400   -939.91317    51.612053   -888.30112    1848.5566    1102.3985    2.1581671    24.340042   0.16242542 
   21500   -939.41514    50.841654   -888.57348    1820.9637   -9246.1789    2.1415253    21.040678   0.17039759 
   21600   -943.23055    47.078572   -896.15197    1686.1837    4295.1807    2.1764697    35.791997   0.13169961 
   21700   -942.51152    50.433549   -892.07798    1806.3468    2453.9594    2.1700447    37.265922   0.14679813 
   21800   -939.91801    52.292628   -887.62538    1872.9323   -3771.1246    2.1468978    37.094523   0.16823297 
   21900   -942.75938    44.746537   -898.01285    1602.6587    4584.1613    2.1796763    37.676105   0.15250834 
   22000   -943.68485    50.356876   -893.32797    1803.6007    1808.0989    2.1713271     35.50925   0.14607743 
   22100   -938.84772    48.882078   -889.96564    1750.7788   -2473.9098    2.1527125    35.862916   0.15446229 
   22200   -947.87739    48.083707   -899.79368     1722.184    264.07421    2.1789058    34.405061   0.12354061 
   22300   -940.89835    46.190955    -894.7074    1654.3925    653.82151    2.1683939    32.595128   0.13717693 
   22400   -939.98934    49.242839   -890.74651    1763.6999   -1268.1958     2.162177    31.740489   0.13465412 
   22500   -946.16661    47.613111    -898.5535     1705.329    -1109.244    2.1754411    33.957412   0.13097856 
   22600    -942.0087    46.084594    -895.9241     1650.583    2707.7639    2.1756488      34.9969   0.14839887 
   22700   -942.13964    52.020066   -890.11958    1863.1701   -163.02852    2.1625202    36.555566   0.15725709 
   22800   -946.90051    50.359827   -896.54068    1803.7064   -5639.9142    2.1629419    34.751565   0.15199054 
   22900   -943.96991    47.155985   -896.81393    1688.9564    1316.4719    2.1779496    34.388412    0.1372401 
   23000   -939.94643    51.899176   -888.04726    1858.8403    2008.6718    2.1631356    35.862436   0.14355564 
   23100   -944.55129    49.875428   -894.67587     1786.357   -3664.1733    2.1607587    33.158262   0.14291542 
   23200   -941.99936    46.387213   -895.61215    1661.4217    1172.5699    2.1704145    36.472989    0.1375133 
   23300     -937.679    52.094999     -885.584    1865.8539    480.43558    2.1579785    37.989834   0.15781167 
   23400   -942.94983    49.741629    -893.2082    1781.5648    1497.2341    2.1722371    36.655892   0.14121676 
   23500   -940.96084    45.067316   -895.89352    1614.1478   -2462.7675    2.1636834    36.696561   0.15712232 
   23600   -938.28943    51.008669   -887.28076    1826.9455   -941.09831    2.1588128      34.3322   0.16996668 
   23700   -938.93022    46.510057   -892.42016    1665.8216    7560.4367    2.1781701    35.715192   0.15454303 
   23800   -944.26992     47.81188   -896.45804    1712.4482   -3018.7803    2.1604049      37.7079   0.14745991 
   23900    -941.2616    50.372675   -890.88892    1804.1666   -2976.1375    2.1566787    33.187579   0.13879724 
   24000   -942.85281    53.171719   -889.68109    1904.4181    2829.1892    2.1739022    36.343951   0.14773466 
   24100   -945.94146    47.201544   -898.73991    1690.5881     2589.347    2.1822731    37.207201   0.14384646 
   24200   -939.88296    46.463096   -893.41986    1664.1396   -8265.0653    2.1422312    42.347848   0.15780704 
   24300   -942.23125     51.75175    -890.4795      1853.56    358.52501    2.1600277    44.351847   0.15703313 
   24400   -945.70609    46.480829   -899.22526    1664.7747    12100.416    2.2028323    36.423548   0.14585748 
   24500    -945.1027    50.890649   -894.21205    1822.7185   -7942.5419    2.1503073    38.357238   0.12735766 
   24600   -939.19683    47.564471   -891.63235    1703.5869   -6365.0667    2.1436176    35.570352   0.14690136 
   24700   -947.16148    52.436773   -894.72471    1878.0951    5961.5376    2.1906051     36.95165   0.15562136 
   24800   -946.15226    46.227167   -899.92509    1655.6895     4454.334    2.1840641    36.220456   0.14360968 
   24900   -936.48841    47.075527   -889.41289    1686.0746   -11518.653    2.1223012    36.880471   0.17824807 
   25000   -940.96027     47.97864   -892.98163    1718.4209     6186.057    2.1792062    36.200934   0.16178694 
   25100    -948.2233    52.631668   -895.59163    1885.0755    9500.1051    2.1982845     35.99054   0.14104258 
   25200   -943.01734    55.678227   -887.33911    1994.1922   -10820.896    2.1359844    37.274389   0.15069439 
   25300   -939.92133    48.937271   -890.98406    1752.7556      -3991.7    2.1516199    38.072566   0.14588845 
   25400   -947.49416    52.505484   -894.98867     1880.556    2998.4719    2.1824263    34.715937   0.13193895 
   25500    -943.3153    51.881441   -891.43386    1858.2051    556.19508    2.1657607    35.246152   0.12893783 
   25600   -939.08014    52.877908   -886.20223    1893.8949   -7520.4748    2.1404302    34.870928   0.13884488 
   25700   -942.26298    45.785721   -896.47726    1639.8785    3741.8408    2.1802222    35.411173   0.15054597 
   25800   -942.20842    49.104254   -893.10417    1758.7363    3169.1971    2.1720679     33.38974   0.16037148 
   25900   -940.73013    51.972051   -888.75808    1861.4504   -3863.3636    2.1468428    37.115036   0.17065531 
   26000   -947.59159    48.345549   -899.24604    1731.5622   -7.2557399    2.1784054    37.217202   0.13693447 
   26100   -943.04774    47.795613   -895.25213    1711.8655    648.12327     2.170692     33.95744   0.14494636 
   26200   -942.78587    52.111519   -890.67435    1866.4456   -4361.9641    2.1546026    33.849563   0.12871707 
   26300   -941.54484    44.518959   -897.02589    1594.5077    536.11276    2.1709499    31.912657   0.15018747 
   26400   -941.86489    43.918194   -897.94669    1572.9905    2628.5797    2.1770312    35.750807   0.14276295 
   26500    -936.6525    45.903616   -890.74889    1644.1011    3596.0752    2.1639216    36.244596   0.15068904 
   26600   -943.01858     47.99743   -895.02115    1719.0939   -5057.8098    2.1589327    35.294567   0.13690783 
   26700   -947.00033    46.550695   -900.44964    1667.2771    1525.2507    2.1809717    35.732446   0.14143583 
   26800   -936.99901    46.930692   -890.06832    1680.8872    8345.8886    2.1700364    38.029405   0.16721036 
   26900   -941.17908    48.111732   -893.06734    1723.1878    -767.0521    2.1633732    35.623013   0.15321153 
   27000   -946.38779     48.05786   -898.32993    1721.2583   -2890.0391     2.167065    35.113664   0.14326051 
   27100   -939.08907    48.567793   -890.52128    1739.5222    7028.7594     2.173706    36.754508   0.14005209 
   27200   -939.77192    49.974588   -889.79733    1789.9085    3831.8981    2.1700804    37.448472   0.15017124 
   27300   -945.10383    48.818253   -896.28557    1748.4928    -8054.399    2.1497781    37.753061   0.13740202 
   27400   -941.95364    49.979557   -891.97408    1790.0865    335.98684    2.1674441    35.418423   0.14983618 
   27500   -940.52669    55.443749   -885.08294     1985.794    4933.8044    2.1703268    36.472849   0.16903645 
   27600   -944.03355    49.432085   -894.60147     1770.478   -5568.7842     2.157788    37.316333    0.1589071 
   27700     -939.967    45.577119   -894.38988    1632.4071    -3974.766    2.1553579    34.794416   0.16673124 
   27800   -937.00686    50.914984   -886.09187    1823.5901    7489.0481    2.1748332    36.390324     0.164384 
   27900   -943.14163    49.696442   -893.44519    1779.9463   -149.35767    2.1677037    37.531874   0.14314347 
   28000     -943.436     46.76683   -896.66916    1675.0183    -11961.71    2.1388854    36.375996   0.15326383 
   28100   -941.14413    50.854274   -890.28986    1821.4157    5872.8877    2.1768516    35.030235    0.1568434 
   28200   -941.27475    46.705273   -894.56947    1672.8135    11792.888    2.1950962    33.916692   0.15907001 
   28300   -943.05755    42.722174   -900.33537    1530.1533    -8675.873    2.1524238    37.744894   0.16049377 
   28400   -943.10209    49.566769   -893.53532    1775.3019   -6296.7873    2.1539777    38.696917   0.15458367 
   28500   -941.78076    51.358865   -890.42189    1839.4883     7222.512    2.1810739    34.329869   0.16300811 
   28600   -947.40395      47.6174   -899.78655    1705.4826   -2740.7602    2.1708021    37.450733   0.15797168 
   28700   -942.89314    47.665623   -895.22751    1707.2097   -5724.8801    2.1552498    35.176267   0.15889471 
   28800   -941.42275    51.142695   -890.28005    1831.7459    2323.3244    2.1656311    34.660272    0.1415883 
   28900   -945.08037    48.489618   -896.59075    1736.7223    721.74282    2.1723525    34.714224   0.13990758 
   29000   -945.65203    48.533551   -897.11848    1738.2958   -1618.2579     2.167181    36.237856   0.13533728 
   29100    -940.6888    51.762229   -888.92658    1853.9353   -3526.8722     2.150687    37.358952   0.14594221 
   29200   -940.66704    45.941469   -894.72557    1645.4568    2808.5083     2.171713     36.40856   0.14285287 
   29300   -943.95626    47.234696   -896.72156    1691.7755    2433.2371    2.1742895    35.295557   0.14195698 
   29400   -938.76631    51.942193   -886.82411     1860.381   -4553.7099    2.1409208    35.871692   0.13999332 
   29500   -940.63166    46.187871   -894.44379     1654.282    4321.5396    2.1727847     34.35236   0.14976775 
   29600   -940.40462    45.222312    -895.1823    1619.6992     5619.628    2.1754301    37.000574   0.15218342 
   29700   -935.32348    48.243537   -887.07995    1727.9086   -2627.5332    2.1402894    38.120212   0.14174348 
   29800   -941.61437    47.411301   -894.20307    1698.1009   -1908.8549    2.1622306    37.538886   0.15011077 
   29900   -942.64802    46.958256   -895.68976    1681.8744    6491.9988    2.1824032     36.50075   0.14198685 
   30000   -939.34916    49.597857   -889.75131    1776.4154     756.6969    2.1623863    34.605302   0.14005025 
   30100   -942.76708    49.970653   -892.79643    1789.7676   -10902.645    2.1397807    35.693974   0.13697881 
   30200   -947.02101     48.74683   -898.27418    1745.9347    3235.8141    2.1843497    34.374507   0.14304684 
   30300   -941.26686    51.781043   -889.48582    1854.6092    6378.2086    2.1832041    33.560166   0.14682634 
   30400   -941.14375    47.724344   -893.41941    1709.3129   -8136.1914    2.1396233    34.157178   0.16353669 
   30500   -949.84645    49.736843   -900.10961    1781.3934    -7595.456    2.1612556    38.715353   0.13400469 
   30600   -943.50068    51.672756   -891.82792    1850.7307    10589.316    2.1930039    34.848102   0.14754974 
   30700   -937.87335     46.95336   -890.91999    1681.6991    4067.8461    2.1641496    34.095418   0.14236641 
   30800   -943.52754     45.37903   -898.14851    1625.3123   -9799.7564    2.1426963    39.457993   0.13954951 
   30900   -946.42764    53.405676   -893.02196    1912.7976    1479.7854    2.1750117    33.787282   0.13349241 
   31000   -943.27839    55.417763   -887.86063    1984.8633    3546.7223    2.1705688    35.237411    0.1455201 
   31100   -944.05813    47.276148   -896.78198    1693.2602   -6001.8721    2.1572373     35.55083   0.15621988 
   31200   -942.76642    49.769409   -892.99701    1782.5597    -623.4116    2.1592635    38.513972   0.14742991 
   31300   -939.12933    52.582177   -886.54715    1883.3029    3220.2612    2.1664739    34.535471   0.16582102 
   31400   -943.62594    47.350806   -896.27513    1695.9342    754.31029    2.1725134    39.249096   0.15794268 
   31500    -942.8103    48.803288   -894.00702    1747.9568   -5148.1416    2.1518458    33.430804   0.12383263 
   31600   -938.15311    50.664605   -887.48851    1814.6224    2117.4224    2.1577296    39.161464   0.15684336 
   31700   -944.11948     47.31893   -896.80055    1694.7925    5442.1431    2.1823296    38.258779   0.15094816 
   31800   -941.35807    46.808056   -894.55002    1676.4948   -3549.3244    2.1518051    34.919007   0.15403684 
   31900   -941.06391    52.098264   -888.96565    1865.9709    -6098.993    2.1468249    35.518302   0.16545594 
   32000   -947.95225    50.491906   -897.46034    1808.4369    5611.8139    2.1875994    34.645111   0.14917568 
   32100   -941.44067    46.235672     -895.205    1655.9941   -302.35995    2.1663825    33.986652   0.16606069 
   32200    -939.5112    49.592513   -889.91869     1776.224   -9166.1969    2.1365783     39.56664    0.1621273 
   32300   -946.14733    48.441109   -897.70622    1734.9848    3475.9688    2.1804494    36.204543   0.13864794 
   32400    -939.8003     44.32005   -895.48025    1587.3835    12598.309    2.1965923    36.438334   0.14509778 
   32500   -933.34397    43.451595   -889.89237    1556.2786   -11348.631    2.1234428    34.908223   0.15745607 
   32600   -940.91446    46.684451   -894.23001    1672.0677   -7127.0145    2.1463463    34.956756   0.12890127 
   32700   -945.42958    50.044857   -895.38472    1792.4253     20195.02     2.223859    34.960345   0.15256212 
   32800   -940.26587    51.733015   -888.53286     1852.889   -1881.2507    2.1578857    37.924525   0.16733005 
   32900   -939.22888    47.444154   -891.78473    1699.2776   -12163.973    2.1291126     34.27151   0.18063538 
   33000   -941.88312    45.423522    -896.4596    1626.9058    7951.6502    2.1838745    37.528852   0.15997717 
   33100   -944.91861    54.041757   -890.87686    1935.5798    7264.9574    2.1857736    34.307486   0.15394793 
   33200   -938.01878    48.521744   -889.49704    1737.8729   -6668.6704    2.1394457    34.710982   0.13229292 
   33300   -946.22619     48.28165   -897.94454    1729.2736   -7086.1164    2.1613787    36.438072   0.11936067 
   33400   -943.94919    51.585604   -892.36359    1847.6093    7971.6813    2.1865241    35.327947   0.14666653 
   33500    -938.0228    49.073146   -888.94966    1757.6221    1365.3805    2.1574195     33.21181   0.15233357 
   33600   -942.53107     43.73744   -898.79363    1566.5165   -4629.9644      2.15475      39.8526   0.15221141 
   33700   -944.18165    49.869502   -894.31215    1786.1447    1737.7873    2.1701179    36.347078   0.16000881 
   33800   -936.69107    48.081774    -888.6093    1722.1148    6817.4338    2.1723503    38.421197   0.16282389 
   33900    -945.5379    47.950552   -897.58734    1717.4149   -4750.8262    2.1564574    36.035975   0.15113055 
   34000   -942.11062    45.881731   -896.22889    1643.3172   -5926.3112    2.1547248    39.123226   0.16357136 
   34100   -940.82845      51.7293   -889.09915    1852.7559    4983.1563    2.1756591    32.423513   0.15134525 
   34200   -939.71754    43.909608   -895.80793    1572.6829    5800.1321    2.1757652    32.016693   0.13948084 
   34300   -943.62701    44.717572   -898.90944    1601.6213   -8705.1767    2.1504811     30.73029   0.14243367 
   34400   -939.23759    49.555063   -889.68253    1774.8826    236.84238     2.160742    36.618596    0.1424635 
   34500   -945.22023    52.481606   -892.73862    1879.7008    9421.6032    2.1928983    35.460899   0.15955571 
   34600   -947.29683    48.755562   -898.54127    1746.2474   -8113.2945    2.1545287    38.591951   0.15661028 
   34700   -938.92207    49.500302   -889.42177    1772.9213   -14263.848    2.1199506    35.674661   0.15741203 
   34800   -939.52883    51.579754   -887.94908    1847.3997    23384.052    2.2158809    34.576914   0.16139086 
   34900   -942.02865    47.299843    -894.7288    1694.1088    3411.4037    2.1746688    33.148198   0.12791752 
   35000   -939.84153    45.817164   -894.02437    1641.0047   -13717.537    2.1249792     34.08786   0.14491974 
   35100   -941.16696    54.859241   -886.30772    1964.8591    4919.9731     2.166919    31.744998   0.13730736 
   35200   -943.40246    48.335746   -895.06671    1731.2111    6422.5668    2.1829687    33.766263   0.13850884 
   35300   -941.74551    45.360527   -896.38498    1624.6496   -5878.6402    2.1490961    34.393652   0.15589457 
   35400   -939.01272    48.599774   -890.41295    1740.6676    1381.8799     2.159441    37.879747    0.1446948 
   35500   -944.66871    48.967461   -895.70125    1753.8369    6156.0868    2.1834564    38.574924   0.14594716 
   35600   -945.35187    46.371061   -898.98081    1660.8432   -2707.5503    2.1672404    37.076946   0.15321142 
   35700   -942.74083     50.62026   -892.12057    1813.0342   -2587.9401    2.1533625    36.238388   0.14829821 
   35800   -937.18923    44.732468   -892.45676    1602.1548    7451.9718    2.1735144    35.620679    0.1634974 
   35900   -947.33889    46.533332   -900.80556    1666.6552    2349.8836    2.1820125    35.863565   0.13666142 
   36000   -941.04419    49.549975   -891.49421    1774.7004    -7104.403      2.14451    32.705243   0.13702441 
   36100     -940.409     48.43751   -891.97149     1734.856    1348.7658    2.1657164    35.738389   0.14570149 
   36200   -944.61064     46.67018   -897.94046    1671.5566    7867.1435    2.1909352    36.602534   0.14525884 
   36300   -944.16862    54.381081   -889.78754    1947.7331   -7510.4795    2.1504531    42.539654   0.15035478 
   36400   -941.50977    51.146544   -890.36323    1831.8837   -5883.3381    2.1520971    37.776968   0.16098971 
   36500   -941.29117    46.100324   -895.19085    1651.1464    9064.7361    2.1869653    33.608923   0.15464565 
   36600   -945.95859    49.931255   -896.02734    1788.3565    1234.1441    2.1791295    34.893111   0.14236266 
   36700   -936.39127    49.432045   -886.95923    1770.4766   -13116.036    2.1213724     35.22202   0.17247771 
   36800   -944.57483    48.702771   -895.87206    1744.3566    3584.4717    2.1809592    34.998605   0.13184986 
   36900   -945.07586    51.153089   -893.92277    1832.1181    10049.013    2.1997419    40.386304   0.14579437 
   37000   -939.57239    49.586566   -889.98583     1776.011   -9066.1971    2.1355865    36.092398   0.14751056 
   37100   -940.91495    53.848886   -887.06607    1928.6718   -8901.9208    2.1359166    36.955652    0.1377378 
   37200   -946.05298     50.07131   -895.98167    1793.3727    14468.446     2.205578    37.009878   0.14265733 
   37300   -942.11194    49.849561   -892.26238    1785.4305   -201.82033    2.1629603    30.868223   0.12815283 
   37400   -942.09335    51.711817   -890.38153    1852.1298   -9875.5736    2.1393914    36.305881   0.15477349 
   37500   -946.29882    46.579729   -899.71909     1668.317    4964.9054    2.1904814    33.965715   0.16366501 
   37600   -942.95112    50.514809   -892.43631    1809.2573    1953.1787    2.1729345    38.508682   0.14414024 
   37700   -942.85766    51.211519   -891.64614    1834.2109   -4220.7852    2.1509806    36.958738   0.15216006 
   37800   -946.14806    46.945511   -899.20254     1681.418   -260.02644    2.1750739    38.254306     0.147348 
   37900   -941.22491    46.339566   -894.88534    1659.7152    6107.5436    2.1803442     39.41893   0.13958915 
   38000   -941.10506    50.618146   -890.48691    1812.9584   -4256.3841    2.1559509    31.559175   0.14519787 
   38100   -945.84926    48.874487   -896.97478    1750.5069    -6409.231    2.1592095    36.514915   0.14572408 
   38200   -945.09301    50.357472   -894.73553     1803.622    3992.1478    2.1834007    33.226771   0.13799398 
   38300   -940.52063    53.003484   -887.51715    1898.3926    2069.0334    2.1617117    35.525849    0.1645657 
   38400   -942.76235    46.772177   -895.99017    1675.2098   -8133.5521    2.1520769    37.880155   0.15093467 
   38500   -942.64582    48.866732   -893.77909    1750.2291    591.52577    2.1727786    35.850238   0.18190381 
   38600   -939.07872    53.917357   -885.16136    1931.1242    7178.3317    2.1768111    39.729901   0.17588039 
   38700   -945.15498    50.519691   -894.63529    1809.4321   -8690.9381    2.1524019    39.586194   0.15594556 
   38800   -944.21891    48.816484   -895.40243    1748.4294    -9675.673    2.1461915     35.06765   0.15771198 
   38900   -938.21856    51.568379   -886.65018    1846.9923    10477.024    2.1883262    39.279484   0.15529239 
   39000   -938.71874    44.931359   -893.78738    1609.2783    6194.3304     2.178626    37.036894   0.14268168 
   39100   -943.99669    45.820071   -898.17662    1641.1088   -12947.325    2.1387136    35.742181   0.15746934 
   39200   -943.65431    52.833352   -890.82096    1892.2991    360.28289    2.1659971    33.111551   0.14161363 
   39300   -942.58464    49.826278   -892.75837    1784.5966    9004.6403    2.1869511     38.90644   0.16977718 
   39400     -945.609    44.843518   -900.76548    1606.1322   -3424.4096    2.1651436    35.447433   0.15386171 
   39500   -941.60051    48.818076   -892.78243    1748.4864   -4143.7732    2.1524667    35.221417   0.16132333 
   39600   -944.88223    53.871262   -891.01097    1929.4732    3272.3976    2.1767462    37.579255   0.15691253 
   39700   -946.99139    47.125218   -899.86617    1687.8544    473.02684    2.1819339    30.443774    0.1350031 
   39800   -938.15695    46.236016   -891.92094    1656.0064   -3226.1987    2.1526411     34.30827   0.14875296 
   39900   -938.88321    48.133527   -890.74968    1723.9684    3437.1908    2.1688816    34.625861    0.1454187 
   40000   -946.93883    49.340214   -897.59862    1767.1875    1743.7793     2.183914    33.179645   0.13509464 
   40100    -938.3267     47.86788   -890.45882    1714.4539   -2221.2423    2.1577703    36.176713   0.15773916 
   40200   -940.35647    50.392934   -889.96353    1804.8921   -3836.5681    2.1594106     34.66695   0.18133123 
   40300   -944.65859    48.198484    -896.4601    1726.2949    165.70922    2.1754079    34.323762   0.18494554 
   40400   -942.18601    49.988273   -892.19774    1790.3986    520.55847    2.1674808    36.260233   0.17239352 
   40500   -940.93012    52.887648   -888.04247    1894.2437   -3253.1652    2.1485451     36.77797   0.15360672 
   40600   -946.63854    50.069218   -896.56933    1793.2978   -598.25161    2.1736134    36.120554   0.13203275 
   40700    -937.8738     45.20792   -892.66588    1619.1838    10703.751    2.1855891    32.888196   0.14779599 
   40800   -939.22057    51.421778   -887.79879    1841.7416   -8654.4621    2.1343284    38.187073   0.15698056 
   40900   -946.48914    48.287481   -898.20166    1729.4825   -5882.5523    2.1592688     34.48234   0.15569108 
   41000   -947.63341    53.159195   -894.47422    1903.9696    5048.7296    2.1923693    40.930716    0.1696054 
   41100   -940.71443    50.634313   -890.08012    1813.5375    324.16751    2.1627874    37.098543   0.17893418 
   41200   -939.28262    47.061027   -892.22159    1685.5553   -10897.181    2.1332801    33.438282   0.16717736 
   41300   -942.22239    44.316309   -897.90608    1587.2495     8776.056    2.1889886    32.312516   0.15784051 
   41400   -940.21156    50.199445   -890.01212    1797.9621    7088.5631    2.1803616    36.553866   0.15040452 
   41500   -939.48545    46.095282   -893.39016    1650.9658   -8991.5937    2.1423837    32.447799   0.14724974 
   41600   -944.17703    43.942062   -900.23497    1573.8453   -1289.4419    2.1685956    36.165587   0.14180874 
   41700   -942.41333    51.042664   -891.37067    1828.1631    11177.002    2.1883308     35.29029   0.13862527 
   41800   -938.21426    46.785321   -891.42894    1675.6805    3505.7993    2.1635405    35.837737    0.1602407 
   41900   -944.19455    45.793085   -898.40147    1640.1422   -8243.1479    2.1509026    36.078614    0.1494654 
   42000   -944.73255    51.436476   -893.29607     1842.268    3386.8232    2.1770495    38.603622   0.15542606 
   42100   -940.86717     52.17706   -888.69011    1868.7931    4783.0902    2.1731541    37.355667   0.15942177 
   42200   -944.17035    47.255653   -896.91469    1692.5261   -8363.1681    2.1529102    37.743579   0.13283965 
   42300   -942.57187    49.572564   -892.99931    1775.5095   -3106.6844    2.1604839    35.652524   0.14486351 
   42400   -942.18824    55.706183   -886.48206    1995.1934    3094.3883    2.1698461    33.374366    0.1408409 
   42500   -940.45926    44.782757    -895.6765    1603.9559    3284.9668    2.1690659     35.66603   0.15438484 
   42600   -941.50884    47.440154   -894.06868    1699.1343   -3843.3326     2.155712    36.288255    0.1517245 
   42700   -935.87449    49.571261   -886.30322    1775.4628    2336.7565    2.1555077    35.502634   0.15331034 
   42800   -944.07628    47.707734   -896.36855     1708.718    5078.4295    2.1803227    35.177458   0.14626877 
   42900   -943.29676    48.378882   -894.91788    1732.7561   -3014.1341    2.1603941    35.281892    0.1368883 
   43000   -941.41605    52.791002   -888.62505    1890.7822   -3298.3334    2.1540556    35.250931   0.14917744 
   43100    -943.2891    45.534918   -897.75418    1630.8956    4222.1375    2.1801429    36.686023   0.13942716 
   43200   -943.11924    47.648584   -895.47066    1706.5995   -979.59672    2.1622711    34.731104   0.12612352 
   43300   -938.19091    48.246004    -889.9449    1727.9969    55.147279    2.1527304    35.826871   0.13420013 
   43400   -947.38347    49.662873   -897.72059     1778.744    1163.0529    2.1786283    37.241433   0.13334948 
   43500    -943.0063    45.954525   -897.05178    1645.9244    497.09888    2.1707165    39.053554   0.13945429 
   43600   -942.37336      51.6932   -890.68016     1851.463   -5055.6152    2.1516365    35.668449   0.16139755 
   43700   -945.34893    49.006267   -896.34266    1755.2268   -1236.8353    2.1675905     33.65907   0.14627954 
   43800   -944.04576    46.770253   -897.27551    1675.1409     10231.99    2.1946312    34.901936   0.13606052 
   43900   -937.31844    49.057814   -888.26062     1757.073    -4171.239    2.1417461    34.641774   0.13318536 
   44000   -941.29569    46.075938   -895.21975     1650.273    -6836.176    2.1431036    32.288514   0.14433082 
   44100   -944.38109    50.223416   -894.15767    1798.8206    12762.882    2.1973937    35.552982   0.14930208 
   44200   -936.85349    52.028277   -884.82521    1863.4642    5569.7489    2.1584209    37.296718   0.14165296 
   44300   -944.07644    51.728698   -892.34774    1852.7344   -13725.624    2.1318565    38.298406   0.13531499 
   44400   -944.29604    48.995916   -895.30013     1754.856    2609.0368    2.1727205    35.670401   0.13136713 
   44500    -941.5599    51.116697    -890.4432    1830.8147    10786.284    2.1877793    35.695777   0.14866768 
   44600   -935.37631    47.366154   -888.01016    1696.4838   -6597.9217    2.1347435    35.486541   0.17369592 
   44700   -944.93975    46.824371   -898.11538    1677.0792   -4416.6856    2.1629363    38.042432    0.1473975 
   44800   -941.60517    48.663211   -892.94196    1742.9397    6788.1873    2.1824706    38.201868   0.15512854 
   44900   -942.68335    52.226131   -890.45722    1870.5506   -2510.3175    2.1597397    37.088194   0.14198225 
   45000   -948.70274    48.830505   -899.87224    1748.9316   -11161.791    2.1547121    34.584956   0.13317768 
   45100   -942.45269    45.560442   -896.89225    1631.8098      70.3878    2.1701382    38.917985   0.15529681 
   45200    -942.1797    51.520969   -890.65873    1845.2943    4159.6159    2.1727608     34.38082   0.15322238 
   45300   -940.16398    44.679304   -895.48468    1600.2506   -1923.3022     2.154769    35.124296   0.15253737 
   45400    -948.0999    47.927245   -900.17265    1716.5801    -4000.865    2.1714331    36.750145    0.1351123 
   45500   -942.73834    52.181763   -890.55658    1868.9615     1148.914    2.1665896    38.417448   0.13343987 
   45600   -941.89088    48.281791   -893.60909    1729.2786   -163.59744    2.1657619    35.460072   0.14668959 
   45700   -947.13765    47.875584   -899.26207    1714.7298   -1509.2497    2.1715324    37.523052   0.13846642 
   45800   -944.81854    54.390239    -890.4283    1948.0611    657.34753    2.1683543    34.767872   0.14425246 
   45900   -941.58007    51.299044   -890.28102    1837.3457    2969.6406     2.170451    35.619034   0.15141882 
   46000   -945.12975    48.862137   -896.26761    1750.0645   -4526.6678    2.1616224     35.39546   0.14092052 
   46100   -942.11513    48.842206   -893.27292    1749.3507    1143.1448     2.168624    36.831356   0.16413384 
   46200   -939.15883    52.199072   -886.95976    1869.5815   -438.87604    2.1563467    36.679561   0.14695951 
   46300   -942.61868    47.290129   -895.32855    1693.7609    131.55684    2.1678104    34.257592   0.14544598 
   46400   -939.49594    45.598979   -893.89696    1633.1901    841.90411    2.1679176    33.785875   0.14676297 
   46500   -939.05541    53.410369   -885.64504    1912.9657   -1598.0168    2.1518044    38.584424    0.1248235 
   46600   -946.58448     51.03481   -895.54967    1827.8818    -306.9093    2.1738045    33.341739    0.1387094 
   46700   -939.54565    44.831815   -894.71384     1605.713    668.34152     2.165881    35.677932   0.15532197 
   46800   -938.37911    50.699367   -887.67974    1815.8675   -278.06476    2.1520103    31.645628   0.17009387 
   46900   -942.80924    46.599557   -896.20968    1669.0271    2527.5802    2.1746749    37.195224   0.16132391 
   47000   -945.34098    48.970146   -896.37083     1753.933   -4242.8875     2.164238    32.348286   0.15581871 
   47100   -940.26813    49.890251   -890.37788    1786.8879    121.63636    2.1587227    34.164365   0.14176184 
   47200    -944.8282    51.502197     -893.326    1844.6219    583.71086     2.173107    34.334255   0.14146435 
   47300   -946.35447       47.254   -899.10047    1692.4669   -185.61796    2.1735685    34.407532   0.13146534 
   47400   -942.38808    50.233821   -892.15426    1799.1933   -2892.3684    2.1555327    36.306794   0.14625414 
   47500   -936.79851    47.053383   -889.74512    1685.2815    4598.7962    2.1646378    26.410675   0.15807352 
   47600   -948.46823    48.872614   -899.59562    1750.4398    605.41669     2.181725    28.729371   0.13655002 
   47700   -942.38457    48.620013   -893.76456    1741.3925   -10511.344    2.1442431    23.555529   0.16205088 
   47800   -936.53158    45.523368   -891.00821     1630.482    4639.2022    2.1684171    19.684901   0.16641632 
   47900   -942.98587    47.076568    -895.9093    1686.1119    8310.3971    2.1874469    20.485138   0.16397955 
   48000   -943.64885    42.755271   -900.89357    1531.3388    -4349.962    2.1593336    19.943721   0.14532536 
   48100   -940.37029    50.015594   -890.35469    1791.3772   -5324.2681    2.1478529    20.347535   0.13380217 
   48200   -940.42308    48.677032   -891.74605    1743.4348    12757.915    2.1942027    21.930162   0.14421375 
   48300   -945.07141    48.452472   -896.61894    1735.3918   -2599.0241    2.1650481    22.896191   0.14304825 
   48400   -937.79328    50.227519   -887.56576    1798.9676   -9389.9293    2.1292185     23.50535    0.1379465 
   48500   -938.37108    49.246187    -889.1249    1763.8198    7821.1696    2.1768915    22.688039   0.15303095 
   48600   -942.35447     47.88456   -894.46991    1715.0513    1409.1017    2.1716549    20.106136   0.14543688 
   48700   -940.77947    47.046707   -893.73277    1685.0424   -6566.6243    2.1455876    20.497881   0.14758605 
   48800   -942.68656    58.014064    -884.6725    2077.8534   -3261.1581    2.1522889    20.156596   0.13384362 
   48900   -943.45413    49.418073   -894.03606    1769.9762    7322.3633    2.1841421    20.529389   0.15366124 
   49000   -943.58129     48.35033   -895.23096    1731.7335   -6292.4056    2.1486608     20.78536   0.13684785 
   49100   -940.99059    51.220278   -889.77031    1834.5246    -4825.228    2.1478996      22.2344   0.13723721 
   49200    -944.2806    47.808849   -896.47176    1712.3396    4706.2978    2.1816383    19.149835   0.15402202 
   49300   -942.55057    44.702119   -897.84846    1601.0678    1399.2416    2.1695219    20.912827   0.13583063 
   49400   -940.82611    48.393497   -892.43261    1733.2796   -2420.0419    2.1563409    21.274641     0.151216 
   49500   -938.88554    47.909154   -890.97638    1715.9322    1300.8907    2.1633111    20.290419   0.15940423 
   49600    -945.1641     44.36317   -900.80093    1588.9279     4866.936    2.1839879    21.768886   0.13235973 
   49700   -943.42264    49.994593   -893.42804     1790.625   -4442.1973    2.1544807    22.766042   0.13692504 
   49800   -935.74736    44.059615   -891.68774    1578.0556    3658.4819    2.1598688    19.610137   0.14648937 
   49900   -946.89675    48.074119   -898.82263    1721.8406    2165.6012    2.1810888    21.087221   0.13583968 
   50000   -945.59689    48.786351   -896.81054    1747.3502   -670.02791    2.1705113      22.6639   0.15138918 
   50100   -943.81468    52.883166   -890.93152    1894.0832   -5128.2261    2.1527946    20.796663    0.1500592 
   50200   -944.35593    49.557051   -894.79888    1774.9539   -589.10268    2.1656121    21.797697   0.15716367 
   50300   -945.00268    46.745959   -898.25672    1674.2707    5168.7139    2.1837225    20.845006    0.1370548 
   50400   -937.44537    50.375507   -887.06986     1804.268   -4686.4339    2.1412929     20.81183    0.1511507 
   50500   -944.45114     51.79173   -892.65941    1854.9919   -2869.9786    2.1589258    21.951323   0.12200732 
   50600    -944.3497    49.661614   -894.68809    1778.6989    11124.704    2.1961915    22.125729   0.14765489 
   50700   -938.94188     45.27768    -893.6642    1621.6823   -3164.7924    2.1496528    20.824956   0.16046268 
   50800   -934.56145    48.010346   -886.55111    1719.5565   -13546.246    2.1152688    24.670623   0.18401102 
   50900   -941.33059    49.391385   -891.93921    1769.0203    11134.551    2.1891558    14.950829   0.16864189 
   51000   -945.58457    52.288544   -893.29603     1872.786    7222.6051    2.1872898    12.709921   0.17009306 
   51100   -939.57181    53.112945   -886.45887    1902.3131   -14015.587    2.1238638    16.297269   0.18522194 
   51200   -940.17575    49.863646    -890.3121     1785.935    -5467.173    2.1469497    3.8042879   0.17015098 
   51300   -942.18808    48.392491   -893.79559    1733.2435    8326.1195    2.1885835    12.182893   0.16890365 
   51400   -940.99763    49.475748   -891.52188    1772.0419   -2212.6735    2.1575898    18.776029   0.17346333 
   51500   -936.50031    50.205715    -886.2946    1798.1866    -4957.113    2.1409653    12.137152   0.18595316 
   51600    -942.4925    44.836082   -897.65642    1605.8659    10175.588    2.1905035    12.414734   0.17376426 
   51700   -940.37352    46.062643   -894.31088    1649.7968    2661.1475    2.1659524     11.68801   0.17123039 
   51800   -942.51567    52.248159   -890.26751    1871.3396   -7049.4727     2.144149    13.573219   0.15328141 
   51900   -939.57869    50.409733   -889.16895    1805.4938    1904.7301    2.1645401    11.451339   0.17550975 
   52000   -944.34106     46.12583   -898.21523    1652.0599    8534.2113    2.1907225    11.761867   0.16807285 
   52100   -943.94913    51.150102   -892.79903    1832.0112   -10165.702    2.1429183    13.131383   0.18543022 
   52200    -939.4922    49.845343   -889.64686    1785.2794   -2702.6865    2.1486089    6.0948979   0.15475763 
   52300   -943.98334    46.087904   -897.89544    1650.7016    10453.443    2.1943351    5.4848046   0.17040935 
   52400     -939.535    45.282918   -894.25208    1621.8699    1532.7184    2.1597727    6.4155378   0.17131285 
   52500    -938.8672     48.83074   -890.03646      1748.94   -11701.794    2.1235052    12.409282   0.16325764 
   52600   -941.30392    48.235378   -893.06854    1727.6163    8778.1812    2.1842878    15.010046    0.1348952 
   52700   -945.99555    49.453805   -896.54175    1771.2559    15221.494    2.2085562    18.001058   0.14038061 
   52800   -939.84211    51.667273   -888.17483    1850.5343   -19380.031    2.1068192    22.814236   0.16107896 
   52900   -941.75357    51.278567     -890.475    1836.6123   -3852.1822    2.1513233    20.910015   0.16571725 
   53000   -946.23806    52.523596   -893.71446    1881.2047    11813.184     2.198938     21.02011   0.15666578 
   53100   -942.61339    47.836875   -894.77652    1713.3434   -2632.9723    2.1592511    25.448723   0.13928935 
   53200   -937.29568    52.231291   -885.06439    1870.7354   -9582.0397    2.1265154    24.811219   0.15773009 
   53300   -947.89435    53.185622   -894.70873    1904.9161    5426.6434    2.1884737    22.066268   0.13335024 
   53400   -940.99587    45.964451   -895.03142      1646.28    2178.4314    2.1672181    21.617165   0.16612673 
   53500   -938.90453    48.526254   -890.37828    1738.0344   -6920.4905    2.1387671    25.550106   0.13713433 
   53600   -940.13369    52.162418   -887.97128    1868.2686    2575.3063    2.1594956     23.19167   0.13618768 
   53700   -945.59936    47.810015   -897.78935    1712.3814    9214.8789    2.1946734    22.569921   0.14121072 
   53800   -941.32441    47.423847   -893.90057    1698.5502   -7207.8143    2.1448527    25.230023   0.14186884 
   53900   -941.22211    49.756481   -891.46563    1782.0967   -4699.6504    2.1462496    22.307659   0.16541643 
   54000   -949.69377    49.598182   -900.09559     1776.427    7824.6119    2.1971395    21.359628    0.1460536 
   54100   -945.52599    48.547755   -896.97823    1738.8045   -1249.7136    2.1671678    21.741699   0.13316386 
   54200   -944.85374    52.166631   -892.68711    1868.4195   -8505.3007    2.1472095    20.025345   0.13672983 
   54300   -944.82549    51.129767   -893.69572    1831.2828    507.00571     2.168089    20.417521   0.11769451 
   54400   -945.46313    43.601409   -901.86172    1561.6443    6625.9719    2.1884046    21.142708    0.1471976 
   54500   -941.75966    49.739373   -892.02029     1781.484   -5139.4663    2.1461116    21.673744   0.15433176 
   54600   -940.70253    48.460043   -892.24248     1735.663    1914.4041    2.1655944    22.736285   0.14139555 
   54700   -947.56438    51.554085   -896.01029    1846.4804    456.69887     2.175829    20.240644   0.14294007 
   54800   -947.83586    47.938805   -899.89706    1716.9942   -4202.9323    2.1657559    18.219344   0.13311809 
   54900   -939.77868    50.042901   -889.73578    1792.3552    287.16774    2.1603841     23.36351   0.15156619 
   55000   -941.94222    51.237143   -890.70508    1835.1286    2635.2232    2.1674583    21.626282   0.15202635 
   55100   -942.38691     48.84066   -893.54625    1749.2953   -3253.6922    2.1559933    19.094108   0.12998929 
   55200   -946.32225    50.506372   -895.81588    1808.9551   -4631.7677    2.1629748    18.701117   0.13476878 
   55300   -949.54268    45.315291   -904.22739    1623.0294    1026.1324    2.1837484      19.8267   0.11798146 
   55400   -948.28457    49.285777   -898.99879    1765.2378    -1632.563    2.1715472    19.486616   0.13330157 
   55500   -939.03947    44.688192   -894.35128     1600.569    2721.6696    2.1676262    20.026162   0.15778205 
   55600   -941.30133    48.640476   -892.66085    1742.1255   -1118.5513    2.1614884    18.864061   0.15753894 
   55700   -939.33899    49.109882   -890.22911    1758.9379    1093.1686    2.1584408    19.417593    0.1355642 
   55800    -942.0663     44.03155   -898.03475    1577.0505    2099.6158    2.1717488     17.77856   0.13099358 
   55900   -944.69964    45.762244    -898.9374    1639.0376   -3176.4009    2.1644936    21.056321   0.12998602 
   56000   -941.50437    46.963348   -894.54102    1682.0568    6171.5185    2.1831148    21.925018   0.14906243 
   56100   -942.89735    51.524598   -891.37275    1845.4242   -869.42661    2.1641837    21.252317   0.16284775 
   56200   -940.55888    51.437697   -889.12119    1842.3118   -11714.646    2.1339411    19.737121   0.14089669 
   56300   -945.85321     46.13852   -899.71469    1652.5145    11576.731    2.2020111    19.180065   0.12572264 
   56400   -941.00695    47.288722   -893.71822    1693.7105    6262.5918     2.181262    20.308743   0.13660223 
   56500   -940.14695    47.377219   -892.76973    1696.8802   -12107.468    2.1292578    20.447227    0.1614367 
   56600   -944.60934    53.787704   -890.82163    1926.4805    1172.1375     2.165854    20.431927   0.14923999 
   56700   -950.25183    48.438795   -901.81303     1734.902    11717.992    2.2131357    21.572473   0.15598138 
   56800   -944.38539     47.85549    -896.5299    1714.0101   -10229.855    2.1460718    21.666233   0.14597589 
   56900   -941.25444    47.974986   -893.27945      1718.29   -4097.1548     2.157833    22.949243   0.15294839 
   57000   -942.00991    50.999301   -891.01061      1826.61    8492.4221    2.1851974    20.468495   0.14834209 
   57100   -947.05353    50.008892   -897.04464    1791.1372   -5438.6592    2.1654097     22.73346   0.14865729 
   57200    -945.8123    45.946199    -899.8661    1645.6262    -5702.484    2.1667179    20.479188   0.14300682 
   57300   -942.85083    49.334619   -893.51621    1766.9872     5744.664    2.1830285    20.863681   0.16089237 
   57400   -942.19624    50.569578   -891.62666    1811.2189    604.68026    2.1679555    18.797337   0.15640681 
   57500   -941.41661    44.975153   -896.44146    1610.8469   -5269.3772    2.1562944     21.48773   0.15446556 
   57600   -948.12716    48.882786   -899.24438    1750.8041    3690.1088    2.1871011    24.291838   0.14758311 
   57700   -943.25522    51.750138   -891.50508    1853.5023    6029.5611    2.1831046    16.810361   0.15728659 
   57800   -940.24152    48.559237   -891.68228    1739.2158   -6572.9622    2.1479875    2.3161225   0.17145425 
   57900   -942.69934    46.947233   -895.75211    1681.4796   -6362.5406    2.1560023    5.8645205   0.16706261 
   58000   -944.51639     45.62546   -898.89093    1634.1385    12692.698    2.2011038    6.5791948   0.15406664 
   58100   -941.25516    50.182492   -891.07267    1797.3549    1863.0956    2.1662844    2.2339944   0.17417736 
   58200   -938.92393    46.643568   -892.28036    1670.6034   -6970.9848    2.1399994    5.6929168   0.17926823 
   58300   -946.32858    46.837792   -899.49079    1677.5598     4037.604    2.1820373    5.9069245   0.16023466 
   58400   -943.03363    48.592612   -894.44101    1740.4111    5839.2876    2.1825421    4.4372159   0.14985376 
   58500   -941.28033    50.573931    -890.7064    1811.3748   -6079.5656    2.1487735    2.2115807   0.15523303 
   58600   -943.76924    50.692835    -893.0764    1815.6335   -5838.5001    2.1571264    4.6472206   0.17251927 
   58700   -945.40564    45.231311   -900.17433    1620.0215    505.74745    2.1823818    6.6505442   0.19571839 
   58800   -937.98597    47.206642   -890.77933    1690.7707   -225.68529    2.1616131    7.1086264   0.19116479 
   58900   -941.79935    51.332192   -890.46716     1838.533   -389.74704    2.1614612    4.6199421   0.16112499 
   59000   -940.97814    46.624826   -894.35331    1669.9322    110.04414    2.1594263    8.9079501   0.14644325 
   59100   -939.51992    47.579667   -891.94026    1704.1311     4776.158    2.1691246    4.3097362     0.159463 
   59200   -934.74851    49.962069   -884.78644    1789.4601   -1672.6015    2.1462129    6.5880607   0.17734503 
   59300   -938.89407    46.128669    -892.7654    1652.1617   -5172.0803    2.1479194    6.0458854   0.19343086 
   59400   -944.28757    51.352315   -892.93525    1839.2537    4255.6748    2.1760123     4.816839   0.16480934 
   59500   -937.95407    47.602092   -890.35198    1704.9343    6258.7166    2.1713752    3.5062193   0.16899406 
   59600   -933.18424    49.421684   -883.76255    1770.1055     -11677.6    2.1151686     3.893014   0.16889275 
   59700   -938.35197    44.727763    -893.6242    1601.9863     6849.519    2.1727772    6.5720621   0.17521292 
   59800   -939.14852    47.249668   -891.89885    1692.3118    14466.267    2.1961554    5.6236278    0.1540066 
   59900   -941.38346    49.676272   -891.70719    1779.2239   -8602.1229    2.1376608     7.789871   0.18170133 
   60000   -947.83763    45.441918   -902.39572    1627.5647   -4171.5084    2.1625009    5.1882832   0.14690796 
   60100    -943.3904    47.310608   -896.07979    1694.4944    3204.7143    2.1761742     4.861199   0.14640084 
   60200   -940.20447    48.527467     -891.677    1738.0779   -255.34359    2.1564187    6.3497694   0.13859613 
   60300   -940.39704    47.477853   -892.91919    1700.4845   -2862.7089    2.1481106    7.1783684   0.16288859 
   60400   -944.62275    43.826792   -900.79596    1569.7168    3528.5488    2.1791272    6.3312673   0.15307384 
   60500   -936.06621    45.518636   -890.54757    1630.3125    2530.7499    2.1580952    7.8528038   0.16975316 
   60600   -940.21616    48.899705   -891.31646    1751.4101   -92.155136      2.15709    4.2187806   0.15005134 
   60700   -942.98877     44.79528   -898.19349    1604.4045    1292.9255    2.1700922    3.5075103   0.14262182 
   60800   -936.32713    46.712793   -889.61433    1673.0828    4635.2199    2.1540146    7.8823652   0.17407182 
   60900   -936.33228    46.577427   -889.75486    1668.2345    4999.6683    2.1645268    6.6268766   0.16590135 
   61000   -941.06521    45.724343   -895.34086    1637.6802   -1417.6509    2.1593449    13.049448   0.15814482 
   61100   -942.43699    47.340195    -895.0968    1695.5541   -4436.1896    2.1554182     16.52185   0.14304491 
   61200   -937.00647    51.183814   -885.82266    1833.2186    239.15239    2.1528894     15.89356   0.15809402 
   61300   -942.37041    50.028155   -892.34226    1791.8271    5345.7194    2.1765747    14.877793    0.1524803 
   61400   -942.53152    46.839936   -895.69159    1677.6366   -5808.7706    2.1529126    15.215947    0.1520041 
   61500   -939.81342    52.179627   -887.63379     1868.885   -3141.2797    2.1474545    16.457412   0.14365527 
   61600   -940.95452    52.596403   -888.35812    1883.8124    6567.6944    2.1764884    12.952485   0.15312938 
   61700   -943.03812    48.135774   -894.90235    1724.0489   -3727.1737     2.159882    13.953825   0.12404249 
   61800   -940.09778    46.513863   -893.58391    1665.9579   -3390.4613    2.1530317    12.922797   0.13531915 
   61900    -939.2962    53.541667   -885.75453    1917.6684    4467.0044    2.1666226    14.920212   0.13755639 
   62000   -946.06628     54.49774   -891.56854    1951.9114   -1960.4954    2.1649516    16.704902   0.13976708 
   62100   -943.10876    47.425352    -895.6834    1698.6041    -9751.903    2.1411346    16.058966   0.15443875 
   62200   -941.12207     49.63857    -891.4835    1777.8736    4723.4463    2.1735914    14.820893   0.14758104 
   62300   -942.24687    48.698444   -893.54842    1744.2017    5621.6694    2.1748126    13.054257   0.15844152 
   62400   -945.14962    44.256253   -900.89337    1585.0985   -4871.1584    2.1620702    14.759476   0.13819694 
   62500   -942.19939     48.67815   -893.52124    1743.4748   -4758.2189    2.1496145     14.76063   0.15436718 
   62600     -939.997    49.112865   -890.88414    1759.0447    6546.8726    2.1742495     13.56138   0.17380527 
   62700   -944.64429    46.181043   -898.46325    1654.0375    3264.9857    2.1791758    10.953948   0.16846798 
   62800   -945.62907     48.81406   -896.81501    1748.3426   -12723.113    2.1419291    12.972257   0.16688887 
   62900   -941.94534    51.658579   -890.28676     1850.223    1484.1977    2.1673867    11.642578   0.17207562 
   63000   -940.24753    48.656073   -891.59146    1742.6841    11457.277    2.1892638    12.296972   0.17723497 
   63100    -941.9849    44.468473   -897.51642    1592.6994   -7347.7427    2.1468578    20.126001   0.19665044 
   63200   -939.89321    51.655543   -888.23767    1850.1142   -9320.4921    2.1370938    11.234685   0.18589335 
   63300   -944.50285    56.600786   -887.90206    2027.2349    15640.425     2.207877    12.493399   0.18208727 
   63400   -939.96424    46.005084   -893.95916    1647.7353   -3938.1013    2.1578451    27.866384   0.17119798 
   63500   -941.49508    47.584023   -893.91106    1704.2871   -12411.764    2.1361268    30.746593   0.14347051 
   63600   -943.81053    55.370711   -888.43982    1983.1781    7697.4585    2.1843697    28.706036   0.14496794 
   63700   -936.55095    51.043813   -885.50714    1828.2043    3945.6603    2.1588363    28.493869   0.18215427 
   63800   -941.24582    47.000351   -894.24547    1683.3821    -4736.608    2.1538372    31.223282   0.18356729 
   63900   -942.66108    49.066218   -893.59486     1757.374    968.22809    2.1734126    27.409742   0.16842788 
   64000   -939.47644    50.145572   -889.33086    1796.0325    6279.3522    2.1730212    30.316536   0.16111354 
   64100   -936.01944    51.970042    -884.0494    1861.3784   -7311.3252    2.1331381    33.825027   0.13914633 
   64200   -942.19839    48.005102   -894.19329    1719.3687    217.04955    2.1675741    33.182493   0.13285551 
   64300   -946.81711     53.61899   -893.19812    1920.4378     3670.449    2.1841412    32.116845   0.13764037 
   64400   -944.00906    51.873154   -892.13591    1857.9082   -4697.8818    2.1536169    25.553368   0.14226552 
   64500   -937.70258    57.487316   -880.21527    2058.9872   -7056.8603    2.1313013    30.251172   0.16491209 
   64600   -941.54255    52.243032   -889.29952    1871.1559    8096.0929    2.1884359    32.423339   0.17445522 
   64700   -939.82282    46.923552   -892.89927    1680.6314   -5288.5032    2.1544258    32.774001   0.16236676 
   64800   -942.34868    47.256861   -895.09182    1692.5694   -8371.5338    2.1446767     34.66835   0.16410353 
   64900    -945.5952    50.589124   -895.00607     1811.919    7474.7795    2.1927917    30.136488   0.13975561 
   65000   -938.05642    53.035113    -885.0213    1899.5254   -4268.4872    2.1502112    34.380554   0.14677657 
   65100   -935.83392    43.394815   -892.43911    1554.2449   -2271.4656    2.1508961    31.622862   0.13912296 
   65200   -941.67949    46.935943   -894.74355    1681.0753    2350.6898    2.1726938    32.625263    0.1496962 
   65300   -943.76676    50.644191   -893.12257    1813.8913    1726.5805    2.1731528    27.984193   0.13706284 
   65400   -938.13617    52.838054   -885.29811    1892.4675   -7808.6347    2.1356706    33.939915   0.17193625 
   65500    -939.9631    46.154705   -893.80839    1653.0942    2970.0603    2.1694926    28.363964   0.15879935 
   65600   -941.05446     46.87661   -894.17785    1678.9502    5671.5793    2.1752714    33.711229   0.14927555 
   65700   -936.94058    50.471329   -886.46926       1807.7   -1211.7043    2.1483078      31.0776   0.15591923 
   65800   -944.45889    54.434355   -890.02454    1949.6412   -7133.7878    2.1457788    32.191199   0.13145672 
   65900   -946.94128    51.896972   -895.04431    1858.7613    2557.9342    2.1763273    27.953383   0.13645394 
   66000   -942.81038    50.895463   -891.91492    1822.8909    4229.7058    2.1766997     30.87024   0.14611781 
   66100    -939.1939    51.707014   -887.48688    1851.9577    -8753.483    2.1373206    26.772506   0.15227263 
   66200   -945.75672    47.200268   -898.55645    1690.5424    426.95929    2.1763691    27.951053   0.14659975 
   66300    -947.0587    51.121568   -895.93714    1830.9892    2839.2705    2.1811261    30.732266   0.15121706 
   66400   -939.99834    47.519441    -892.4789    1701.9741   -3234.4143    2.1533671    34.578567   0.15390815 
   66500   -937.22673    47.082765   -890.14397    1686.3339   -2722.6173    2.1484276    33.764171   0.16753753 
   66600   -948.36089    47.914449   -900.44644    1716.1218    14642.775    2.2145182    30.693085   0.14462973 
   66700   -942.97023    49.238325   -893.73191    1763.5382   -5394.4554    2.1551048    32.701057   0.13975616 
   66800   -938.26077    45.546997   -892.71377    1631.3283   -10171.287    2.1325627    29.682722   0.15058287 
   66900   -945.24825    51.525174   -893.72308    1845.4449    8614.2844    2.1948112     29.13865    0.1554972 
   67000   -947.98152    45.963965   -902.01755    1646.2625    5549.2488    2.1984214    28.310362    0.1479842 
   67100   -940.81965    48.619534   -892.20012    1741.3754   -14257.049    2.1308122    28.259931   0.15748221 
   67200   -941.63852    49.481038   -892.15748    1772.2314    1380.6318    2.1709997     32.79288   0.15292475 
   67300   -939.42466    42.819919   -896.60475    1533.6542    10199.576    2.1943335    34.236337   0.14027162 
   67400   -936.56219     47.28078   -889.28141    1693.4261   -1248.7909     2.154358     33.23345    0.1577238 
   67500   -935.73097    46.762855   -888.96811    1674.8759   -2135.4173    2.1490892    31.800671   0.15019933 
   67600   -939.92012    45.574159   -894.34596    1632.3011    4408.8147    2.1764939    32.410212   0.15383522 
   67700   -943.29496    47.912274   -895.38269    1716.0439    2586.1143    2.1771671    27.992672   0.12864995 
   67800   -939.47639    54.298488    -885.1779    1944.7749   -7390.4415    2.1383873    30.465806   0.15781779 
   67900   -942.20107    48.275374    -893.9257    1729.0488    3849.3276    2.1790518    29.284482   0.14264658 
   68000   -942.93641    48.040449   -894.89596    1720.6347    2495.3353    2.1752655    31.095332   0.15407682 
   68100   -937.95037     49.78313   -888.16724    1783.0512   -5691.8159    2.1425557    31.611942   0.18546591 
   68200   -938.11267    49.197839   -888.91483    1762.0882    1428.9472    2.1581903    32.186916   0.15108425 
   68300   -943.21809    48.418034   -894.80006    1734.1584    11507.951    2.1941532    30.629934    0.1439163 
   68400     -944.637    52.081852   -892.55515    1865.3831   -5694.6035     2.153863    29.477464   0.15109593 
   68500    -936.0247    47.350562   -888.67414    1695.9254   -11477.924    2.1190959    32.130721   0.14059755 
   68600   -946.39016    47.092289   -899.29787     1686.675    16062.673    2.2138261    29.710462   0.13984469 
   68700   -943.31944    49.936882   -893.38255     1788.558    6173.9861    2.1814595    32.874722   0.13897736 
   68800   -936.55995    44.379775   -892.18017    1589.5226   -9759.2635    2.1282298    29.465438   0.14533507 
   68900   -944.93162    49.971988   -894.95963    1789.8154   -1948.0465    2.1679868    33.134602   0.15335375 
   69000   -945.26451    45.148607    -900.1159    1617.0594    13140.376    2.2067681    31.316395    0.1416779 
   69100   -940.27958    49.318428   -890.96115    1766.4072   -6997.1774     2.141949    33.333196   0.16117506 
   69200   -942.32903    49.237335   -893.09169    1763.5028   -5447.3451    2.1514142    27.412488   0.13907135 
   69300    -943.0317    45.093248   -897.93845    1615.0766    9438.4863    2.1934191    31.409765   0.13438998 
   69400   -940.72805    52.220811   -888.50723    1870.3601   -1527.9419    2.1598448     27.82131   0.14430703 
   69500   -939.72848    49.263364   -890.46512     1764.435   -2499.0849    2.1522046    29.016409   0.12442149 
   69600   -945.54291    49.605018   -895.93789    1776.6719   -1624.1937    2.1689907    29.417946   0.14621681 
   69700   -941.91089    47.780569   -894.13032    1711.3267    4592.8092    2.1781354     29.86156   0.14724529 
   69800   -935.91366    49.389912   -886.52374    1768.9675   -6245.9984    2.1368969     34.55804   0.15778922 
   69900   -942.77453    46.993716   -895.78081    1683.1445   -3337.6874    2.1604945    31.179195   0.14466145 
   70000   -946.49823    53.082071   -893.41615    1901.2073     6376.473    2.1896368     28.04536   0.14089376 
   70100   -938.93045    52.650872   -886.27958    1885.7633   -793.15517    2.1542732    32.982145   0.15028586 
   70200   -942.40306    49.685324   -892.71774    1779.5481   -13267.664    2.1325822    27.616195    0.1489643 
   70300   -942.23864    46.815432   -895.42321     1676.759    4878.7164    2.1817769    30.371412   0.15102473 
   70400   -942.41774    53.148021   -889.26971    1903.5694    15666.275    2.2058009    30.495283   0.15189684 
   70500   -944.43978    51.468638   -892.97114      1843.42   -16004.134       2.1274    33.321254   0.13910231 
   70600   -946.08822    45.122354   -900.96586    1616.1191   -5947.9725    2.1614559    30.256314    0.1511241 
   70700   -945.66618    53.527508   -892.13867    1917.1612    8149.0348    2.1959646    34.073828   0.17221272 
   70800   -939.80102     47.63728   -892.16374    1706.1946    341.03287    2.1661174    29.187272   0.18365678 
   70900   -943.37453    44.643478   -898.73105    1598.9675   -7255.1187    2.1550677    34.084112   0.17507279 
[...]
   86800   -947.61315    46.299674   -901.31347    1658.2864    7889.9861    2.1971722    43.213269   0.13377644 
   86900   -944.94446    51.070662    -893.8738    1829.1659     5698.654    2.1828994    47.557986   0.13161025 
   87000    -935.8524    43.220711   -892.63169    1548.0091   -6730.6666     2.135672    50.008455   0.15158452 
   87100   -940.46917    47.663926   -892.80524     1707.149   -257.05433    2.1602612    46.052401   0.15013415 
   87200   -947.59934    46.441538    -901.1578    1663.3675    13766.368    2.2116945    43.225438    0.1394621 
   87300   -940.02277    47.563243   -892.45953    1703.5429   -4439.0354    2.1500295    44.023876    0.1598089 
   87400   -938.32554    45.625882   -892.69965    1634.1536   -3501.1151     2.148226     46.08058   0.17253894 
   87500   -942.95285    46.602649    -896.3502    1669.1379    8667.3097    2.1917771    51.839676   0.14767944 
   87600    -946.3055    42.713397    -903.5921     1529.839    2455.7643    2.1848745    50.374946   0.13436256 
   87700   -944.16329    51.280612   -892.88267    1836.6856   -12388.245    2.1383291    46.968766   0.12992032 
   87800   -943.59992    50.767512   -892.83241    1818.3082    4159.2886    2.1777837    46.492778    0.1335758 
   87900   -944.48357    50.415959   -894.06761    1805.7168    2745.1155    2.1780091    42.821409   0.15552936 
   88000   -937.53951    53.770971   -883.76854    1925.8812   -9574.8299    2.1272191     39.60533   0.18735226 
   88100   -943.94071    50.815149   -893.12556    1820.0144   -219.09801    2.1659222    36.963384   0.17495661 
   88200   -942.02558    49.077153   -892.94843    1757.7656    4017.0824    2.1735345    39.031128   0.17280063 
   88300   -940.07506    50.903681   -889.17138    1823.1853   -4264.9215    2.1544539    26.016411   0.17371264 
   88400   -936.13661    53.129129   -883.00748    1902.8927   -5167.0278    2.1390077    33.696687   0.19290496 
   88500   -942.17543     48.56179   -893.61364    1739.3072    6651.4325    2.1838791    34.213988   0.16847145 
   88600   -944.61062    52.485861   -892.12476    1879.8532    351.98517    2.1661556     35.25319    0.1728365 
   88700   -939.66333    49.129844   -890.53349    1759.6529   -3963.7912    2.1462259    31.756689   0.17895633 
   88800   -947.11005    46.870936   -900.23911     1678.747   -332.30357    2.1806488    42.122936   0.17195963 
   88900   -945.36415    47.895033   -897.46912    1715.4264    453.53179    2.1741024    48.913816   0.16547101 
   89000   -939.85065    47.505394   -892.34526    1701.4709   -311.43709    2.1589147    19.302846   0.14403837 
   89100   -938.70164    48.724246   -889.97739    1745.1258      -2820.4    2.1547687    23.062833   0.17819649 
   89200   -945.27298    46.492364   -898.78062    1665.1879    1545.6601    2.1783295    14.844658   0.14165504 
   89300   -945.85558    48.317116   -897.53847    1730.5439   -2842.2873    2.1645442    17.361589   0.14265167 
   89400   -938.90559    47.015257   -891.89033     1683.916     1945.438    2.1658939    13.147575   0.13508945 
   89500   -942.69735    50.362824   -892.33453    1803.8137    3449.3482    2.1716907    15.670409   0.13874582 
   89600   -946.85256    45.060237   -901.79233    1613.8943   -3325.4905    2.1716747     15.30883   0.14908247 
   89700   -941.80111    48.091019   -893.71009    1722.4459    -1605.558    2.1570045    14.608757   0.15363059 
   89800   -941.39753    50.366286   -891.03125    1803.9377    4584.2169    2.1734692    14.321928   0.15093382 
   89900   -947.51557    48.641664   -898.87391     1742.168   -709.00018    2.1742192    12.848065   0.13854618 
   90000   -947.32258    50.750024   -896.57256    1817.6818   -7274.9214    2.1561617     16.00837   0.13810488 
   90100   -941.84506      51.0757   -890.76936    1829.3463    2013.7904    2.1664158    15.708286   0.14641336 
   90200   -944.07066    49.708366    -894.3623    1780.3734    3605.6037    2.1750331    15.231567   0.14408297 
   90300   -949.08046    48.893725   -900.18674    1751.1959   -5158.8536     2.163452    14.850324   0.13869753 
   90400   -945.89674    54.177138    -891.7196    1940.4286    -2607.864    2.1634637    14.843711   0.13736866 
   90500   -942.93911    52.394403    -890.5447    1876.5775    7017.9303    2.1813367    14.695077   0.13486369 
   90600    -946.0195    51.078928   -894.94057    1829.4619   -6849.0193    2.1528853    15.080326   0.13053948 
   90700     -940.821    49.378134   -891.44287    1768.5457   -4357.5705    2.1526982    12.145317   0.14601048 
   90800   -938.98832    54.013793   -884.97452    1934.5782      3655.51    2.1643272    15.176999   0.16402022 
   90900   -943.43604    50.199651   -893.23638    1797.9695    1992.3512    2.1672642    14.773281   0.14212714 
   91000   -943.70086    48.728548   -894.97231    1745.2799   -5445.3943    2.1532875    15.209768   0.14491639 
   91100   -937.60199     50.76601   -886.83598    1818.2544    1399.4559     2.162646     16.58382   0.15883607 
   91200   -943.39911    53.441745   -889.95737    1914.0895    2986.8054    2.1731558    17.622365   0.15095458 
   91300   -943.67252     48.27384   -895.39868    1728.9939   -10997.932    2.1421585    15.585269   0.13480907 
   91400   -937.65115    45.148801   -892.50235    1617.0663     2686.708    2.1632069    15.090265   0.13920331 
   91500   -940.95905    53.152168   -887.80688    1903.7179    12272.532     2.192201     13.74219   0.13394576 
   91600   -934.57844    50.797799   -883.78064    1819.3929   -10881.818    2.1185337    15.939194   0.15803406 
   91700    -941.0879    46.105053   -894.98285    1651.3158   -3359.5571     2.154275    16.117117   0.14794428 
   91800   -944.10047    51.526645   -892.57382    1845.4976    13865.245     2.199036     15.70245    0.1498153 
   91900   -942.92347    49.499121   -893.42435     1772.879   -2774.2274    2.1588214    16.143362   0.15834474 
   92000   -936.61033     53.52243    -883.0879    1916.9793    -8182.269    2.1286921     15.93314   0.16332398 
   92100    -945.3538    53.168985   -892.18481    1904.3202    3982.5966    2.1769572    17.080699   0.14011366 
   92200   -944.05299     49.89484   -894.15815    1787.0522   -1713.8318    2.1619637    14.325731   0.13970556 
   92300   -942.93532    49.901037   -893.03429    1787.2742   -5280.3822    2.1546323    14.515932   0.15352696 
   92400   -937.22217    53.776951   -883.44522    1926.0954    4776.0979    2.1624007    15.831487   0.15340752 
   92500   -941.95851    51.666627   -890.29188    1850.5112    820.60862    2.1605476    20.350486   0.16968275 
   92600    -945.2108    50.958143   -894.25266    1825.1359   -7117.6124    2.1499609    17.829695   0.17058719 
   92700   -942.53982    53.206121   -889.33369    1905.6503    3044.3331    2.1709541    27.200148   0.16815623 
   92800   -939.20097    56.264247   -882.93673    2015.1813   -1035.7647    2.1574604    25.591979   0.17537161 
   92900   -944.11958    50.030266   -894.08931    1791.9027   -3815.9512    2.1609889    33.502313      0.16877 
   93000   -941.05974    47.759904   -893.29983    1710.5865    -1808.515    2.1611561    27.400485   0.17210351 
   93100   -937.62086     48.94238   -888.67848    1752.9386    6804.8939    2.1765041    24.719439   0.15521759 
   93200      -937.55    52.020353   -885.52965    1863.1804   -6363.3311    2.1389999     26.71689   0.16656441 
   93300   -948.91886    52.067293   -896.85156    1864.8616   -2004.6629    2.1718483    30.109265   0.13799035 
   93400   -940.88798    47.173954   -893.71403       1689.6    11314.393    2.1949979    31.862591   0.15565886 
   93500   -940.46926    47.747453   -892.72181    1710.1406   -7565.8958    2.1461189    29.623393   0.17060591 
   93600   -935.00249    49.186189    -885.8163    1761.6709   -5903.9495     2.133271    30.913807   0.17629538 
   93700    -945.0893    47.989115   -897.10019    1718.7961    15396.626    2.2108692    28.508548   0.14931242 
   93800   -944.84846    49.703396   -895.14506    1780.1954   -5162.2557    2.1581853    29.264286   0.14433853 
   93900   -938.43932    46.185378   -892.25394    1654.1928   -5883.9768    2.1403326    31.757287   0.13505273 
   94000   -941.00623    48.647597   -892.35863    1742.3805    8644.2016    2.1838767    32.833387    0.1466409 
   94100   -951.36234    49.893825   -901.46851    1787.0159    5247.2521    2.1967824    33.265083   0.12417592 
   94200   -944.30907    50.018746   -894.29032    1791.4901   -9543.3321    2.1393659    30.485241   0.13997729 
   94300   -941.15735     49.09365    -892.0637    1758.3565   -1911.3279     2.159323    31.298125   0.15860783 
   94400    -944.4751    46.704016   -897.77109    1672.7685    8420.6669    2.1893461    27.624245   0.15579355 
   94500   -945.95986    44.780614   -901.17925    1603.8792   -403.58199    2.1732793     27.58834   0.15189605 
   94600   -943.44477    51.094543   -892.35023    1830.0213   -5929.2055    2.1496301    30.366343   0.15669068 
   94700   -943.85109    50.358146   -893.49295    1803.6462    665.64707    2.1730802     34.90794   0.13908702 
   94800   -944.41708    46.668455   -897.74863    1671.4948    3897.9915    2.1837632     31.66088   0.13454114 
   94900   -945.58618    42.480074   -903.10611    1521.4822   -3114.2511    2.1681313    33.808784   0.13351576 
   95000   -943.91933    48.772221   -895.14711    1746.8441    722.05142    2.1708954    30.832316   0.13200643 
   95100   -942.16057    49.060577       -893.1    1757.1719    9212.1394    2.1876863    30.378288    0.1638892 
   95200   -941.21749    48.021881   -893.19561    1719.9696   -6361.6956    2.1501013    30.554693   0.16256035 
   95300   -943.81373     49.53867   -894.27506    1774.2955   -7637.5708    2.1545699    30.182317   0.16382749 
   95400   -947.65446    45.294516   -902.35994    1622.2853    10001.411    2.2045064    29.805026   0.14513656 
   95500   -945.67367    49.391684   -896.28199     1769.031   -276.46428    2.1697797    32.278904   0.14612684 
   95600    -942.0518    48.556491   -893.49531    1739.1174   -10095.088    2.1397514    30.228381   0.15460293 
   95700   -941.02154    47.684942    -893.3366    1707.9017    7572.5109    2.1801416    31.434876   0.15943936 
   95800   -947.19372    51.265808   -895.92791    1836.1553    15671.467    2.2126993    31.870945   0.15332151 
   95900   -935.53861    51.790323   -883.74829    1854.9416   -16635.467     2.103753    30.732547   0.15986773 
   96000    -937.5488    48.476175   -889.07263    1736.2408   -572.28714    2.1583306    28.826171   0.14761091 
   96100   -941.29353    49.650002   -891.64353     1778.283    14592.627    2.2031642    32.740068   0.17316619 
   96200   -942.22802    46.512839   -895.71518    1665.9212   -5844.0732    2.1541999    32.273232   0.17887682 
   96300   -939.98754     52.65445   -887.33309    1885.8915   -9515.1036    2.1377625    32.342275   0.17876186 
   96400   -937.31564    48.431473   -888.88417    1734.6397    9298.8587    2.1796167    30.020739   0.16906118 
   96500   -939.53182    45.092875   -894.43895    1615.0633    3448.6478    2.1748519    27.151974   0.15654775 
   96600   -941.56484    47.977658   -893.58718    1718.3857   -6061.7405    2.1493515     30.97315    0.1574698 
   96700   -938.61399    53.141144   -885.47285    1903.3231    1688.8832    2.1621364     30.29055   0.16228625 
   96800   -940.14615     47.80174   -892.34441     1712.085    6386.6991    2.1798073     28.76915   0.15126487 
   96900   -938.72294    43.392763   -895.33018    1554.1714   -6711.8017    2.1454873    33.604632   0.15474986 
   97000   -938.87926    46.589477   -892.28978    1668.6661    2247.2519    2.1672404    30.577669   0.15046639 
   97100   -942.35093     52.18131   -890.16962    1868.9453    8163.0128    2.1898096    30.169846   0.17562931 
   97200   -934.40611    56.286974   -878.11913    2015.9953   -8428.5227    2.1235576    32.102278   0.18191458 
   97300   -941.22298    51.855071   -889.36791    1857.2606    1163.6495    2.1636702    31.159089   0.13664791 
   97400   -940.09598    48.088869   -892.00711    1722.3689    6535.5079    2.1787995    28.609717    0.1495933 
   97500   -942.16385    47.371921   -894.79193    1696.6904   -4105.0287    2.1607168    26.691381   0.16377599 
   97600   -942.39833    50.139921   -892.25841    1795.8302    90.285588    2.1649754    25.343799    0.1423402 
   97700   -937.33338    52.629303   -884.70408    1884.9908   -246.71433    2.1531135    31.638158   0.15615486 
   97800   -943.39376    50.566475   -892.82729    1811.1078   -1030.2724    2.1675046    30.267739   0.15267923 
   97900    -940.6823    46.029032   -894.65327     1648.593    885.39816    2.1696874    32.738733   0.15583581 
   98000    -938.9915    52.005841   -886.98566    1862.6606    2166.7748    2.1563821    58.792429   0.18770739 
   98100   -935.30028     47.19687   -888.10341    1690.4207    1288.7853    2.1577752    57.541621   0.17938511 
   98200   -939.79496     45.85804   -893.93692    1642.4687   -668.41739    2.1613771    60.322608   0.16937181 
   98300   -941.19848     49.69542   -891.50306    1779.9097    2106.0798    2.1682127    59.961154   0.17351422 
   98400   -936.12105    54.275782   -881.84526    1943.9617   -1312.7658     2.142061    59.977252   0.17251424 
   98500   -940.06805    48.630764   -891.43728    1741.7776    3639.1938    2.1672129    89.319951   0.15311518 
   98600   -940.37147    47.213844   -893.15762    1691.0287   -1305.0103    2.1582436    59.594468   0.17263575 
   98700   -938.73983    46.610996   -892.12884    1669.4369    2423.0767    2.1643358    64.675107   0.16806429 
   98800   -933.61298    49.549915   -884.06306    1774.6983    8269.3325    2.1697089    55.918281   0.19139723 
   98900   -939.22799    54.722182   -884.50581    1959.9501   -8032.8555    2.1425836    80.702865   0.17683802 
   99000   -939.49348    47.527234   -891.96625    1702.2532   -14028.666    2.1265756    72.395797   0.17969281 
   99100   -940.92888    51.139346   -889.78953    1831.6259    15941.989    2.2087041    59.393226   0.16032328 
   99200   -943.54925     49.25509   -894.29416    1764.1387    2236.0291    2.1760441    55.492168   0.17113259 
   99300   -946.23843     43.69324   -902.54519    1564.9334   -11781.293    2.1542825    49.053174   0.16513394 
   99400   -941.39069    46.995477   -894.39521    1683.2076   -1515.5225     2.161984    60.846722   0.17953169 
   99500   -942.78502    52.277922    -890.5071    1872.4056    5933.8443    2.1827639    59.759776    0.1754204 
   99600   -947.72753    51.644846   -896.08269    1849.7311     -3945.15    2.1704613    52.211473    0.1536931 
   99700   -948.12708    48.228947   -899.89813     1727.386   -6441.9652    2.1649348    51.613011   0.14369659 
   99800   -945.74873    54.756765   -890.99196    1961.1887   -2799.7249    2.1659034    48.365356   0.15655747 
   99900   -939.17161    45.762522   -893.40909    1639.0476    3890.3177     2.172906    48.702488   0.16270192 
  100000   -943.11811    42.754576   -900.36354    1531.3138    192.26323    2.1735435    56.069027   0.16779209 
  100100   -943.23394    52.260946     -890.973    1871.7976   -4711.8557    2.1573335    47.402552    0.1519425 
  100200   -941.81645    50.619968   -891.19649    1813.0237    4125.0099    2.1765899    49.900008   0.14469802 
  100300   -944.76602    47.418347   -897.34767    1698.3532    479.60524    2.1694346    51.771841   0.12999798 
  100400   -942.09925     51.38768   -890.71157    1840.5203   -5613.8602    2.1472324    48.678327   0.13699534 
  100500   -939.86752    51.010076   -888.85744    1826.9959    6764.5579    2.1805472    48.219005      0.16768 
  100600   -946.70855    51.805408   -894.90314    1855.4819   -416.06826    2.1724164    50.965744   0.15312205 
  100700   -941.79336    47.483278   -894.31008    1700.6788   -11812.241    2.1360871    51.875211    0.1627087 
  100800   -939.63129    54.088618   -885.54267    1937.2582   -312.81453    2.1637694    48.438503   0.15592824 
  100900   -941.61668    49.088156   -892.52852    1758.1597     13565.45    2.2007489    50.164787   0.16135544 
  101000   -943.30222    46.597435   -896.70478    1668.9511   -11496.117    2.1416692    47.376307   0.13868917 
  101100   -938.70743    49.156114   -889.55132    1760.5937   -5319.1543    2.1426706    52.821521   0.15664893 
  101200    -941.7716     49.56034   -892.21126    1775.0716    12050.514    2.1929585    50.830605   0.13840445 
  101300   -945.57373    47.869141   -897.70459     1714.499    578.05798    2.1758599    50.764989   0.12723857 
  101400   -939.06325    46.256242   -892.80701    1656.7308   -5438.7625      2.14551    56.031218   0.14669517 
  101500   -943.82214    54.162931   -889.65921    1939.9198    169.82999    2.1662049     54.51539   0.16456213 
  101600   -945.56326    46.252962    -899.3103    1656.6134    7664.0231    2.1929531     46.47459   0.16811874 
  101700   -939.60386    46.495677   -893.10818    1665.3065   -5079.7615     2.149557    53.067416   0.18046921 
  101800   -940.86228    49.986598   -890.87568    1790.3387   -1919.4074    2.1558005     50.50294   0.16228076 
  101900     -946.923    48.889555   -898.03345    1751.0466    2881.3834    2.1834186    53.745647   0.14262529 
  102000   -943.13202    49.324749   -893.80727    1766.6336    9.6024408    2.1676106    49.966708    0.1401753 
  102100   -941.78055    51.818933   -889.96162    1855.9663   -4127.6236    2.1500308    55.340123   0.13733861 
  102200   -947.28681    50.876565   -896.41025     1822.214   -1226.7614    2.1704622    48.734983   0.14425215 
  102300   -944.26329    49.684572   -894.57872    1779.5212    3098.4223    2.1802923    49.712946   0.15218069 
  102400    -935.8626    48.174696   -887.68791    1725.4429   -2413.7772    2.1471543    47.781778   0.17756379 
  102500   -941.23948    44.414046   -896.82543    1590.7501   -3013.2672    2.1600207    53.016261   0.18723752 
  102600   -943.21273    49.670976   -893.54175    1779.0342    9634.1503    2.1917625    47.716748   0.16622643 
  102700   -941.18905    54.981066   -886.20798    1969.2224   -3.3453242    2.1576344     52.81148   0.15878647 
  102800   -941.84776    46.940431   -894.90733     1681.236   -12680.849    2.1354411    52.765767   0.16179791 
  102900   -941.03442    45.709606   -895.32481    1637.1523    3608.2864    2.1732674    52.602262   0.16670857 
  103000   -941.86896    53.365097   -888.50387    1911.3442    10328.817    2.1919157    49.743407   0.15938049 
  103100   -943.20286    49.637151   -893.56571    1777.8227   -10796.367     2.142454    51.021214   0.14220941 
  103200   -942.29158    43.401268   -898.89031     1554.476   -7362.4382    2.1547918    50.731521   0.15641531 
Loop time of 70.4512 on 1 procs for 100000 steps with 217 atoms

Performance: 367.914 ns/day, 0.065 hours/ns, 1419.422 timesteps/s
100.0% CPU use with 1 MPI tasks x no OpenMP threads

MPI task timing breakdown:
Section |  min time  |  avg time  |  max time  |%varavg| %total
---------------------------------------------------------------
Pair    | 67.232     | 67.232     | 67.232     |   0.0 | 95.43
Neigh   | 1.632      | 1.632      | 1.632      |   0.0 |  2.32
Comm    | 0.47172    | 0.47172    | 0.47172    |   0.0 |  0.67
Output  | 0.033911   | 0.033911   | 0.033911   |   0.0 |  0.05
Modify  | 0.92854    | 0.92854    | 0.92854    |   0.0 |  1.32
Other   |            | 0.1525     |            |       |  0.22

Nlocal:    217 ave 217 max 217 min
Histogram: 1 0 0 0 0 0 0 0 0 0
Nghost:    957 ave 957 max 957 min
Histogram: 1 0 0 0 0 0 0 0 0 0
Neighs:    4169 ave 4169 max 4169 min
Histogram: 1 0 0 0 0 0 0 0 0 0
FullNghs:  8338 ave 8338 max 8338 min
Histogram: 1 0 0 0 0 0 0 0 0 0

Total # of neighbors = 8338
Ave neighs/atom = 38.424
Neighbor list builds = 2772
Dangerous builds = 36
Total wall time: 0:01:12
