LAMMPS (3 Mar 2020)

# ---------- 1. Initialize simulation ----------
units metal
atom_style atomic
dimension 3
boundary p p p
read_data /home/modeler/RemLabs/Project/arrhenius_4/T1700.0/n3_T1700.0_timestep3.000000e-03_eqsteps3200_time600_rseed3320/20201205-133843/lammps.data
  orthogonal box = (0 0 0) to (17.469 17.469 17.469)
  1 by 1 by 1 MPI processor grid
  reading atoms ...
  217 atoms
  read_data CPU = 0.00119042 secs

pair_style meam/c
pair_coeff * * library.meam Li Si LiSi.meam Li Si
Reading potential file library.meam with DATE: 2012-06-29
Reading potential file LiSi.meam with DATE: 2020-11-07

group Li type 1
1 atoms in group Li
group Si type 2
216 atoms in group Si

velocity all create 1700.0 3320 dist gaussian

# ---------- 2. Specify equilibration ensemble  ----------
fix 1 all npt temp 1700.0 1700.0 0.15 tchain 2 iso 1.0 1.0 1.0 pchain 2
# fix 1 all nvt temp 1700.0 1700.0 0.15

# ---------- 3. Run equilibration -------------
timestep 0.003
run 3200
Neighbor list info ...
  update every 1 steps, delay 10 steps, check yes
  max neighbors/atom: 2000, page size: 100000
  master list distance cutoff = 6
  ghost atom cutoff = 6
  binsize = 3, bins = 6 6 6
  2 neighbor lists, perpetual/occasional/extra = 2 0 0
  (1) pair meam/c, perpetual
      attributes: full, newton on
      pair build: full/bin/atomonly
      stencil: full/bin/3d
      bin: standard
  (2) pair meam/c, perpetual, half/full from (1)
      attributes: half, newton on
      pair build: halffull/newton
      stencil: none
      bin: none
Per MPI rank memory allocation (min/avg/max) = 8.895 | 8.895 | 8.895 Mbytes
Step Temp E_pair E_mol TotEng Press Volume 
       0         1700   -951.04357            0   -903.57924   -114721.17    5330.9442 
    3200    1738.5892   -947.11761            0   -898.57587    888.07382    4639.3783 
Loop time of 2.26829 on 1 procs for 3200 steps with 217 atoms

Performance: 365.667 ns/day, 0.066 hours/ns, 1410.753 timesteps/s
100.0% CPU use with 1 MPI tasks x no OpenMP threads

MPI task timing breakdown:
Section |  min time  |  avg time  |  max time  |%varavg| %total
---------------------------------------------------------------
Pair    | 2.1867     | 2.1867     | 2.1867     |   0.0 | 96.40
Neigh   | 0.032052   | 0.032052   | 0.032052   |   0.0 |  1.41
Comm    | 0.014567   | 0.014567   | 0.014567   |   0.0 |  0.64
Output  | 3.3299e-05 | 3.3299e-05 | 3.3299e-05 |   0.0 |  0.00
Modify  | 0.029813   | 0.029813   | 0.029813   |   0.0 |  1.31
Other   |            | 0.005126   |            |       |  0.23

Nlocal:    217 ave 217 max 217 min
Histogram: 1 0 0 0 0 0 0 0 0 0
Nghost:    957 ave 957 max 957 min
Histogram: 1 0 0 0 0 0 0 0 0 0
Neighs:    4217 ave 4217 max 4217 min
Histogram: 1 0 0 0 0 0 0 0 0 0
FullNghs:  8434 ave 8434 max 8434 min
Histogram: 1 0 0 0 0 0 0 0 0 0

Total # of neighbors = 8434
Ave neighs/atom = 38.8664
Neighbor list builds = 54
Dangerous builds = 0

# ---------- 4. Describe computed properties----------
compute msdli Li msd
compute msdsi Si msd
thermo_style custom step pe ke etotal temp press density c_msdli[4] c_msdsi[4]
thermo 100

# ---------- 3. Run production -------------
timestep 0.003
run 200000
Per MPI rank memory allocation (min/avg/max) = 9.66 | 9.66 | 9.66 Mbytes
Step PotEng KinEng TotEng Temp Press Density c_msdli[4] c_msdsi[4] 
    3200   -947.11761    48.541742   -898.57587    1738.5892    888.07382    2.1738491            0 7.9266283e-32 
    3300   -944.36385    47.890005   -896.47384    1715.2463    10626.444    2.1961042  0.061749774   0.11002645 
    3400   -945.98362    49.725052   -896.25857     1780.971   -8197.8431    2.1511783  0.074486563  0.096847053 
    3500   -936.12864    49.471782   -886.65685    1771.8998   -7471.6765    2.1335478   0.17771137   0.12853884 
    3600   -943.01596    48.148009   -894.86795    1724.4871    9147.9147    2.1890026    1.2941996   0.15273226 
    3700   -943.50226    47.533343   -895.96892     1702.472   -2175.8986    2.1623284    4.4767836   0.12694228 
    3800   -942.82832    46.412821   -896.41549    1662.3389   -8020.6946    2.1441793    5.4408442    0.1240631 
    3900   -940.02403    44.841599   -895.18243    1606.0635    8692.5101    2.1799981    6.7972154   0.14520036 
    4000   -933.23443    48.634463   -884.59997    1741.9101    2991.2509    2.1558583    6.2477259   0.13211615 
    4100   -942.47632    49.994738   -892.48158    1790.6302    -3121.745     2.151681    5.2459622   0.14011322 
    4200   -942.81816    46.464049   -896.35411    1664.1737    1256.7222      2.16675    5.5819601   0.12915736 
    4300   -944.65641    47.526779   -897.12963    1702.2369    969.19726    2.1778546    4.4845148   0.13818233 
    4400   -939.61989    53.157987    -886.4619    1903.9263   -2023.5342    2.1493953    7.0785505   0.15181008 
    4500   -939.81918    47.909026   -891.91015    1715.9276    2902.3158    2.1687928    6.8583747   0.14802008 
    4600   -945.13908    48.623027   -896.51605    1741.5005   -1969.3242    2.1602167    6.6382604   0.13929031 
    4700    -943.2974    47.257736   -896.03967    1692.6007   -515.08957    2.1666598    5.3242744   0.13232238 
    4800   -939.99317    53.877494   -886.11568    1929.6964   -876.32735    2.1562728    8.1061849   0.13865791 
    4900   -943.40665     48.84938   -894.55727    1749.6076    1395.2125    2.1736159    4.6611454   0.13626876 
    5000    -942.2393    44.971241   -897.26806    1610.7068   -4078.5463    2.1585845    6.4661789   0.13659661 
    5100   -942.05061    49.487245   -892.56336    1772.4536   -2136.2041    2.1594571    5.6184618   0.14893631 
    5200   -932.98607     48.54821   -884.43786    1738.8208     10924.03    2.1668851    7.1767691   0.15046501 
    5300   -943.63996    48.381029   -895.25893     1732.833    687.47637    2.1729219    4.4085099    0.1443493 
    5400   -943.69972    47.524791   -896.17493    1702.1656   -11788.605    2.1452634    4.2868272   0.15592202 
    5500   -940.93534    46.925812   -894.00953    1680.7124   -1727.9978    2.1598301    3.7917397   0.14852899 
    5600   -948.31263    45.497858   -902.81477    1629.5683     8843.473      2.19844    5.0432194   0.13612757 
    5700   -945.40056    45.023638   -900.37692    1612.5834   -2617.7233    2.1646551    5.5906145   0.14433039 
    5800   -941.76266    46.166492   -895.59616    1653.5163    -6129.282    2.1477386    6.0796237   0.13700616 
    5900   -942.53684    49.787753   -892.74909    1783.2168    6975.8196    2.1809483    5.4416372   0.13430506 
    6000   -949.26285    46.922905   -902.33995    1680.6083    5953.2948    2.1939566    6.4126983   0.10669201 
    6100   -944.99529    46.108553   -898.88674    1651.4411   -7953.7013     2.149575    6.0577404   0.12493922 
    6200   -942.85673    48.156061   -894.70067    1724.7755   -1802.8222    2.1654227    5.9630741   0.13343957 
    6300   -944.57121    46.837103   -897.73411    1677.5352    7803.2448     2.191497     6.610463   0.11920305 
    6400   -949.04282    44.047996   -904.99482    1577.6395   -1361.6263    2.1772968    5.1545496   0.11136434 
    6500   -940.20285    45.423613   -894.77924    1626.9091    -8611.136      2.14233    5.0676612   0.13225608 
    6600   -942.22597    47.225556   -895.00042    1691.4482    8111.6569    2.1870446     6.146105   0.12737963 
    6700   -946.54403    46.652258   -899.89177    1670.9147    3879.5638    2.1895449     6.629002    0.1134605 
    6800   -940.57322    49.516431   -891.05679     1773.499   -6152.7828    2.1460399    5.5233491    0.1413076 
    6900   -945.74422    52.782374   -892.96184    1890.4732   -2667.0995    2.1640101    7.0195898   0.10209729 
    7000   -947.39368    49.428436   -897.96524    1770.3473    1323.2918    2.1814815    6.6744385   0.11302607 
    7100   -945.00018     47.94975   -897.05043    1717.3861   -741.72149    2.1690077     6.973731   0.12879423 
    7200    -942.2169    53.728879   -888.48802    1924.3736   -7067.4478    2.1471728    5.6328287   0.13081894 
    7300   -946.53719    48.748089    -897.7891    1745.9798    2899.8449    2.1833605    6.7677477   0.12467375 
    7400    -948.0642    50.582068   -897.48213    1811.6662   -163.48806    2.1776557    8.1789038   0.11813224 
    7500   -938.33674    48.406865   -889.92988    1733.7584   -2573.7232    2.1544996    5.1948915   0.12830801 
    7600   -948.57713    50.939569   -897.63756    1824.4706   -2633.8101    2.1717226    5.8900667   0.10971852 
    7700   -941.30266     42.84991   -898.45275    1534.7284    3450.3518    2.1746862    4.1145901   0.13019581 
    7800   -945.08405    51.383414   -893.70064    1840.3675   -546.17392    2.1709878    5.9205086   0.12391591 
    7900   -947.85072    52.191365   -895.65935    1869.3054   -6130.7588    2.1662608    5.5567266   0.12363145 
    8000   -948.80433    46.984801   -901.81953    1682.8252    391.09008    2.1815778     4.357649   0.12477035 
    8100   -943.29409    48.278323   -895.01576    1729.1544    4701.5553    2.1788987    6.2882657   0.13007194 
    8200   -939.05881    43.601108   -895.45771    1561.6336   -924.33033    2.1601337    8.1174685   0.14184403 
    8300   -944.72587    40.204296   -904.52157    1439.9721    970.32206    2.1766167    6.5300248   0.13059013 
    8400   -945.70662     48.87939   -896.82723    1750.6825    5043.4968    2.1844345    5.0144911   0.11565362 
    8500   -940.01862    45.543308   -894.47531    1631.1961    4289.9258    2.1730872    6.1875084   0.12817964 
    8600   -943.72039    42.144781   -901.57561    1509.4732   -7390.1035    2.1535368    4.7415144   0.13100816 
    8700   -943.52409     44.40552   -899.11857    1590.4447    1542.4362     2.176015    7.4805655   0.13284805 
    8800   -942.02988    49.857887   -892.17199    1785.7287    10423.949    2.1909598       5.7762   0.13130878 
    8900   -941.53021    43.348589   -898.18162    1552.5893   -6783.6643    2.1508054    4.8415488   0.13351563 
    9000   -942.84219    46.762794    -896.0794    1674.8737    -7265.019    2.1481041    9.0161317   0.15432035 
    9100   -938.79288    50.364919   -888.42797    1803.8888    6104.2496    2.1764956    8.7292482   0.14594112 
    9200   -944.64162    48.906487   -895.73513     1751.653    1046.6725    2.1768089    5.7665675   0.14070481 
    9300   -944.69355    45.316448    -899.3771    1623.0708   -8531.6832    2.1527404    7.1890225   0.11172684 
    9400    -946.1997    54.786745   -891.41296    1962.2625   -2586.7422    2.1637559    4.8247101   0.11275794 
    9500   -939.04421    44.769518   -894.27469    1603.4818    9735.8758    2.1863575    4.9898355   0.14065453 
    9600   -944.97301    45.335845   -899.63717    1623.7655   -4495.4675    2.1676139    5.5629918   0.11912229 
    9700   -945.99924    51.194451   -894.80478    1833.5996   -4782.0643    2.1605523    5.6022264   0.11738683 
    9800   -940.50072    49.687192   -890.81352     1779.615    3173.4389    2.1713443    6.8569581   0.14091064 
    9900   -946.05535    44.870457   -901.18489    1607.0971    3380.8553    2.1861508    7.5042113   0.11792693 
   10000   -943.07213    45.701951   -897.37018    1636.8781    -2675.614    2.1575315      6.50175   0.12243592 
   10100   -940.74666    47.327485   -893.41918    1695.0989   -212.92239    2.1659419    4.6601505   0.13671207 
   10200   -948.23814    46.076583   -902.16156    1650.2961    4522.6527    2.1900535    6.1954395   0.10309699 
   10300   -947.73839    48.900711   -898.83768    1751.4461   -3369.4688    2.1703779    4.2936668   0.12037306 
   10400    -941.6039    47.410361   -894.19354    1698.0672     1110.759    2.1659779    7.3056038   0.13099605 
   10500   -947.46595    47.775561   -899.69039    1711.1473    905.45023    2.1796275    6.8749397   0.10478867 
   10600   -949.18588    46.686736   -902.49914    1672.1496   -692.37816    2.1810056    6.2513931   0.11577198 
   10700   -944.44132    50.846684   -893.59464    1821.1438   -5884.0501    2.1570356    5.2315799   0.13054036 
   10800   -945.41339    48.467791   -896.94559    1735.9405   -469.23401    2.1746114    7.6322182   0.12334401 
   10900   -947.07463    45.556547   -901.51808    1631.6703     4285.357    2.1903478    5.5691808    0.1138414 
   11000   -940.90124    49.552878   -891.34836    1774.8044   -3902.7079    2.1564698    5.7650235   0.12867876 
   11100   -943.68149    48.032086   -895.64941    1720.3351   -1064.3644    2.1694875    5.4487707   0.12519288 
   11200   -943.26851    43.654953   -899.61356    1563.5621    5347.6247    2.1839479    6.2084263   0.12854702 
   11300    -942.2146    50.905794    -891.3088    1823.2609    206.13501    2.1689774    5.4795466   0.12812008 
   11400   -944.76642    50.844269   -893.92215    1821.0573   -4603.4271     2.161063    7.5056624    0.1276607 
   11500   -944.97287    45.279371    -899.6935    1621.7429    -592.1435    2.1736234    5.2912084    0.1140256 
   11600   -943.04624    50.038687   -893.00756    1792.2043    7550.4269    2.1855839    6.3960912   0.13817307 
   11700   -938.64299    45.433467   -893.20952     1627.262    753.04602     2.163293     6.902279   0.13472183 
   11800   -944.45678     43.19384   -901.26294    1547.0467   -6478.6676    2.1594948    6.1020189   0.12826926 
   11900   -942.07512    46.715166   -895.35995    1673.1678    4459.6319    2.1809736    4.3261342   0.12915898 
   12000   -938.40833     45.18311   -893.22522    1618.2951    6841.9285    2.1800449    5.9216594   0.13410506 
   12100   -942.42204    39.375718   -903.04632    1410.2954   -3267.2585    2.1644855    5.0088103   0.12550013 
   12200   -941.66021    43.596079   -898.06413    1561.4534   -5599.3513    2.1555786     6.104064   0.12588645 
   12300   -942.15088    49.532576    -892.6183    1774.0772    7851.5272     2.183805     5.080967      0.11674 
   12400   -947.49795    46.977386   -900.52057    1682.5596     2376.364    2.1845952    7.6770377   0.11364945 
   12500   -944.73307    44.683012   -900.05005    1600.3835   -8059.1371    2.1520474    6.0594924   0.12800741 
   12600    -940.7609    47.273697    -893.4872    1693.1724    280.95308    2.1667631    6.1896591   0.12557223 
   12700   -946.63888    49.280536   -897.35835    1765.0501    7136.2048    2.1907452    6.6044597   0.12454429 
   12800   -946.43993    44.583363   -901.85657    1596.8144   -1820.6255    2.1725957    5.4051157   0.12459745 
   12900   -938.75364    47.422142    -891.3315    1698.4892    -9394.533    2.1354964    6.9713203   0.14047002 
   13000    -942.6991    46.807432   -895.89167    1676.4725    9181.2894    2.1934938    5.9513015   0.11853943 
   13100   -946.02237    47.404008   -898.61837    1697.8397    6126.1452    2.1933047    6.7225675   0.11625861 
   13200   -939.33427     48.00651   -891.32776    1719.4191   -8085.9291    2.1392882    7.6225297   0.13143228 
   13300    -942.7426    49.140532   -893.60206    1760.0357   -5275.5633    2.1541079    6.5553308   0.13194133 
   13400   -942.39156    44.817186   -897.57438    1605.1891    16416.526    2.2094717    5.9392478   0.12642132 
   13500   -939.73792    44.603927     -895.134    1597.5509    2819.2385    2.1704466    6.2156917   0.13359637 
   13600   -937.82745    45.494281   -892.33317    1629.4402   -20503.022    2.1058818    5.5239156   0.14091912 
   13700    -947.8368    45.223624   -902.61318    1619.7462    9093.2057    2.2050333    6.1807269   0.12702286 
   13800   -943.67806    46.992712   -896.68535    1683.1085    15029.575    2.2093767    6.3916316   0.13199199 
   13900    -943.8136    48.197964   -895.61563    1726.2763   -10375.825    2.1458253    6.7159346   0.12699545 
   14000   -943.12511    45.038996   -898.08611    1613.1335   -4470.5777    2.1589062    5.8390401    0.1241367 
   14100   -950.31852     47.11429   -903.20423     1687.463    8650.7053    2.2032859    7.0132562   0.11239251 
   14200   -946.14801    51.714388   -894.43362    1852.2218   -578.87895    2.1668835    6.9150121   0.11801051 
   14300   -943.63252     46.69059   -896.94193    1672.2876   -7321.5364    2.1497109    4.9773643   0.12563126 
   14400   -946.79902    44.692201   -902.10682    1600.7126    3255.2875    2.1844551    5.7955077   0.12029149 
   14500   -949.40389    52.917313   -896.48658    1895.3063    6019.3244    2.1917075     6.525093   0.11816741 
   14600   -942.16169    48.202437   -893.95925    1726.4365    -5893.693    2.1515514    5.5903391   0.12726531 
   14700   -945.82308    47.522202   -898.30088    1702.0729   -9167.2391    2.1518783    5.3512273   0.12749181 
   14800   -944.03896    47.568227   -896.47073    1703.7214    8975.9693    2.1947024    6.2606168   0.12415472 
   14900   -940.82582    53.265264   -887.56055    1907.7686   -503.21919     2.160261    7.4554144   0.13376232 
   15000   -947.11321    50.490529   -896.62268    1808.3876   -9331.4511    2.1489754    5.1997954   0.11886773 
   15100   -943.53082    45.974882   -897.55594    1646.6535    1857.6288    2.1719952    7.2424378   0.12580936 
   15200   -941.68872    48.983657   -892.70506     1754.417    9390.1744    2.1870074    6.5375787   0.13485685 
   15300   -940.32047    50.368159   -889.95231    1804.0048   -7603.4607    2.1436036    5.5783147   0.13810503 
   15400   -946.44402    47.234667   -899.20935    1691.7745   -5786.2261    2.1624814    5.5421825    0.1323875 
   15500    -947.0652    51.320672   -895.74452    1838.1204    7216.6461    2.1923085    6.5247988   0.12510386 
   15600   -938.93809    46.507939   -892.43015    1665.7457    2600.1093    2.1706525    6.1997099   0.14146536 
   15700   -936.44752    48.697182   -887.75034    1744.1564   -10234.688    2.1342925    6.5906787   0.14784922 
   15800    -946.1455    46.919352   -899.22615     1680.481    4023.0582    2.1906147    5.9426452   0.11513969 
   15900   -943.38738     46.24597   -897.14141    1656.3629    3110.4483    2.1785014    5.3291631   0.12258149 
   16000   -943.08404    47.281289   -895.80275    1693.4443   -3425.6339    2.1600045    4.6475409   0.12826703 
   16100   -939.78873    49.169919   -890.61881    1761.0882        -1709    2.1638434    7.2531097   0.13539603 
   16200   -942.89788     55.81826   -887.07962    1999.2077   -5648.3622    2.1531373    5.4574637   0.14046938 
   16300   -945.88755    50.504927   -895.38262    1808.9033   -1250.8058    2.1712771    4.5092271   0.12078073 
   16400   -948.40725    51.747063   -896.66019    1853.3921     108.8883    2.1749249    5.3074765    0.1195329 
   16500   -948.19541    49.679197   -898.51621    1779.3287   -4695.4356    2.1651736    5.8680051   0.12299452 
   16600   -953.22132    44.734032   -908.48729    1602.2108   -2486.2662    2.1850679    6.5078592  0.095659764 
   16700   -945.86003    45.468292   -900.39174    1628.5093   -2224.5319    2.1683236    7.3440566    0.1123226 
   16800   -945.59669    48.709767   -896.88692    1744.6072    2251.6599    2.1783789    4.5761773   0.12505137 
   16900   -944.53229    49.285528   -895.24676    1765.2289    521.19732    2.1723287    5.7101974   0.12662309 
   17000   -938.54329     47.34883   -891.19447    1695.8634   -3073.4456    2.1513824    5.2320995   0.14989011 
   17100   -936.33203    51.503049   -884.82898    1844.6524   -2934.4406    2.1399944    6.1454659   0.14316371 
   17200    -943.3746    49.659567   -893.71503    1778.6256    10237.641    2.1937876    6.9138846   0.13420122 
   17300   -943.15705    46.777231   -896.37982    1675.3908    2952.6756    2.1762563    6.7144976    0.1334508 
   17400   -945.50649    45.498652   -900.00784    1629.5967   -13707.535    2.1412262    5.3816546   0.10703618 
   17500   -944.96956     48.96451   -896.00505    1753.7312    7393.0623      2.18462    4.5556747   0.12057672 
   17600   -942.78593    51.833827    -890.9521    1856.4997    8690.2959     2.187682    6.2403295   0.12800814 
   17700   -941.83337    44.361353   -897.47201    1588.8628   -6895.1275    2.1501361    5.0421282   0.11781454 
   17800   -944.13002     46.50061   -897.62941    1665.4832   -2482.0161     2.162597    4.9633643   0.11473204 
   17900   -942.19716    54.295723   -887.90144    1944.6759     7315.844    2.1821722    5.4646487   0.13593969 
   18000   -941.45561     47.40519   -894.05042     1697.882    1290.8981     2.169199    7.8129407   0.13625619 
   18100   -942.90244    43.688108   -899.21433    1564.7496   -7141.5896    2.1532221    5.7010691   0.15338132 
   18200   -944.06339    50.362817   -893.70058    1803.8135    850.07798     2.169463    7.2722638   0.13619196 
   18300   -940.89572    51.552256   -889.34346    1846.4149    2988.6137    2.1718633    5.3967312   0.12694332 
   18400   -944.08088    44.945885     -899.135    1609.7986   -149.82485    2.1708101    6.9972885   0.13416357 
   18500   -946.97514    49.836312   -897.13883     1784.956   -4699.6913    2.1624325    6.8604165   0.11383051 
   18600    -943.3391    51.599487   -891.73961    1848.1065   -666.20237    2.1675442     6.646615   0.13613899 
   18700   -945.94991    47.657133   -898.29277    1706.9057   -1073.5289    2.1709022    7.9199922   0.12133439 
   18800   -945.93356    45.486819   -900.44674    1629.1729   -5195.0965    2.1645512    7.6651125   0.12084111 
   18900   -945.36508    49.884063   -895.48102    1786.6662    2673.8073    2.1787721    6.7062615   0.12527055 
   19000   -942.56389    47.998056   -894.56583    1719.1163    2444.4264    2.1735698     6.342975   0.12624186 
   19100   -947.78705    43.247372   -904.53967     1548.964   -1418.4362    2.1786175    6.1085777   0.12304129 
   19200   -943.81797     45.54212   -898.27585    1631.1536   -5828.7681     2.158164    4.1295465    0.1396768 
   19300   -946.50628    52.096949   -894.40933    1865.9238    5536.8667    2.1910776    5.0566427   0.13065672 
   19400   -948.03803    48.362795   -899.67523    1732.1799    5828.4202    2.1945823    6.9182537   0.10923519 
   19500   -947.52027    41.846522   -905.67375    1498.7906    -13711.11    2.1494856    5.7380523   0.12546531 
   19600   -942.29246    45.427659    -896.8648     1627.054   -2254.4819    2.1593365    8.0194535   0.12518189 
   19700   -942.56598     48.04963   -894.51635    1720.9635    15304.441    2.2050585    4.8921716   0.11469568 
   19800   -945.75013     45.84289   -899.90724    1641.9261   -2075.9377    2.1694617    6.2095084   0.11946173 
   19900    -946.3396    41.172064   -905.16754     1474.634   -10634.539    2.1523622    5.6937611   0.11872771 
   20000   -943.67023    46.935534   -896.73469    1681.0606    5905.2422    2.1886048    6.5951133   0.12846676 
   20100   -945.59141    50.498719   -895.09269     1808.681    8509.9012    2.1951957    6.2679012   0.12264821 
   20200   -944.60748    47.175486   -897.43199    1689.6548   -9024.3216    2.1488129    5.4750238   0.11292206 
   20300   -943.47324     50.12103   -893.35221    1795.1535   -2686.9317    2.1593817    7.1032318   0.12681695 
   20400     -937.962    51.604434   -886.35756    1848.2837    5422.3054     2.169378    5.2205893   0.14142585 
   20500   -945.68959    50.591553   -895.09804     1812.006    685.81317    2.1732358    4.6462428   0.12522602 
   20600    -940.9696    44.993801    -895.9758    1611.5148   -4130.1243    2.1558791    3.9095874   0.13449009 
   20700   -936.48485    45.543502   -890.94135    1631.2031    1271.1689    2.1634598    5.9138843   0.14139459 
   20800   -934.19281    50.131511    -884.0613    1795.5289    3116.6053    2.1569287   0.38554947   0.14937264 
   20900   -942.18913    48.453064   -893.73606     1735.413    153.43754    2.1701293   0.91536181   0.14179756 
   21000   -940.72726    45.486903   -895.24036    1629.1759    2969.4429     2.172345   0.10111519   0.13109809 
   21100   -947.23485    45.793252   -901.44159    1640.1482   -2776.7435    2.1700763   0.13200027   0.11688284 
   21200   -942.67708    44.441539   -898.23554    1591.7348    970.64473      2.16833   0.85615403    0.1295484 
   21300   -941.79125    48.644108   -893.14714    1742.2555     3992.474    2.1752009   0.71670243   0.13210586 
   21400   -946.23263    50.034453   -896.19817    1792.0527   -4912.0012    2.1612153   0.18243918   0.12438706 
   21500   -942.48817    42.047478   -900.44069    1505.9882   -6489.3537    2.1548432   0.41932076   0.14004054 
   21600   -944.93561    40.183164   -904.75245    1439.2152    10852.635    2.1990059   0.49166535   0.11626104 
   21700   -943.45463    49.200972   -894.25366    1762.2004    1318.5292    2.1686507    10.204613   0.13319769 
   21800   -940.51982    44.454442   -896.06538    1592.1969   -7775.6309    2.1435303    14.118627   0.14175634 
   21900   -942.10602    44.987836   -897.11818    1611.3011    4444.5076    2.1812494    14.065229   0.14346328 
   22000   -946.99439    42.239713   -904.75468    1512.8734    8718.6923    2.2032873    13.831377   0.13968591 
   22100   -942.31834    41.650594   -900.66775    1491.7732   -2660.3783    2.1626171    13.375639   0.13291656 
   22200   -941.14995     44.48363   -896.66632    1593.2423   -1457.3561    2.1601532     14.26827   0.11121983 
   22300   -944.88585    48.800813   -896.08504    1747.8681    4012.6066    2.1845142    13.413637   0.13150192 
   22400   -944.66337    45.622868    -899.0405    1634.0457    1586.5883    2.1796966    14.576242   0.11879804 
   22500   -948.89559    41.249915   -907.64568    1477.4224   -4239.1922    2.1752387    14.024948   0.12200077 
   22600   -947.21646    48.203604   -899.01286    1726.4783   -4857.1092    2.1668362    12.875801    0.1322169 
   22700   -947.90337    52.299194   -895.60417    1873.1675    6254.9243    2.1953137    13.156182   0.11916228 
   22800   -945.86681    48.945104   -896.92171    1753.0361   -554.09313     2.174234    13.624286   0.14326216 
   22900   -946.71547    42.526164    -904.1893     1523.133   -16310.303    2.1394945     14.03699   0.13354861 
   23000   -948.42554    46.171244    -902.2543    1653.6865    1772.5672    2.1902328     14.56365   0.12821742 
   23100   -944.84898    50.297211   -894.55177    1801.4637    17966.536    2.2124682    13.399782   0.13599225 
   23200   -942.31144    45.674104   -896.63734    1635.8808   -6994.2322    2.1509112     11.91766   0.12162204 
   23300   -941.98274    44.826333   -897.15641    1605.5167   -8217.9908    2.1518236    13.782609   0.11832776 
   23400   -951.76739    45.894134   -905.87326    1643.7615    9515.9211    2.2148286    14.000381   0.11841381 
   23500   -943.69425    46.492936   -897.20132    1665.2084   -949.08511    2.1738938    11.642706   0.14253925 
   23600   -940.91332    44.610369   -896.30295    1597.7816   -6435.3098       2.1541    14.622606   0.14813371 
   23700   -945.03613    49.767497   -895.26863    1782.4913     1634.595    2.1796223    13.920805   0.14201837 
   23800   -949.07885    44.047681   -905.03117    1577.6282    3964.7084    2.1957288    14.342201   0.12079605 
   23900   -944.13742    42.756688   -901.38073    1531.3895   -6873.2702    2.1605541    12.174022   0.13541457 
   24000   -943.60529    46.762048   -896.84324     1674.847   -413.66513    2.1721089    13.250898   0.13207946 
   24100   -940.87622      46.4604   -894.41582    1664.0431    8301.9047    2.1843107    11.295202   0.13585198 
   24200   -949.46768    47.338405   -902.12927      1695.49   -5113.9769    2.1664471    14.877675   0.10893599 
   24300   -947.43594    45.782624   -901.65332    1639.7676   -6350.1105    2.1619388    14.576776   0.11625302 
   24400   -942.13188    46.960026   -895.17185    1681.9378    6999.6723    2.1860746     16.32515   0.11810484 
   24500   -948.77073    52.213161   -896.55757    1870.0861    1735.7634    2.1805933    15.374706   0.13456253 
   24600   -948.71652     43.64764   -905.06888    1563.3002    -10088.56    2.1567849    15.153657   0.12498476 
   24700   -941.70093    42.955127    -898.7458    1538.4969   -1623.0669    2.1632569    15.224789   0.12846408 
   24800   -945.16679    51.413577   -893.75322    1841.4479    14304.086    2.2048938    13.549687   0.12674601 
   24900   -944.22592    45.773955   -898.45196    1639.4571   -2197.9902    2.1641288    14.586466   0.12435593 
   25000   -944.06669     45.70064   -898.36605    1636.8312   -16191.564    2.1295251     15.66481   0.13375149 
   25100   -937.80791    48.627076   -889.18084    1741.6455    6058.8029    2.1738564    15.075873   0.12644026 
   25200   -945.13733    51.495681   -893.64165    1844.3885    8808.5024    2.1937242    13.682879   0.12406958 
   25300   -946.02163     47.33672   -898.68491    1695.4297   -7257.6701    2.1572712    12.495235   0.10640582 
   25400   -940.21829    46.177854   -894.04044    1653.9233    297.21699    2.1599961    14.072929   0.12111088 
   25500   -937.76422     49.00532    -888.7589    1755.1929    4383.3752    2.1665444    16.209972   0.14506824 
   25600   -944.30378    46.558196   -897.74558    1667.5457    1970.3425    2.1776829      14.0095   0.13224632 
   25700   -946.49703    49.149948   -897.34708    1760.3729   -4339.5421    2.1634493    14.094964   0.12783303 
   25800   -945.53717    55.966734   -889.57043    2004.5254   -3741.5683    2.1563052     13.10723   0.12409267 
   25900   -943.36392    46.368144   -896.99577    1660.7388    5040.5153    2.1829012    13.926628   0.12374157 
   26000   -941.95378    43.310931   -898.64285    1551.2405   -846.17355    2.1638725    14.790985   0.13241094 
   26100   -941.27401    46.402318   -894.87169    1661.9627    -265.0634    2.1589783    15.168207   0.11856469 
   26200    -937.9767    47.264785   -890.71192    1692.8532    7520.8642    2.1747472      12.3555   0.13156241 
   26300   -941.24849    40.401539   -900.84695    1447.0366    3792.8451    2.1792174    12.723641   0.13848647 
   26400   -945.37103    45.653617   -899.71741     1635.147    -10757.81     2.144923    14.679549   0.12707936 
   26500   -941.93463    45.797493   -896.13713    1640.3001    6771.4146    2.1812719    13.867336   0.13848286 
   26600   -937.44202    43.232962   -894.20906    1548.4479    13689.255    2.1931679     15.60902   0.12867576 
   26700   -934.28413    50.191756   -884.09237    1797.6867   -8353.8585    2.1266116    14.737439    0.1581942 
   26800   -943.99804    51.373123   -892.62492     1839.999   -3988.6815    2.1565675    15.194706    0.1271952 
   26900   -944.01016     48.62909   -895.38107    1741.7176    5091.9499     2.181216    12.636745    0.1196644 
   27000   -947.53763    50.342108   -897.19552    1803.0717   -2562.1066    2.1720244    12.411223   0.11432219 
   27100   -948.51003    49.305486   -899.20455    1765.9437   -8344.6601    2.1587579    16.311717   0.10846614 
   27200   -950.88068    42.323228   -908.55745    1515.8645    3204.3457    2.1972015    15.479962   0.11997398 
   27300   -945.70272    46.323161   -899.37956    1659.1276    1351.2358    2.1762295    13.338082   0.12066693 
   27400   -945.29721    48.317488   -896.97972    1730.5572   -2917.1391     2.161159    12.030602   0.12505007 
   27500   -941.38867    48.530897   -892.85777    1738.2007   -584.09578    2.1626749    9.8262575   0.14562825 
   27600   -934.56761    49.554088   -885.01352    1774.8477    9348.4387    2.1691345    8.1452317   0.14010541 
   27700   -943.41716    47.978261    -895.4389    1718.4073   -1265.4863    2.1606598    8.1823082   0.11016822 
   27800   -943.95221    47.859286   -896.09293    1714.1461   -14092.396    2.1314941    10.049967   0.12849261 
   27900   -937.27598    45.309923   -891.96606    1622.8371    9446.5349    2.1814229    3.9267658   0.12861509 
   28000   -944.14178    44.329196   -899.81258     1587.711    12284.268    2.2020439    3.3220536   0.13979189 
   28100   -946.07113    45.890948   -900.18018    1643.6473   -9972.4179    2.1438024    4.3092981   0.13760385 
   28200   -943.15778    48.800609   -894.35717    1747.8608   -5810.2183    2.1469372    5.2419799   0.13385146 
   28300   -944.23467    49.751532   -894.48314    1781.9195    11033.323     2.198196    4.2241181   0.13457826 
   28400   -946.19956    43.852739   -902.34682    1570.6461    2785.4606    2.1829952    5.1018338   0.14381599 
   28500   -940.40915    46.795283   -893.61386    1676.0373   -10043.471    2.1339253    4.9124526   0.15535273 
   28600    -941.3131    47.847867   -893.46523    1713.7371    2716.7383    2.1688785    3.6126564   0.14590506 
   28700   -947.55996    48.701424   -898.85853    1744.3084    3669.2865    2.1866868    3.2156345   0.13156243 
   28800   -944.48726     52.96017   -891.52709    1896.8412   -4049.2974    2.1549791    6.7109954   0.11927843 
   28900   -942.80802     51.41396   -891.39406    1841.4616   -5543.0574    2.1499125    2.6672624   0.13067575 
   29000   -943.88195    47.082542   -896.79941    1686.3259    747.14123    2.1712709    12.557803   0.11374471 
   29100   -941.82251    47.427977   -894.39453    1698.6981    6580.7817    2.1814829    12.285088    0.1250109 
   29200    -934.9542    47.880498    -887.0737    1714.9058   -3646.7075    2.1400254    9.7515511   0.14861506 
   29300   -944.61273    46.731224   -897.88151     1673.743   -705.01049    2.1703564    17.464762   0.11959653 
   29400   -945.23112      48.2625   -896.96862    1728.5877    5340.3376    2.1846297    16.472716   0.13388521 
   29500   -943.03044    48.152908   -894.87753    1724.6625   -3094.0367    2.1614569    17.107212    0.1230154 
   29600    -938.3727    51.945608   -886.42709    1860.5033   -10463.957     2.129749    18.523008   0.14149525 
   29700   -947.49391    50.055271   -897.43864    1792.7983    9776.4102    2.2007677    16.437484   0.11727177 
   29800   -948.91368     51.86865   -897.04503     1857.747   -2617.3384    2.1727138    15.538327   0.10887405 
   29900    -942.2106    45.130501    -897.0801    1616.4109   -13538.251     2.133553     15.30192   0.12670763 
   30000   -937.12059    46.692791    -890.4278    1672.3664    7839.0838    2.1715463    18.986673   0.12331602 
   30100   -939.16901    50.343964   -888.82504    1803.1382     8979.606    2.1800763    14.910814    0.1303151 
   30200   -942.91957    46.150246   -896.76932    1652.9344   -7606.5105    2.1466868    16.306602   0.13103805 
   30300   -945.28365    48.215666   -897.06798    1726.9103   -3780.1848    2.1630415    15.698644    0.1269751 
   30400   -945.28394    49.607243    -895.6767    1776.7515     6367.819    2.1862682    15.640199   0.13249898 
   30500   -938.09578    52.630097   -885.46568    1885.0192   -4976.1039    2.1436877    13.613794   0.14182866 
   30600   -941.07725    46.131583   -894.94566     1652.266   -272.03106    2.1633233     16.82672    0.1518799 
   30700   -945.53797    49.282969     -896.255    1765.1372   -2202.6281    2.1652765    17.841852    0.1328525 
   30800   -943.17812    51.416879   -891.76124    1841.5661    1383.3852    2.1632186    16.513216    0.1207385 
   30900   -934.56275    48.798194   -885.76456    1747.7744    1432.6478    2.1505752    14.424735    0.1474935 
   31000   -943.55354    48.045432   -895.50811    1720.8131    998.44587    2.1703323     10.74588   0.14480217 
   31100   -941.50756    46.730579   -894.77698    1673.7199    3336.3118    2.1716184    12.088448   0.14073264 
   31200   -943.29853    46.504828    -896.7937    1665.6343   -3587.0945    2.1637034    12.727805    0.1532829 
   31300   -947.29213    42.190627   -905.10151    1511.1152     2303.516    2.1834965    11.861355   0.14236378 
   31400   -942.62365    46.265229   -896.35842    1657.0527    4723.5679    2.1821366     16.14723   0.15112214 
   31500   -940.61246    46.693461     -893.919    1672.3904   -3219.1241     2.159182    14.534751   0.16593249 
   31600   -946.16399    45.790731   -900.37326    1640.0579   -5079.3467    2.1628043     16.46169   0.14702693 
   31700   -947.88139    48.965506   -898.91588    1753.7669    3581.9424    2.1869007    13.101606   0.14375915 
   31800   -939.19126    47.863031   -891.32823    1714.2802    7510.0884    2.1737604    15.362184   0.14783859 
   31900   -940.96918    43.517439   -897.45174    1558.6369    -5786.181    2.1498903    18.835896   0.14376889 
   32000   -945.90562    48.040985   -897.86464    1720.6539   -4164.5044    2.1594773    15.828401   0.11894002 
   32100   -933.74678    45.094804   -888.65197    1615.1323    12584.119    2.1799883    15.780247   0.14182331 
   32200   -941.86499    45.847563   -896.01743    1642.0934    2312.1097    2.1758863    14.611164   0.14236297 
   32300   -945.86503    46.179653   -899.68538    1653.9877   -10103.462     2.150367    13.502922   0.13370217 
   32400    -939.5111    48.462745   -891.04835    1735.7598    2100.9911    2.1655668    15.195089   0.14451256 
   32500   -944.04956    49.723161   -894.32639    1780.9033    6907.9112     2.189441    15.239375   0.14010051 
   32600   -943.29296    43.719598   -899.57336    1565.8774   -3768.1812    2.1642415     16.56546   0.13366263 
   32700   -942.95159    48.344983   -894.60661     1731.542   -5478.5875    2.1565352    18.447559   0.12693734 
   32800   -940.14447    50.007308   -890.13716    1791.0804     4806.191    2.1773405    18.759341   0.15290685 
   32900   -947.03744    46.604466   -900.43298     1669.203    5549.0551    2.1913867    17.091372   0.12168828 
   33000   -946.38929    49.132997    -897.2563    1759.7658    -9191.814    2.1501918    15.062851   0.13140631 
   33100   -945.25115    51.611632   -893.63952    1848.5415   -4102.1782    2.1611827    13.762021   0.13295147 
   33200   -946.99362    44.622383   -902.37123    1598.2119    13000.207    2.2092175    15.989631   0.11432833 
   33300   -944.61839    46.328076   -898.29031    1659.3037   -3547.0292     2.166177    16.776726   0.12949798 
   33400   -939.92792    44.882613   -895.04531    1607.5324   -6467.7315    2.1494963    15.051933   0.13872253 
   33500   -946.35591    48.430367   -897.92555    1734.6001      5897.88    2.1877796    17.071436   0.10935769 
   33600   -948.21305    45.310383   -902.90267    1622.8536    13485.761    2.2138036    17.168355   0.12062605 
   33700   -937.95333    45.598737   -892.35459    1633.1814   -18324.038    2.1163817     17.51124   0.14988067 
   33800   -942.59518     45.75376   -896.84142    1638.7338   -11831.807    2.1417258    16.706056   0.14727292 
   33900    -945.9946    50.377735   -895.61686    1804.3478    23137.233    2.2296071    16.214646   0.14178402 
   34000   -941.71472    43.980042   -897.73467    1575.2056    1843.4958    2.1724515    16.794402   0.13509754 
   34100   -936.57548    50.156321   -886.41916    1796.4175   -13004.337    2.1219546      16.5853   0.16922643 
   34200   -945.53554    50.176568   -895.35897    1797.1427    6384.1224    2.1892459     17.51785   0.13849622 
   34300   -944.63554    47.838013   -896.79753    1713.3841    5842.7069    2.1860693    16.864005   0.14074091 
   34400   -944.09167     47.67743   -896.41424    1707.6326   -7135.3547    2.1534276    20.707011   0.13237262 
   34500   -939.98583    53.791924    -886.1939    1926.6316    -3542.049    2.1494545    17.988937    0.1458284 
   34600   -939.90255    46.671759   -893.23079    1671.6131    9675.1773    2.1889066    15.987581    0.1451137 
   34700   -943.36867    46.404729   -896.96394    1662.0491   -5473.1796     2.158906    15.534984   0.14715219 
   34800   -946.84719    50.119652   -896.72754    1795.1042   -6831.8698    2.1566337    14.802861   0.13111918 
   34900   -942.01891    51.139475   -890.87944    1831.6305    7771.0266    2.1857026    17.604051    0.1464089 
   35000    -937.9576    49.181996    -888.7756    1761.5207    1283.5967    2.1599154    16.259424    0.1434618 
   35100   -941.09354    44.122877   -896.97067    1580.3214   -7535.7979    2.1447101    16.743204   0.13013725 
   35200   -944.04846      47.1968   -896.85166    1690.4182    4261.8042    2.1802448    19.584676   0.12926556 
   35300   -941.11106    45.993592   -895.11746    1647.3237     9585.043    2.1878501    17.121806   0.12130623 
   35400   -937.67514    50.382757   -887.29238    1804.5276   -11708.862    2.1286556    14.032481   0.13481462 
   35500   -944.01031    46.555142   -897.45517    1667.4364    -509.1906    2.1687211    15.130301   0.12779792 
   35600   -944.33738    47.738488   -896.59889    1709.8195    7545.8748    2.1916849    15.539916   0.13516902 
   35700   -940.40989    45.586262   -894.82363    1632.7346    -625.0462    2.1616858    14.408989   0.13985813 
   35800   -936.83731    51.041854   -885.79546    1828.1341   -5038.7102    2.1400041     15.83631    0.1601452 
   35900   -947.94477    51.388339   -896.55643    1840.5439    3785.2236    2.1867657      14.5309   0.12558063 
   36000   -943.89795    46.818225   -897.07973     1676.859    1418.2662    2.1724656    12.735594    0.1261286 
   36100   -943.22259     48.74831   -894.47428    1745.9877   -5213.7623    2.1557405    17.564681   0.13584028 
   36200   -937.10491    52.201811    -884.9031    1869.6795    980.89426    2.1534312    15.732903   0.14036088 
   36300   -946.34097    50.729089   -895.61188     1816.932     7305.888    2.1898881    15.628644   0.11488921 
   36400   -947.75091     50.64937   -897.10154    1814.0768   -7615.3317    2.1560745    16.101049   0.11683199 
   36500   -943.21093    47.895439   -895.31549    1715.4409   -5101.5154    2.1538932    14.465184   0.12951486 
   36600   -941.39716    50.977214   -890.41995     1825.819    7033.3398    2.1819248     14.99064   0.13114227 
   36700   -939.82614    53.506474   -886.31967    1916.4079   -4013.5996    2.1496217    18.514844   0.13528521 
   36800    -943.9354    49.190722   -894.74468    1761.8333   -6995.4733    2.1525866    16.281099   0.12258709 
   36900   -944.35568    47.719734   -896.63595    1709.1478     3189.487    2.1788028    16.071022   0.11237264 
   37000   -947.44343    48.660767   -898.78267    1742.8522    2319.6286    2.1786716    14.870089   0.10194137 
   37100   -940.97593    52.706015   -888.26992    1887.7383   -3616.6137    2.1522362    14.034854   0.14357316 
   37200   -942.16208    49.802444   -892.35964    1783.7429    2875.7315     2.168351     15.88594   0.11985493 
   37300   -944.40347    46.986289   -897.41718    1682.8785    658.72329    2.1691138    17.374771   0.12060697 
   37400   -946.10486    48.325404   -897.77946    1730.8407   -2816.8658    2.1690241    16.805846   0.11199835 
   37500   -942.56252    54.979963   -887.58256    1969.1829   -2874.9103    2.1523121    17.742717   0.10806383 
   37600    -943.1208    47.292722   -895.82808    1693.8538    6266.9857    2.1781994    16.488696   0.12064288 
   37700   -942.92928    44.728068   -898.20121    1601.9972   -1983.3412    2.1658029    16.645076   0.11553592 
   37800   -940.26411    48.154917   -892.10919    1724.7345   -1397.2759    2.1569691    16.629793     0.112631 
   37900   -943.73409    53.358411   -890.37568    1911.1048   -1054.5834    2.1638815    17.456301   0.11802516 
   38000   -945.33405    46.887155    -898.4469    1679.3279    3582.8259    2.1815503    17.029298    0.1074464 
   38100    -943.4648    47.239413   -896.22539    1691.9445   -4213.8339     2.161371    16.102264   0.12726454 
   38200    -937.1473    45.551725   -891.59557    1631.4976   -3235.9301    2.1490878    15.622737   0.12015437 
   38300   -949.92188    47.876608   -902.04528    1714.7665    7663.3677    2.2039643    16.210992  0.097947027 
   38400   -944.71146    46.235865   -898.47559     1656.001   -1100.7848    2.1690016    16.006675   0.11840928 
   38500   -945.08944    49.563529   -895.52591    1775.1858   -10793.667    2.1476567    15.598994   0.11229144 
   38600   -947.69828    52.571392   -895.12688    1882.9166    3414.8223    2.1827986    18.427904   0.13102971 
   38700   -949.73263    45.673596   -904.05904    1635.8626    10035.711    2.2113834    16.431265    0.1072535 
   38800   -947.06854    50.417358   -896.65118    1805.7669   -12423.835    2.1486922    16.071538   0.13603456 
   38900   -946.63927    50.933521   -895.70575     1824.254   -9094.0844    2.1522957    15.747394   0.11937032 
   39000   -947.13775    47.121377   -900.01637    1687.7168     10633.19    2.2034344    16.049516   0.11580676 
   39100   -947.48253     42.81415   -904.66838    1533.4476     2824.775    2.1913065    16.063062   0.11830896 
   39200   -939.76515    44.285999   -895.47915    1586.1639   -9437.6802    2.1404935    16.219134    0.1214234 
   39300   -942.20288    45.907175   -896.29571    1644.2285    2872.7977    2.1736752    15.188988   0.13266684 
   39400   -945.20373    43.817606   -901.38612    1569.3878     9939.636    2.1986392    17.277453   0.11652509 
   39500   -939.90058    46.085486   -893.81509     1650.615    -458.9747    2.1645059    15.782466   0.14743995 
   39600   -942.03596    48.542316   -893.49365    1738.6097   -2845.3331    2.1568242    17.416625   0.13720903 
   39700   -944.55745    47.134065   -897.42339    1688.1713    1625.6575     2.174254     17.47965   0.11100469 
   39800   -940.97707    42.394518   -898.58255    1518.4179    5169.7959    2.1787529    17.083708   0.13040624 
   39900   -937.00318    48.311516   -888.69166    1730.3433   -3825.6212     2.147299    16.994323   0.13970413 
   40000   -943.29112    46.600013    -896.6911    1669.0435    1496.3765     2.176313    17.842989   0.11940504 
   40100   -943.58315    45.737621   -897.84553    1638.1557    3647.7455    2.1796205    16.253159   0.13353487 
   40200   -942.91153    52.282128    -890.6294    1872.5562   -3352.8317     2.156598    17.114409   0.12419368 
   40300   -941.01054    47.793037    -893.2175    1711.7733   -1940.7667    2.1577666    15.220415   0.13151919 
   40400   -943.65509    45.060224   -898.59487    1613.8938     1470.942    2.1795212    15.943749   0.13637922 
   40500   -943.81841    49.383832   -894.43458    1768.7498    4342.6423    2.1801654    16.299603   0.12593944 
   40600   -942.03908      49.9549   -892.08418    1789.2034   -9712.2798    2.1406702    16.418906   0.13042743 
   40700   -948.99659    46.335474   -902.66112    1659.5686   -1139.3354    2.1776405    17.440408   0.11368108 
   40800   -943.66805    46.280772   -897.38728    1657.6094    10128.854    2.1978889    17.532049    0.1322552 
   40900   -941.66196    47.616884   -894.04508    1705.4641   -4162.5486    2.1544877    15.112071   0.12624521 
   41000   -941.32942    46.781442   -894.54798    1675.5416   -9353.1298    2.1392976    16.269839   0.13258647 
   41100   -946.33809    44.922818   -901.41527    1608.9724    11218.052    2.2055243    17.749562   0.11694658 
   41200   -941.04417    47.397583   -893.64659    1697.6095    6476.7696     2.182371    17.713065   0.14092469 
   41300   -941.57365    45.595742   -895.97791    1633.0741   -9417.8152    2.1412302    18.739528    0.1238853 
   41400   -947.98419    45.119342   -902.86485    1616.0112   -358.78338    2.1746446    15.155666   0.11704472 
   41500   -941.51543    46.203706   -895.31173    1654.8492    13193.981    2.1978291    19.561293   0.12092256 
   41600   -939.43985    45.006623   -894.43323     1611.974   -1153.8787    2.1636836     15.64295   0.14109059 
   41700   -944.62358    44.126055   -900.49753    1580.4353   -8654.7165    2.1528389     16.88803   0.14481848 
   41800    -944.7235    46.475335   -898.24817     1664.578    6105.2587    2.1852517    16.129191   0.11480145 
   41900   -942.33519    50.988994    -891.3462    1826.2408     3045.867    2.1716063    17.404403   0.11811131 
   42000   -945.01134    46.302256   -898.70908    1658.3789   -5730.2812    2.1572275    17.835894   0.11633064 
   42100   -944.72563    47.084358   -897.64127    1686.3909   -1921.2467    2.1679352    18.050081   0.11113515 
   42200   -940.23987    51.212505   -889.02736    1834.2462    1258.7385    2.1632197    16.826155   0.13075684 
   42300   -947.23748    49.546105   -897.69138    1774.5618    492.75736    2.1752964    15.628888   0.10349816 
   42400    -942.3903    44.221418   -898.16888    1583.8508   -2056.9019    2.1631177    16.783696   0.11595807 
   42500   -942.09065    52.106783   -889.98386     1866.276   -1856.4255    2.1572133    13.883067   0.12173656 
   42600    -947.8849    49.284606   -898.60029    1765.1958    2417.3303    2.1836885    17.761358   0.11528292 
   42700   -944.75409    45.859564   -898.89453    1642.5233   -2339.2359    2.1697354    14.624171   0.13339459 
   42800   -941.39083    48.777252   -892.61357    1747.0243   -1202.1726    2.1579114    16.054225   0.11280721 
   42900   -945.30972    46.192945   -899.11677    1654.4638    2215.6153    2.1786484    17.714296   0.11853008 
   43000   -942.46531    42.153154   -900.31215    1509.7731    4231.3189    2.1777849     14.39723   0.11426845 
   43100   -940.63609    46.593421   -894.04266    1668.8074    961.43683     2.162936    15.640573   0.11310527 
   43200   -941.25147    43.907237   -897.34424     1572.598   -1146.8949    2.1635375     17.67359   0.13702559 
   43300   -947.99458    45.375816   -902.61877    1625.1972    5250.3904    2.1877524    15.983575   0.11030375 
   43400   -942.02761    48.618298   -893.40931    1741.3311     5679.163     2.177705    17.761134   0.13157435 
   43500   -942.78433    46.067363   -896.71696    1649.9659   -8490.3578    2.1459981      15.1369   0.12130107 
   43600    -945.0457    43.000758   -902.04494    1540.1312   -1410.7654     2.171411    14.528184   0.12463366 
   43700    -946.3807    48.490515   -897.89018    1736.7544    12752.072    2.2041387    16.409135   0.12900767 
   43800   -943.32677    49.664204   -893.66257    1778.7917   -3645.7699    2.1596312    15.673478   0.12438612 
   43900   -942.13999    43.276573   -898.86342    1550.0099   -9886.1677    2.1432302    18.406621   0.14898337 
   44000    -944.5287     47.91407   -896.61463    1716.1082    6445.8534    2.1893315    15.229027   0.11765809 
   44100   -941.45614    53.442779   -888.01336    1914.1265    3832.3677    2.1743673    17.696373   0.13134692 
   44200   -945.19758    48.266519   -896.93107    1728.7317   -7132.2213    2.1519095    15.032222   0.12521838 
   44300   -944.23756    46.642529   -897.59503    1670.5663   -1926.2864    2.1672046    15.960023   0.13011683 
   44400   -937.16998    45.377452   -891.79253    1625.2558    11781.801    2.1866406    15.638874   0.14384989 
   44500   -941.00805    50.216071   -890.79198    1798.5576   -3795.1435    2.1519709    15.810414   0.13663525 
   44600   -944.53662    45.512027    -899.0246    1630.0758   -5418.5053    2.1560823    14.015682   0.12856036 
   44700   -939.50237    43.800834   -895.70153     1568.787    10163.044    2.1867955    16.502573   0.13460689 
   44800   -939.81487    48.508655   -891.30621    1737.4041    2698.9753    2.1728987    15.399257   0.15276177 
   44900   -933.89506    44.253207   -889.64185    1584.9894   -8388.1552    2.1324597    20.308923   0.14107857 
   45000   -946.84518    48.061113   -898.78407    1721.3748    239.73101    2.1795988    14.464635   0.12795208 
   45100   -943.96623    48.533621   -895.43261    1738.2983    11697.404     2.201069    16.227134   0.12274129 
   45200   -944.59789     47.29158   -897.30631    1693.8129   -7766.2057    2.1544784    16.170179   0.12846281 
   45300   -948.46273    41.739372   -906.72335    1494.9529   -2347.6126    2.1741703    16.772072    0.1258734 
   45400    -945.4616    46.768633   -898.69297    1675.0828    3850.3537     2.181776    17.018607   0.10596981 
   45500   -945.14652    49.766743   -895.37978    1782.4643    3433.7348    2.1735929    16.904179   0.12349557 
   45600    -946.1145    48.612081   -897.50242    1741.1085   -3475.7452    2.1619324    17.279977   0.12264325 
   45700    -950.6922    45.335312   -905.35689    1623.7465    1040.2754    2.1854618    17.299814   0.12003091 
   45800   -940.51275    44.317444    -896.1953    1587.2901    2685.7158    2.1698556    16.698793   0.12809263 
   45900   -941.99695    46.020206   -895.97674    1648.2769    903.85964    2.1646871    16.341179    0.1161144 
   46000   -950.86525    50.315851   -900.54939    1802.1313   -4339.7446    2.1721235    15.951185   0.11087262 
   46100   -949.70881    44.611102    -905.0977    1597.8079    3550.0693    2.1912289    18.192166   0.11184133 
   46200   -942.19828    46.328801   -895.86948    1659.3296   -1957.0624     2.158881    16.395893   0.12766531 
   46300   -942.46107    45.771017   -896.69005    1639.3518   -5709.7769    2.1521713    15.385798   0.12815308 
   46400   -944.36028    46.424441   -897.93584    1662.7551    8733.2415    2.1886426     18.85489   0.10062538 
   46500   -950.36852    43.669762   -906.69876    1564.0925    8966.2211    2.2069057    18.289342   0.10704249 
   46600   -941.72455    44.860967   -896.86359    1606.7572   -14856.599    2.1256547    17.595638   0.13727997 
   46700   -944.30405    47.582043   -896.72201    1704.2162   -2511.5845    2.1626211    15.454258   0.11951839 
   46800   -942.80576    47.783862   -895.02189    1711.4447    14452.326    2.2061415    17.914745   0.13721609 
   46900   -941.94832    50.183772   -891.76454    1797.4007   -4854.3772    2.1518447    14.681966   0.11285769 
   47000   -935.54807    48.724452   -886.82361    1745.1332    -11132.95    2.1224347    13.273993   0.13526473 
   47100   -941.62195    46.234601   -895.38735    1655.9557    8025.5929    2.1850084    15.135465   0.11082275 
   47200   -944.35617    47.683749   -896.67242     1707.859    6995.9596    2.1869908    16.077447   0.10475804 
   47300   -944.19475    47.728583   -896.46617    1709.4648    -8370.749    2.1512807    15.978595    0.1133869 
   47400   -937.39247    50.310133   -887.08234    1801.9265   -4760.1577     2.140063    17.107856   0.12656794 
   47500   -947.27518    51.201889   -896.07329     1833.866    9833.4371    2.1996425    15.835314   0.11605807 
   47600   -947.88947    50.380107   -897.50936    1804.4327   -725.01561    2.1712049    16.933373   0.11289204 
   47700    -942.0735    48.875109   -893.19839    1750.5292   -8818.1238    2.1426061    16.140288   0.12777207 
   47800   -937.16926    51.269054    -885.9002    1836.2716    3703.8208    2.1664475    16.968652   0.13569558 
   47900   -943.95697    46.948886   -897.00808    1681.5388    11296.225    2.1973007    15.637932   0.11412455 
   48000   -946.51666    49.434247   -897.08242    1770.5555   -9197.2819    2.1494783    15.039029   0.12862619 
   48100   -943.72182    48.426726    -895.2951    1734.4697    -5986.095     2.153444    13.133951   0.11414355 
   48200   -952.45566    48.328334   -904.12732    1730.9457    4708.6891    2.2001995     17.78034    0.1045913 
   48300   -947.92806    46.502622   -901.42544    1665.5553    191.80386    2.1795356    15.414252   0.11587254 
   48400   -946.14762    49.632989   -896.51463    1777.6737   -5489.8937    2.1585944    16.480598   0.11378442 
   48500   -943.28309    48.278149   -895.00494    1729.1482    589.76591    2.1743416    15.691532   0.14306192 
   48600   -951.64347     47.27296   -904.37051     1693.146    1027.4769    2.1949052    15.664835   0.12914739 
   48700   -945.11448    46.133336   -898.98114    1652.3288   -4676.8605    2.1673579    16.522796   0.13426643 
   48800   -944.48864    49.133963   -895.35468    1759.8004   -1090.0036    2.1731642    17.524721   0.13337958 
   48900   -943.48643    45.829972   -897.65646    1641.4634    2241.1239    2.1821978    17.476143   0.13960762 
   49000   -950.22925    44.201955   -906.02729    1583.1537   -2351.4463    2.1850621    14.373156   0.13515951 
   49100   -942.48935      45.7856   -896.70375    1639.8741   -3365.8009    2.1610742    16.658597   0.13898596 
   49200   -940.76304    45.621209   -895.14184    1633.9862    6648.3089    2.1894855    16.608537   0.14271507 
   49300   -945.52817    46.504144   -899.02403    1665.6098     2826.299    2.1861252    16.839992    0.1236979 
   49400   -948.19915    41.854849   -906.34431    1499.0889   -12959.886    2.1521185    17.402333   0.12589786 
   49500    -942.6807    45.126895   -897.55381    1616.2817   -991.44346    2.1673369    15.797197   0.14318136 
   49600   -943.82613    49.720996   -894.10513    1780.8258     18469.32    2.2186237    16.323377   0.13178155 
   49700   -944.49272    45.327785   -899.16493    1623.4769   -5643.3231     2.160237    18.325998    0.1311612 
   49800   -943.30295    51.030762   -892.27219    1827.7368   -12196.972     2.136441    14.894743   0.13520478 
   49900   -940.79074    50.287395   -890.50334    1801.1121    6108.8486    2.1797188    18.129708   0.13981678 
   50000   -944.07259    47.835026   -896.23757    1713.2772    3350.9722    2.1798705    17.937573   0.11701305 
   50100   -948.03904    49.416445    -898.6226    1769.9178   -8888.0304    2.1551497    18.433103   0.11366536 
   50200    -939.2394    49.283547   -889.95586    1765.1579    1613.8758    2.1601696    18.813086   0.12509969 
   50300   -943.01558    49.689578     -893.326    1779.7005    6179.8618    2.1804736    14.541809   0.12267753 
   50400   -942.38724    43.948322   -898.43892    1574.0695   -1942.3918    2.1596804    15.805954   0.12458328 
   50500   -944.81274     49.40769   -895.40505    1769.6043   -4038.6164    2.1602935    18.598841   0.12379571 
   50600   -939.84481    52.410902   -887.43391    1877.1684    7181.4354    2.1718457    18.008234    0.1356077 
   50700   -944.45955    47.015188   -897.44436    1683.9135     3694.441    2.1798429    16.088333   0.12897968 
   50800   -943.76219    45.535931   -898.22625    1630.9319   -10748.494    2.1424908    15.395746   0.13886765 
   50900   -940.68673    47.390833   -893.29589    1697.3678     2201.782    2.1717825    16.264129    0.1228631 
   51000   -945.10686    44.638575   -900.46828    1598.7919    10028.183    2.2002175    17.965882   0.12073857 
   51100   -949.84473    48.346845   -901.49788    1731.6087   -7869.5919    2.1597761    17.670947   0.12024462 
   51200    -941.9751    45.799466   -896.17564    1640.3708   -3939.6295    2.1601652    18.313978   0.12856398 
   51300   -942.33057    48.342098   -893.98847    1731.4386    9113.9601    2.1896324    16.591127   0.13378339 
   51400   -947.93062    44.324822    -903.6058    1587.5544     3472.884    2.1849232    16.164916   0.11351837 
   51500   -943.09693    45.558986   -897.53794    1631.7576    -6938.189    2.1496289    17.144139   0.13242522 
   51600   -945.78148    51.304957   -894.47652    1837.5575     1234.942    2.1766688    15.947167   0.13419952 
   51700   -947.82257    48.198286   -899.62428    1726.2878    1157.7435    2.1850911    15.690595   0.12554088 
   51800   -946.62459     43.74263   -902.88196    1566.7024   -612.04032    2.1777695    17.208157   0.12382516 
   51900   -944.12135      51.2362   -892.88515    1835.0949   -5832.7525    2.1546524    14.860015    0.1109421 
   52000   -944.16496    48.092204   -896.07275    1722.4884    3302.3489     2.179897    16.054188   0.13351923 
   52100   -942.33766    42.947298   -899.39036    1538.2165    5435.5412     2.180562    16.849128   0.13139031 
   52200   -937.85548     48.14215   -889.71333    1724.2772   -3539.9759    2.1500038    16.997656   0.13188234 
   52300   -939.01842    45.807298   -893.21113    1640.6513    3548.0207    2.1682142    16.422861    0.1526781 
   52400   -948.11589     49.98239   -898.13351    1790.1879   -790.72195    2.1746935    14.988792   0.12060302 
   52500   -940.57881    44.870393   -895.70842    1607.0948    268.18992    2.1656309    11.193158   0.13938893 
   52600   -935.86835    48.402897   -887.46545    1733.6163   -2362.2174    2.1496877    10.245014   0.16346845 
   52700   -942.04559    45.593517   -896.45207    1632.9944    3018.1948    2.1762775    8.3500723   0.13910017 
   52800   -942.69498    46.494907   -896.20008     1665.279    839.63103     2.170379    6.9111702   0.15484868 
   52900   -941.56551      52.9818   -888.58371    1897.6159    -4122.306    2.1492764    5.4246414   0.16140127 
   53000   -943.24316    50.057909   -893.18525    1792.8928   -3611.4844    2.1590445    2.8745006   0.15098972 
   53100   -941.07573    44.300788   -896.77494    1586.6936    3405.5221    2.1734602    3.2744284   0.15777525 
   53200   -944.04709    50.192489    -893.8546    1797.7129    2729.0188    2.1703958    6.0117609   0.13658492 
   53300   -939.50448    50.078048   -889.42643    1793.6141   -50.691845     2.154047    5.7029888   0.14000218 
   53400   -942.74661    42.994202   -899.75241    1539.8964    4328.2255    2.1810511       2.3244   0.13617449 
   53500   -942.52725    45.728058   -896.79919    1637.8132   -4905.2628     2.155256    5.4536166   0.14781324 
   53600   -943.75788    50.038428   -893.71945     1792.195   -3554.8128    2.1574174    7.2509917   0.13528943 
   53700   -943.44917    45.319577   -898.12959    1623.1829    8028.1605    2.1869322    4.7305343   0.14388107 
   53800   -945.91685    44.116423   -901.80042    1580.0903    1714.5908    2.1739832    5.8915385   0.13356054 
   53900   -946.44181    51.329136   -895.11268    1838.4235   -11139.487    2.1425735    4.8411837   0.12911755 
   54000   -943.46125    49.533748    -893.9275    1774.1192    2568.6388    2.1704327    10.578753   0.13993711 
   54100    -948.0507    46.274887   -901.77581    1657.3986    10225.902    2.2038421    10.928337   0.13310118 
   54200   -938.88382    46.382172   -892.50164    1661.2412    -6384.075    2.1436477     6.317816   0.16389767 
   54300   -940.90195    47.108345    -893.7936    1687.2501   -8447.2608    2.1435667    9.1330623   0.15454234 
   54400   -944.62735    47.349478   -897.27787    1695.8866    11621.933    2.1963714    6.0168188   0.14064209 
   54500   -948.62064    47.113528   -901.50711    1687.4357    2578.2536    2.1878875     4.995879    0.1302471 
   54600   -941.83942    51.613234   -890.22619    1848.5988   -15542.728    2.1225394    7.0345413   0.13402929 
   54700   -942.38637    47.406936   -894.97944    1697.9445    4528.7977    2.1771363    6.6165793   0.14486422 
   54800   -943.23484    46.406455   -896.82838    1662.1109    9735.0025    2.1906125    5.6384308   0.13828215 
   54900   -937.31725    47.108089   -890.20916    1687.2409   -1106.9894     2.153872    6.2727007   0.14332241 
   55000   -941.25797    50.970971     -890.287    1825.5953   -7681.1778    2.1418322    6.6474662   0.14436881 
   55100    -944.2162    47.880587   -896.33561     1714.909    1665.7965      2.17434    4.6366915   0.14945997 
   55200    -940.9318    45.702707   -895.22909    1636.9052    7965.5633    2.1808146    4.7708461   0.13413324 
   55300   -936.85403    50.403272   -886.45076    1805.2624   -4469.6422    2.1411558    6.4097831   0.15189228 
   55400   -941.88287    48.862046   -893.02083    1750.0613   -2707.4171    2.1552618    4.1776937   0.13091884 
   55500   -939.27315     43.26355    -896.0096    1549.5435    3702.6857     2.170078    5.8322182   0.11236479 
   55600   -943.36143    46.119046   -897.24239     1651.817    2739.9171     2.178869    6.2484315   0.12273891 
   55700   -953.83046    48.633218   -905.19724    1741.8655   -7490.3863    2.1731786    5.4960945   0.10234303 
   55800   -945.40067    44.038844   -901.36183    1577.3117   -2423.8594    2.1668102    4.8918506   0.11716027 
   55900   -939.08112    43.222874   -895.85825    1548.0866    14347.054    2.1936939    4.8652025   0.13099096 
   56000   -942.53842    46.379925   -896.15849    1661.1607   -683.59171    2.1656469    4.7331007   0.12115026 
   56100   -941.75331    46.212547   -895.54076    1655.1658    -12208.25    2.1348535    7.0964878   0.12158159 
   56200   -951.33595    45.751584   -905.58436    1638.6558    10835.095    2.2155059    8.2829659   0.12095679 
   56300   -946.29766    48.519723   -897.77794    1737.8005    4948.9064    2.1900191    5.4299628   0.12533493 
   56400   -941.48754    45.150596   -896.33694    1617.1306   -11107.235    2.1350608    4.0248235   0.13198683 
   56500   -940.30827    45.910247   -894.39803    1644.3385   -1101.8341    2.1623747    5.4432839   0.12000828 
   56600   -948.97197    44.760341   -904.21163    1603.1531    11663.757    2.2101352    4.5741753   0.11003389 
   56700   -941.49496    44.034451   -897.46051    1577.1543   -2140.8918    2.1617469    5.6144054   0.12353351 
   56800   -942.19783     46.71703    -895.4808    1673.2346    -2706.698    2.1571864    4.7782319   0.12281951 
   56900   -949.53916    50.338287   -899.20087    1802.9349    -113.0783     2.180772    5.6007726   0.12973048 
   57000   -951.07495    46.227978   -904.84697    1655.7185    1999.4699     2.187844    5.4177709   0.10625318 
   57100   -944.58265    49.878205   -894.70445    1786.4564   -8454.2901    2.1473054    6.7600804   0.12137444 
   57200   -943.19127    46.822769    -896.3685    1677.0218   -597.46652    2.1676254    6.7502247   0.11392477 
   57300   -945.62477    45.646578   -899.97819    1634.8949    6728.6354    2.1872042    6.2402178   0.12366099 
   57400   -941.17517    49.028751   -892.14642    1756.0321   -874.86231    2.1642912    5.2402321   0.12940396 
   57500   -940.97597    48.394994   -892.58097    1733.3332   -3646.8176    2.1520842    5.9697933   0.11762954 
   57600   -946.91202    49.993934   -896.91808    1790.6014   -2706.9119    2.1622781    4.0836931   0.11413534 
   57700   -946.97598    46.815345   -900.16064    1676.7559    2986.1699        2.183    5.2834143   0.11060134 
   57800    -944.8578    51.295035   -893.56277    1837.2021    1533.6537    2.1719196    6.9211945   0.12382547 
   57900   -942.83133    50.414322   -892.41701    1805.6582   -9051.2339    2.1439811    7.9689524   0.13407523 
   58000   -943.64755    45.640987   -898.00656    1634.6947   -2976.1774    2.1585258    5.2197076   0.11213659 
   58100   -944.72526    48.400814   -896.32445    1733.5416    11845.662    2.1989397    5.2105338   0.11017112 
   58200   -936.46928    49.186841   -887.28244    1761.6943   -1165.2288    2.1475786    4.1122172   0.12382248 
   58300   -941.95695    45.818002   -896.13895    1641.0347   -8487.3317    2.1412788    5.8202356   0.12239327 
   58400   -947.17554    49.857132    -897.3184    1785.7017    2001.6611    2.1773477    5.2716533   0.11270334 
   58500   -944.35199    49.925042   -894.42694     1788.134    8890.2853    2.1850378    7.1359181   0.10467867 
   58600    -936.0071     48.58782   -887.41928    1740.2395    -6326.206    2.1319214    5.6840138    0.1279354 
   58700   -943.27461    44.885843   -898.38877    1607.6481   -3082.3124     2.161669    6.4656881   0.12146294 
   58800   -948.02087    50.486493   -897.53438    1808.2431    4288.5188    2.1829599    5.7305226   0.10336614 
   58900   -946.03657    50.161273   -895.87529    1796.5949   -164.43762     2.167679    4.3236911   0.11012807 
   59000   -941.80041    51.176433   -890.62398    1832.9543   -9757.0021    2.1386398    5.8857836    0.1325164 
   59100   -936.32341     51.43962   -884.88379    1842.3807    1021.9896    2.1519975     5.379463    0.1257957 
   59200   -943.93022    48.960786   -894.96943    1753.5978    14065.305    2.2045196    4.7064349   0.12574598 
   59300   -942.01092    45.955165   -896.05575    1645.9474   -6002.9216    2.1505268     5.356923        0.107 
   59400    -941.9661    43.311441   -898.65466    1551.2587   -14952.782    2.1275187    7.5992407   0.12039822 
   59500   -947.93942    49.080197   -898.85922    1757.8747    14387.153    2.2118976    6.8648917  0.096643301 
   59600   -939.69984    50.362344   -889.33749    1803.7965    5130.6881    2.1708829    6.4997301   0.11456634 
   59700   -941.82569    45.414882   -896.41081    1626.5964   -8976.9598    2.1435771    5.7085228   0.11806913 
   59800   -945.95862    47.856191   -898.10243    1714.0352    358.23137    2.1702021    5.0018437   0.11055407 
   59900   -946.48108    53.268913   -893.21217    1907.8993    6642.2193    2.1868488    3.9355942   0.10799662 
   60000   -936.41859    45.977999   -890.44059    1646.7652   -2719.1918    2.1459875    5.3067973   0.12062462 
   60100   -948.39352    49.503357   -898.89016    1773.0307   -7112.5981     2.159573    5.5367903   0.12021705 
   60200   -945.22844    49.450532   -895.77791    1771.1387    7031.3349    2.1884047    5.4002527   0.11512758 
   60300   -941.96069    52.908364   -889.05233    1894.9857    1519.1721    2.1647434     7.372844   0.11558266 
   60400   -944.80683    49.087605   -895.71923      1758.14   -8094.6712    2.1457447    5.6609158   0.11894321 
   60500   -942.55161     44.15123   -898.40038     1581.337   -114.87137    2.1694306    6.3193911   0.12136454 
   60600    -943.7906    49.877882   -893.91271    1786.4448    8063.2175    2.1878775    5.5225082   0.12228939 
   60700    -941.7069    46.679584   -895.02731    1671.8934    -2644.378    2.1554386    6.3745376   0.12505042 
   60800   -945.92348    42.548731   -903.37475    1523.9412   -2264.8801    2.1739588    5.2030711   0.11151613 
   60900   -944.34346       47.811   -896.53246    1712.4166    6672.1515    2.1891907    5.5535796   0.12809654 
   61000   -938.86326    44.402603   -894.46066    1590.3402    3328.6509    2.1710329    6.7880722   0.11634084 
   61100   -944.73462    43.804942   -900.92968    1568.9342   -7080.0901    2.1574328    5.0955824   0.13925161 
   61200   -948.11895    46.649188   -901.46977    1670.8047    1238.5232    2.1840543    5.0280694   0.12020169 
   61300   -943.13279    49.526706   -893.60608     1773.867    12150.108    2.1960251     3.549129   0.12561831 
   61400   -942.90068    47.004379    -895.8963    1683.5264    -11589.31    2.1401311    12.685027   0.15875016 
   61500   -946.99925    46.812721   -900.18653    1676.6619   -16588.278    2.1331334    12.996956   0.14564683 
   61600   -947.61923    47.504976   -900.11426     1701.456    21520.491    2.2318099    13.944845   0.13283978 
   61700   -939.35265    47.310868   -892.04178    1694.5037    6544.0384    2.1744981    14.523565   0.14962326 
   61800   -940.69053    44.845534     -895.845    1606.2044   -11456.315    2.1300094    8.7129572   0.14093297 
   61900   -948.06669    49.374831   -898.69186    1768.4274    -280.6279    2.1759761     12.09223    0.1436542 
   62000   -947.93002    44.321933   -903.60808    1587.4509    10296.313    2.2040364    13.781038   0.13656979 
   62100   -947.15868    42.194433   -904.96425    1511.2516   -4073.2164    2.1702709    14.333783   0.13360977 
   62200   -945.22699     48.82582   -896.40117    1748.7638   -11774.885    2.1409352     16.68189   0.14495831 
   62300   -943.46929    47.609824   -895.85947    1705.2113    4821.6547    2.1826654    11.977008   0.14723021 
   62400   -941.32012    46.424651   -894.89547    1662.7626    7822.3258    2.1846428    13.685642   0.15137939 
   62500   -943.70188    44.162126   -899.53975    1581.7272   -7050.5755    2.1522428    11.020891   0.13877726 
   62600   -946.51028    42.885146   -903.62514    1535.9904   -2183.0386     2.174056    11.572747   0.14141613 
   62700   -940.09668    45.424082    -894.6726    1626.9259    7379.0713    2.1840534    15.005054   0.14911617 
   62800    -943.0666    47.363041   -895.70356    1696.3724   -4831.6499    2.1613489    14.314281    0.1200749 
   62900   -942.47797    40.611336   -901.86663    1454.5508    -5219.564    2.1584437     16.04311    0.1287686 
   63000   -947.27191    47.177054   -900.09485     1689.711    4699.6958     2.187908    11.989604   0.12181486 
   63100   -943.95497    50.619096   -893.33587    1812.9924    5304.0599    2.1798707    11.587514   0.11917953 
   63200   -943.03452    44.569775   -898.46475    1596.3277   -8001.2244    2.1491926    12.738368   0.12154954 
   63300   -945.16407    46.886399   -898.27767    1679.3008   -2267.1674    2.1655379    14.880463   0.11083708 
   63400   -939.40528    50.529223   -888.87606    1809.7735    8309.1743    2.1748424    15.488052   0.13132844 
   63500   -944.20755     48.65849   -895.54906    1742.7707    365.46045    2.1693946    15.624233   0.13096489 
   63600   -944.21321    44.892574   -899.32064    1607.8892    -7657.625    2.1529504    14.546571   0.13209988 
   63700   -938.69074    47.330049   -891.36069    1695.1907    3577.5986    2.1685444    16.364689   0.12588791 
   63800   -942.62126    50.153073   -892.46818    1796.3012    9876.3694    2.1898022    12.201711   0.12046333 
   63900   -942.63992    43.841035   -898.79889    1570.2269   -10823.365    2.1437668    14.364697   0.13284305 
   64000   -939.98141    43.224819   -896.75659    1548.1563   -7289.0428    2.1464664     13.39385   0.13860741 
   64100   -938.28712     49.89226   -888.39486    1786.9598    26190.137    2.2224789    14.419838    0.1402873 
   64200   -944.76246    47.779115   -896.98334    1711.2746   -1496.9344    2.1688721    14.629907   0.13483238 
   64300   -946.43385    44.929976   -901.50387    1609.2288   -16806.231    2.1338223    16.438142   0.13087541 
   64400   -940.27389     46.59163   -893.68226    1668.7432    3581.2389    2.1733852    15.669549   0.13699792 
   64500   -942.13136    46.512863    -895.6185    1665.9221    9946.9827    2.1924339    16.109741   0.13129461 
   64600   -946.99043    43.995869   -902.99456    1575.7725   -4698.9582    2.1679277    13.049937   0.12050399 
   64700   -942.61177     47.71466   -894.89711    1708.9661   -4951.1749    2.1511785    12.666842   0.12983673 
   64800   -943.88536    49.983064    -893.9023    1790.2121     7573.976    2.1840528    15.563749   0.12152852 
   64900   -947.80932    46.270392   -901.53893    1657.2376    4219.5391    2.1917302    12.875131   0.12853601 
   65000    -940.4786    46.705437   -893.77316    1672.8194   -7338.4731    2.1441473    15.303126   0.14345563 
   65100   -943.99663    49.898235    -894.0984    1787.1738   -904.33261    2.1669294    15.486528   0.12283049 
   65200   -944.46017    44.909519   -899.55065    1608.4961    11042.721    2.1967076    13.581985     0.127285 
   65300   -944.07182    50.696444   -893.37538    1815.7628   -3497.8706    2.1589441     17.05595   0.12813218 
   65400    -939.4677    46.237671   -893.23003    1656.0657   -4405.9848    2.1471565    17.737248   0.13073299 
   65500   -946.00884     46.50929   -899.49955    1665.7941    4408.0935    2.1866254    16.830354   0.12455336 
   65600   -944.87344    51.247123   -893.62632    1835.4861    6333.3491    2.1875334    14.689032    0.1347721 
   65700    -939.9378     46.40915   -893.52866    1662.2074   -6003.9948     2.146005    12.784804   0.13830136 
   65800   -946.47422     45.06704   -901.40718    1614.1379   -6323.5125    2.1618218     14.15145   0.13358795 
   65900   -946.46036    51.212795   -895.24757    1834.2566    11075.967    2.1993356    13.376532   0.12187205 
   66000   -942.38214    50.000505   -892.38164    1790.8368    2894.4543    2.1729581    14.412345   0.12221572 
   66100   -945.90399    44.394476   -901.50951    1590.0491   -8717.6167    2.1514863    17.269747   0.12789351 
   66200   -945.01217    47.623056   -897.38912    1705.6852   -1340.8375    2.1731934    14.939653    0.1268882 
   66300   -942.26462    51.497811   -890.76681    1844.4648    12225.356    2.1941313    14.682337   0.14824984 
   66400   -948.60236      49.1845   -899.41786    1761.6104   -3750.1688    2.1686018    15.765568   0.11908457 
   66500   -945.63721    46.807003   -898.83021    1676.4571   -12058.584    2.1429717    13.253668   0.12916864 
   66600   -938.60545    47.389565   -891.21588    1697.3224    9391.7779    2.1817762    14.343064   0.13162651 
   66700   -944.06402    47.385522   -896.67849    1697.1776    14121.555    2.2052455    13.655815   0.12045048 
   66800   -947.35674    45.836558   -901.52018    1641.6993   -16449.374    2.1408461    14.744985     0.124697 
   66900   -941.53339    47.966272   -893.56711    1717.9779   -12362.871    2.1333535    14.264663   0.13163451 
   67000   -941.84181    49.375411    -892.4664    1768.4482    24139.428     2.225268     15.67057   0.12011551 
   67100   -946.58287    46.468671    -900.1142    1664.3393    2680.5159    2.1824146    14.301699   0.11286395 
   67200   -943.23498    47.381421   -895.85356    1697.0307   -8601.9713    2.1475113    13.163442   0.13433772 
   67300   -940.78286    49.571189   -891.21167    1775.4602    628.81817    2.1642118    15.008082   0.12498761 
   67400   -947.43895    46.541605   -900.89735    1666.9515    7537.2544    2.1968978    12.791363   0.13282429 
   67500   -943.72622    47.283226   -896.44299    1693.5137   -4981.7826    2.1545319    14.598782   0.11433216 
   67600   -940.41637    47.000059   -893.41632    1683.3717   -2806.5042    2.1510464     14.20827   0.12140349 
   67700   -946.92024    45.314047   -901.60619    1622.9848    8337.1395    2.1976358    16.307359   0.11943142 
   67800   -940.77712    43.594309   -897.18281      1561.39     4733.288    2.1779777    16.294225   0.12769675 
   67900   -936.97223    42.880669   -894.09156    1535.8301   -5401.9304    2.1448935    17.563794   0.14881701 
   68000   -949.75343    49.608817   -900.14461    1776.8079   -2443.1755    2.1733704    13.695532   0.11114152 
   68100   -949.12995    50.063236   -899.06672    1793.0836     8358.971    2.2029881    15.186402   0.12410702 
   68200   -939.06515    46.772427   -892.29272    1675.2187   -3077.7876    2.1553223    12.427843   0.13619077 
   68300   -944.08769    44.591706   -899.49598    1597.1132   -8253.7592    2.1498535    16.215957   0.11714944 
   68400   -947.66911    49.961016    -897.7081    1789.4224    6035.9048    2.1911882    12.734249   0.12282596 
   68500   -940.03465     50.57138   -889.46327    1811.2834    6896.9502    2.1745535    16.792362   0.12289807 
   68600   -942.27015    44.228841    -898.0413    1584.1167    -7240.224    2.1532213    14.432127   0.12135528 
   68700   -945.11747    46.794465   -898.32301     1676.008   -4842.9101    2.1657725    14.879716   0.12850895 
   68800   -940.76794    51.288362   -889.47957    1836.9631     8670.277    2.1798206    12.928731   0.12355321 
   68900   -944.83282    47.898417    -896.9344    1715.5476    390.53843    2.1751041    15.886111   0.12136303 
   69000   -943.00362    42.927085   -900.07654    1537.4925   -8363.4558    2.1498307    15.051063    0.1426017 
   69100   -940.15988    47.283791   -892.87609    1693.5339    3361.1051    2.1636718    16.246082   0.10570355 
   69200   -944.94477    46.816527   -898.12824    1676.7982    8052.7586    2.1872588    13.889638   0.12453487 
   69300   -945.21598    43.657906   -901.55807    1563.6679   -2700.9705    2.1690129    16.073646   0.12064009 
   69400   -941.63099     47.06183   -894.56916    1685.5841   -3085.7842     2.155939    11.998507   0.11562032 
   69500    -941.8664    45.302905    -896.5635    1622.5858    3450.8599    2.1765714    15.845885   0.12289585 
   69600   -947.48343    44.425816   -903.05761    1591.1716    3945.6277    2.1873173    15.001972   0.10746784 
   69700   -939.70614    45.484926   -894.22122    1629.1051   -2896.4789    2.1544815    13.915317   0.12265312 
   69800   -944.22408    48.190789    -896.0333    1726.0193   -1035.6023    2.1680354    13.173252   0.14047767 
   69900   -948.23874    46.357023   -901.88172    1660.3405    4014.4111    2.1884418    16.162515    0.1201367 
   70000   -940.74828    48.402197   -892.34608    1733.5911   -3385.9699    2.1566351    12.658001   0.14359798 
   70100   -946.80773    50.869464   -895.93826    1821.9597   -5457.9446    2.1625766    16.124551   0.13826422 
   70200   -945.06048    44.979202   -900.08127    1610.9919    4497.7799    2.1824716    12.825382   0.10864616 
   70300   -941.78439    50.365268   -891.41912    1803.9012   -400.50484    2.1637962    17.013068   0.13986292 
[...]
  186800   -948.45604    51.462345    -896.9937    1843.1946   -4670.0245    2.1633607     124.1724     0.114983 
  186900   -946.95527    48.059736   -898.89554    1721.3255   -5591.6204    2.1649502     127.6944   0.12543102 
  187000   -940.94617    50.577834   -890.36834    1811.5146    1165.2917    2.1665982    127.27636   0.13810787 
  187100   -943.77189    46.095784   -897.67611    1650.9838      3713.48    2.1805178    127.72426   0.14126194 
  187200   -945.64985    45.843346    -899.8065    1641.9424   -6251.8981     2.162161    123.62231   0.14009408 
  187300    -939.1974     46.38433   -892.81307    1661.3185   -1954.2782    2.1628899    124.67498    0.1557152 
  187400   -942.19765    43.721863   -898.47579    1565.9586    6245.7551    2.1865307    125.75227    0.1284495 
  187500   -943.87391    44.033588   -899.84033    1577.1234   -2701.2504    2.1676483    118.95207   0.14464768 
  187600   -939.98985     46.09833   -893.89152     1651.075   -5178.5361    2.1488236    126.28851   0.13674496 
  187700   -944.32279    47.541076   -896.78172    1702.7489     7108.277    2.1898749    128.62412   0.12658051 
  187800   -946.17128     45.25496   -900.91632    1620.8685    9828.7144    2.1988807    120.63493   0.12402791 
  187900   -940.83609     47.60455   -893.23154    1705.0223   -14233.394    2.1263111    130.72665   0.13377459 
  188000   -941.83658    46.524504   -895.31208     1666.339   -4426.4371    2.1557814    124.02297   0.13855819 
  188100   -946.84306    48.657996   -898.18506     1742.753     17363.86    2.2192084    127.80472   0.13378844 
  188200    -944.0163    52.241911   -891.77439    1871.1158   -2766.9436    2.1624222    128.88091   0.13230407 
  188300   -942.07999    48.656075   -893.42392    1742.6842    -15310.87    2.1321372    128.38647   0.14083904 
  188400   -947.68112      48.4973   -899.18382    1736.9974    1602.4824    2.1832658    124.99134   0.12921981 
  188500   -945.98997    50.468758   -895.52121    1807.6079    8801.0635    2.1946421    126.01433   0.13032284 
  188600   -941.08427    49.638342   -891.44593    1777.8654   -9612.7375    2.1387633    131.10494   0.13112166 
  188700   -941.79211    40.703517   -901.08859    1457.8524   -356.42339    2.1681098    125.61478   0.12258164 
  188800   -944.92112    48.231169   -896.68995    1727.4656     6088.094    2.1883017    123.47228   0.12698225 
  188900   -939.56422    48.115848   -891.44837    1723.3352     267.9859    2.1615072    128.74739   0.16024626 
  189000   -944.88031    46.865867   -898.01445    1678.5654   -7486.5257    2.1547261     140.5148   0.16556615 
  189100   -945.46385    46.400841   -899.06301    1661.9099    891.39041    2.1738998    124.41138   0.12282638 
  189200   -947.34878    54.290241   -893.05854    1944.4795    3190.1309    2.1831275    130.71729   0.12481459 
  189300    -946.4644    46.385953   -900.07845    1661.3766   -5866.3335    2.1622231    126.04511   0.12870373 
  189400   -946.84899    45.875142   -900.97385    1643.0812   -8187.2565      2.15869    131.63492   0.12046713 
  189500   -943.24041    50.177232   -893.06318    1797.1665    6532.1619    2.1806887    121.19783   0.12458047 
  189600   -942.61532     44.92899   -897.68633    1609.1935     4206.352    2.1803141    116.88044   0.12221538 
  189700   -945.48656    42.692071   -902.79449    1529.0752   -7412.0374    2.1556366    117.75253    0.1314356 
  189800   -941.13069    47.987174   -893.14352    1718.7265   -306.52165    2.1566179     123.6139   0.12599473 
  189900   -944.27451    50.111961   -894.16255    1794.8287     16011.38    2.2052456     133.3728   0.14947934 
  190000   -945.65577    45.470814   -900.18495    1628.5997   -3887.9647     2.165011    133.98415   0.12649475 
  190100   -938.81787    45.754729   -893.06314    1638.7685   -19230.363    2.1138715    130.08575   0.14206041 
  190200    -938.8773    48.679267   -890.19803    1743.5148    12839.576    2.1877982     126.1278   0.13466373 
  190300   -945.37003    49.101566   -896.26846      1758.64    12723.147    2.2015127    122.51171    0.1162526 
  190400   -947.01765    48.054939   -898.96271    1721.1536    -14552.63    2.1379805    132.89843   0.11888807 
  190500   -936.50559    46.221705   -890.28389    1655.4939    1627.6505    2.1502334    131.56191   0.12549632 
  190600   -946.83837    49.477522   -897.36085    1772.1054    4444.1003    2.1864295    122.24753   0.11337365 
  190700   -946.85154     47.38794    -899.4636    1697.2642   -3725.0996    2.1682223    128.28838   0.11403544 
  190800   -938.88289     45.06219    -893.8207    1613.9642    -1921.283     2.152646    130.76116   0.12847998 
  190900    -943.8864    50.601764   -893.28463    1812.3717    3241.2947    2.1733306    134.64221    0.1279256 
  191000   -946.95105    45.726294   -901.22475      1637.75    6246.7664    2.1904123    135.77755   0.12686619 
  191100    -946.1369    50.377824   -895.75907     1804.351   -5442.7615    2.1579352    134.69075   0.11596464 
  191200    -940.6169    46.767124   -893.84978    1675.0288   -3806.1865    2.1533492    120.92524   0.12685176 
  191300   -945.21764    42.243558   -902.97408    1513.0111    10017.937    2.1994665    123.94814   0.10295776 
  191400   -944.34426    48.460811   -895.88345    1735.6905    975.57891    2.1700127    132.16994   0.12768342 
  191500   -940.69178    45.713642   -894.97814    1637.2969   -6101.4447    2.1497065     131.7029   0.13667048 
  191600   -944.86659    43.486151   -901.38044    1557.5162     1813.828    2.1801464    126.40183   0.12193515 
  191700   -947.25876    47.623263    -899.6355    1705.6926    7827.5709    2.1937464    127.27133   0.12564825 
  191800   -942.77996    49.233401   -893.54656    1763.3619   -5679.4967    2.1516794    124.31792   0.11613836 
  191900   -942.29808    43.122752   -899.17532    1544.5006   -4338.9918    2.1525673    128.39407    0.1158772 
  192000   -945.31555    47.240605   -898.07495    1691.9871    11339.371    2.2015578    119.82534   0.13262662 
  192100   -935.98961    46.654054   -889.33556     1670.979    4119.9017    2.1640273    131.71429   0.13556658 
  192200   -944.22293    46.570394   -897.65254    1667.9826   -12248.342    2.1390221     132.8283    0.1265397 
  192300   -944.64751    46.886345   -897.76116    1679.2988    2288.8757    2.1743289    122.38283   0.11813221 
  192400   -941.50514    51.615983   -889.88916    1848.6973    12553.414    2.1927295    125.12441   0.13068266 
  192500   -941.38355    47.173785   -894.20977    1689.5939   -7291.2364     2.148151    133.86708   0.13843265 
  192600   -943.98489    43.533978   -900.45091    1559.2292   -7202.8751    2.1567817    128.77752   0.13430375 
  192700   -937.34551    44.060224   -893.28529    1578.0774    9481.2624    2.1817129    124.96347   0.13522269 
  192800   -945.35824    50.561602   -894.79663    1810.9332   -2032.5595    2.1681186    127.45123   0.12520601 
  192900   -945.29928     43.22938    -902.0699    1548.3196   -2083.2484    2.1705823    119.56432   0.12075726 
  193000   -942.94224    47.979587   -894.96265    1718.4548    -1154.508     2.165405    123.84157   0.12850749 
  193100    -942.1964    47.686849   -894.50955      1707.97    1576.6878    2.1707002    127.01139   0.12274793 
  193200   -944.94372    41.985276   -902.95845    1503.7603    4559.3754    2.1821646    130.75811   0.11340223 
  193300   -944.08246    48.912018   -895.17044    1751.8511   -3861.7831    2.1591737    123.59285   0.11471614 
  193400   -943.42968    48.684994   -894.74469    1743.7199   -133.71994    2.1640182    126.92086   0.12558432 
  193500   -947.80373    45.520466   -902.28327     1630.378    3354.4521    2.1872862        128.6    0.1195808 
  193600   -944.91235    50.631783   -894.28057    1813.4468   -2021.5911    2.1624935    128.69615   0.11974809 
  193700   -947.60842    53.303136   -894.30529     1909.125   -4431.8613    2.1585367    125.27874   0.12372594 
  193800   -947.11883    46.508263   -900.61057    1665.7573     698.9531    2.1789879    121.58999   0.11256129 
  193900   -942.02142    46.181997   -895.83942    1654.0716     4353.587    2.1770654    124.32159   0.11995488 
  194000   -941.51101    48.974431   -892.53658    1754.0865   -2883.7516    2.1516521     126.6091   0.12747538 
  194100   -947.11597    47.157035   -899.95893     1688.994   -3740.8736    2.1632977    128.15271   0.11643118 
  194200   -943.82397    48.144447   -895.67952    1724.3595    8565.6961    2.1866805    120.12873   0.11980096 
  194300   -939.56174    49.193049   -890.36869    1761.9166    992.38998    2.1644183    126.64989   0.13533641 
  194400   -944.19358    44.267285   -899.92629    1585.4936   -5433.4511    2.1554877    123.48126   0.13217463 
  194500   -946.38327    49.230545   -897.15273    1763.2596   -328.35119    2.1694248    123.12591   0.12088985 
  194600   -940.30131    50.454919    -889.8464    1807.1122     11146.68    2.1814352     126.1068   0.13370987 
  194700   -947.25794     48.76146   -898.49648    1746.4586   -3931.6718    2.1629811     122.8121   0.13309622 
  194800   -948.48779    48.751689   -899.73611    1746.1087   -15191.215    2.1390901    126.01144   0.12008689 
  194900   -945.67497    53.323858   -892.35111    1909.8672    4604.5013    2.1817154     166.2919   0.15425337 
  195000   -944.97857    47.230226   -897.74834    1691.6154    7864.2988    2.1932475    160.82493   0.13708039 
  195100   -945.36259    42.650291    -902.7123    1527.5788   -6649.9854    2.1581603    174.39198    0.1211541 
  195200   -938.60408     44.03186   -894.57222    1577.0615   -1005.1237    2.1586837    175.73496   0.13937888 
  195300   -944.55274    48.562556   -895.99018    1739.3347    5634.8478    2.1862586    164.93465   0.13138608 
  195400   -946.85552    43.569614   -903.28591    1560.5056    2373.0806    2.1861315     166.8663   0.13506348 
  195500   -941.61852    47.444534   -894.17399    1699.2912   -6971.1722    2.1513796    169.69891   0.14617948 
  195600   -942.12807    46.866425   -895.26164    1678.5854    1473.9756    2.1734688     174.6001   0.14278492 
  195700   -943.26966    42.222838   -901.04682    1512.2689    7285.3979    2.1896864    168.55739   0.13820457 
  195800   -940.02728    47.803307   -892.22397    1712.1411   -1264.0935    2.1572345    174.14408   0.14219424 
  195900    -940.9321    46.838299    -894.0938     1677.578     744.6734    2.1639771    163.26293   0.14653499 
  196000   -944.60006    47.478574   -897.12149    1700.5103    4862.5338    2.1838185    157.08696   0.16039335 
  196100   -938.31617    48.513468    -889.8027    1737.5765     3352.802    2.1686256     177.5116   0.14654541 
  196200   -941.60833     51.18011   -890.42822    1833.0859   -10756.682    2.1373301    225.31232   0.14583815 
  196300   -945.05784    47.178481   -897.87936    1689.7621   -1622.8005    2.1720566    201.19937   0.15851264 
  196400   -940.90848    47.668441   -893.24004    1707.3107    14196.295    2.1948532     206.3393   0.14677944 
  196500   -938.02272    47.500534   -890.52219    1701.2969   -5583.9752    2.1401218    193.26763   0.15541907 
  196600   -941.06094    40.734819   -900.32612    1458.9735   -7590.5654    2.1462645    188.05276   0.15430468 
  196700   -944.00019    47.930442   -896.06975    1716.6946    12222.887    2.2011329    200.49166   0.12890554 
  196800   -941.07444    48.959454   -892.11499    1753.5501    3698.4984    2.1679834    206.18289   0.14061778 
  196900   -940.21677      46.2367   -893.98007    1656.0309     -14183.9    2.1291314    212.47819    0.1609356 
  197000     -946.049    45.953784   -900.09521    1645.8979    2020.6787     2.178317    203.74261   0.12641637 
  197100   -938.87377     47.14183   -891.73194    1688.4494    9784.6287    2.1856039    198.26321   0.15301733 
  197200   -945.93841    50.806141   -895.13227    1819.6917   -6443.1297    2.1564358    199.51296   0.14515776 
  197300   -948.10248     45.71346   -902.38902    1637.2904   -3225.7535    2.1676401    199.51399   0.14581719 
  197400   -940.22645    46.914227   -893.31222    1680.2975     4750.448    2.1699105    195.71188   0.16818003 
  197500   -943.51726    49.990329   -893.52693    1790.4723    6035.2194    2.1740353    206.83627   0.14955438 
  197600   -950.09022    49.098813   -900.99141    1758.5414   -4405.3009    2.1668253    200.30944   0.15539623 
  197700   -942.69465    50.152035   -892.54262     1796.264   -2158.7293     2.159816    219.38489   0.16641051 
  197800   -941.58564    48.921929   -892.66371    1752.2061    2148.3109    2.1728946    241.81295   0.15855404 
  197900   -947.45199    48.164527   -899.28746    1725.0787   -1030.2639    2.1753427    233.27296   0.12201138 
  198000   -939.21745    47.508638   -891.70882    1701.5871   -2384.6613    2.1511062    231.26233   0.15031332 
  198100    -938.9981    46.103533   -892.89457    1651.2614    1153.9335    2.1637413    179.52006   0.14492394 
  198200   -944.66519    46.094801   -898.57039    1650.9486    5223.1687    2.1841799    202.64148   0.15398016 
  198300     -940.367    47.665597    -892.7014    1707.2088    59.730637    2.1593302    204.54493    0.1728824 
  198400   -937.53436    46.281065   -891.25329    1657.6199   -3459.7182    2.1467147    195.90972   0.15456179 
  198500   -946.75764    47.743447   -899.01419    1709.9971    4353.4326     2.182574    190.37667   0.13791333 
  198600   -941.51213    48.262511   -893.24962    1728.5881    10644.572    2.1878942    188.77115   0.14500674 
  198700   -940.97551    46.909134   -894.06638    1680.1151   -9116.6302     2.140192    202.36575    0.1406131 
  198800   -946.88205    44.338079   -902.54397    1588.0292   -6202.4148    2.1603777    181.81901   0.15046934 
  198900   -942.58026    48.161156    -894.4191     1724.958     10995.43     2.194323    183.64226   0.13661021 
  199000   -944.26687     50.27695   -893.98992     1800.738     833.4005     2.174374    193.04889   0.13893628 
  199100   -942.40719    40.842288    -901.5649    1462.8226   -8585.7359    2.1486963    188.18273   0.15888114 
  199200   -944.76038    48.099644   -896.66074    1722.7548   -1806.1217     2.173509    195.10779   0.15203486 
  199300   -942.43533    51.693108   -890.74222    1851.4597    10783.594    2.1917903    199.69172   0.15261744 
  199400   -942.13662    43.911757   -898.22487    1572.7599   -2294.4062    2.1631445    208.79387   0.15398904 
  199500   -943.74114    48.575547    -895.1656    1739.7999   -6815.7775    2.1531074    189.14836   0.15569725 
  199600   -937.25422    50.243511   -887.01071    1799.5403    3516.8488    2.1685823     203.5158    0.1563077 
  199700    -943.9052       48.403    -895.5022    1733.6199    4356.3673    2.1780448    164.86384   0.15420657 
  199800    -945.0951    46.570962   -898.52414     1668.003   -6423.3046    2.1607026    150.55417   0.13184339 
  199900   -943.44219    51.653916   -891.78828    1850.0559   -1306.8391    2.1656676    151.71067   0.14629247 
  200000   -941.68244    50.678063   -891.00438    1815.1044    3544.9014    2.1715005    161.48129   0.12334395 
  200100   -940.51852    42.541116   -897.97741    1523.6685    1105.5406    2.1697153    157.10425    0.1361417 
  200200   -942.76927    46.580699   -896.18857    1668.3517    -890.7653     2.167065    161.14435   0.13705655 
  200300   -939.90483    51.464549   -888.44028    1843.2735    2563.4878    2.1664737    153.55852   0.12891064 
  200400   -944.30354    48.376995   -895.92655    1732.6885   -2228.7696    2.1679539    153.07404   0.13663838 
  200500   -942.90344    44.604462   -898.29898    1597.5701   -6045.2729    2.1529169    151.74211   0.12260422 
  200600   -944.45945    49.236675   -895.22278    1763.4792    3166.2584    2.1821125    147.17411   0.13536659 
  200700   -941.81703    46.197187   -895.61985    1654.6157    10232.015    2.1953457    147.48548   0.12719408 
  200800    -948.3157     43.80366   -904.51204    1568.8882   -13578.004     2.147922     157.4742   0.11758258 
  200900   -945.20176    45.305826   -899.89594    1622.6904   -10260.585    2.1487179    156.54753    0.1189228 
  201000   -944.92347    50.669716   -894.25376    1814.8055    17137.299    2.2133098    155.21073   0.12872564 
  201100   -948.01371    50.198221   -897.81549    1797.9182   -1286.6928    2.1748158    160.31916   0.10592621 
  201200   -951.45716    46.723003   -904.73416    1673.4485   -17053.255    2.1414091    151.63654   0.12788129 
  201300   -947.88307    47.354341   -900.52873    1696.0608    1397.9079     2.183728    111.65944   0.14299426 
  201400   -942.14398    47.653868   -894.49012    1706.7887    11468.862    2.1953467    149.36606   0.15903304 
  201500   -946.24166    50.401179   -895.84048    1805.1875   -8548.9992     2.149071    170.59904   0.13560788 
  201600   -947.23616    46.043424   -901.19273    1649.1085   -6176.5908    2.1613849    173.75774   0.10412583 
  201700   -946.38113    44.277416   -902.10372    1585.8565    10779.978    2.2037732    165.10596   0.12202139 
  201800   -940.45963    45.876402   -894.58323    1643.1263    4898.2575    2.1755912    170.27903   0.13693374 
  201900   -944.19021    47.187568   -897.00264    1690.0876   -8795.9508    2.1458472    174.66418    0.1255687 
  202000   -951.39352    47.856153   -903.53737    1714.0339    -535.2951    2.1818352     167.9186   0.11381665 
  202100   -944.92349    46.521032   -898.40245    1666.2146    11284.149     2.200163    167.80702   0.10895756 
  202200   -944.12629    48.993636   -895.13266    1754.7744   -3141.4856    2.1619268    174.12745   0.13833907 
  202300   -945.85638    47.814453   -898.04193    1712.5403    -10866.65    2.1485227    163.54755    0.1467138 
  202400   -945.49284    48.344488   -897.14835    1731.5242     5760.529     2.188793    171.24902   0.13490284 
  202500   -938.10377    50.260039   -887.84373    1800.1323     3976.888    2.1634892    171.22443   0.12496607 
  202600   -942.93504     46.99307   -895.94197    1683.1214   -4211.8733    2.1569547     172.2875   0.12606492 
  202700   -944.32755    46.628428   -897.69912    1670.0612    3037.3523     2.175033    174.57695   0.12354496 
  202800   -943.58966    49.106318   -894.48334    1758.8102    2385.0974    2.1795584    179.57686   0.13262898 
  202900    -936.3211    47.271271   -889.04983    1693.0855   -2286.6212     2.148503    177.69975   0.16553454 
  203000   -947.54936    49.808473   -897.74089    1783.9589   -2506.6796     2.171658    167.83065   0.13487228 
  203100   -945.21024    48.666846    -896.5434    1743.0699    3399.3922    2.1827885    174.02173   0.13613319 
  203200   -938.28711    49.047104      -889.24    1756.6894   -744.69271    2.1612429    167.95276    0.1628745 
Loop time of 141.457 on 1 procs for 200000 steps with 217 atoms

Performance: 366.473 ns/day, 0.065 hours/ns, 1413.861 timesteps/s
100.0% CPU use with 1 MPI tasks x no OpenMP threads

MPI task timing breakdown:
Section |  min time  |  avg time  |  max time  |%varavg| %total
---------------------------------------------------------------
Pair    | 135.82     | 135.82     | 135.82     |   0.0 | 96.01
Neigh   | 2.4771     | 2.4771     | 2.4771     |   0.0 |  1.75
Comm    | 0.91936    | 0.91936    | 0.91936    |   0.0 |  0.65
Output  | 0.071782   | 0.071782   | 0.071782   |   0.0 |  0.05
Modify  | 1.8591     | 1.8591     | 1.8591     |   0.0 |  1.31
Other   |            | 0.3114     |            |       |  0.22

Nlocal:    217 ave 217 max 217 min
Histogram: 1 0 0 0 0 0 0 0 0 0
Nghost:    953 ave 953 max 953 min
Histogram: 1 0 0 0 0 0 0 0 0 0
Neighs:    4135 ave 4135 max 4135 min
Histogram: 1 0 0 0 0 0 0 0 0 0
FullNghs:  8270 ave 8270 max 8270 min
Histogram: 1 0 0 0 0 0 0 0 0 0

Total # of neighbors = 8270
Ave neighs/atom = 38.1106
Neighbor list builds = 4192
Dangerous builds = 49
Total wall time: 0:02:23
