LAMMPS (3 Mar 2020)

# ---------- 1. Initialize simulation ----------
units metal
atom_style atomic
dimension 3
boundary p p p
read_data /home/modeler/RemLabs/Project/eval_timestep_nvt/n3_T1800_timestep3.923800e-03_steps3823/20201205-225118/lammps.data
  orthogonal box = (0 0 0) to (17.469 17.469 17.469)
  1 by 1 by 1 MPI processor grid
  reading atoms ...
  217 atoms
  read_data CPU = 0.00111615 secs

pair_style meam/c
pair_coeff * * library.meam Li Si LiSi.meam Li Si
Reading potential file library.meam with DATE: 2012-06-29
Reading potential file LiSi.meam with DATE: 2020-11-07

group Li type 1
1 atoms in group Li

velocity all create 1800 3320 dist gaussian

# ---------- 2. Describe computed properties----------
compute msdli Li msd
thermo_style custom step pe ke etotal temp press density c_msdli[4]
thermo 100

# ---------- 3. Specify ensemble  ----------
# fix 1 all npt temp 1800 1800 0.19618999258786515 tchain 2 iso 1.0 1.0 1.0 pchain 2
fix 1 all nvt temp 1800 1800 0.19618999258786515
# fix 1 all nve

# ---------- 4. Run -------------
timestep 0.003923799851757303
run 3823
Neighbor list info ...
  update every 1 steps, delay 10 steps, check yes
  max neighbors/atom: 2000, page size: 100000
  master list distance cutoff = 6
  ghost atom cutoff = 6
  binsize = 3, bins = 6 6 6
  2 neighbor lists, perpetual/occasional/extra = 2 0 0
  (1) pair meam/c, perpetual
      attributes: full, newton on
      pair build: full/bin/atomonly
      stencil: full/bin/3d
      bin: standard
  (2) pair meam/c, perpetual, half/full from (1)
      attributes: half, newton on
      pair build: halffull/newton
      stencil: none
      bin: none
Per MPI rank memory allocation (min/avg/max) = 9.27 | 9.27 | 9.27 Mbytes
Step PotEng KinEng TotEng Temp Press Density c_msdli[4] 
       0   -951.04357    50.256344   -900.78722         1800   -114161.75    1.8918427            0 
     100   -920.21717    36.837946   -883.37923    1319.4016   -83193.827    1.8918427  0.092230385 
     200   -902.84888      44.7738   -858.07508    1603.6351   -66365.026    1.8918427  0.076722739 
     300   -894.49659    50.479638   -844.01695    1807.9976    -55397.17    1.8918427    1.1086226 
     400   -904.02293    50.095214   -853.92772    1794.2289   -65657.976    1.8918427   0.42151399 
     500   -903.28361    47.689131   -855.59448    1708.0517   -67379.831    1.8918427  0.028310619 
     600   -900.00424    52.387105   -847.61714    1876.3161   -60592.294    1.8918427   0.37478655 
     700   -900.43326    47.743284   -852.68998    1709.9913   -65157.232    1.8918427    5.8967977 
     800   -899.41596    48.003609   -851.41235    1719.3152   -62482.049    1.8918427    1.8171141 
     900   -893.27971    47.664062   -845.61565    1707.1538   -58010.897    1.8918427    5.4513415 
    1000   -899.88428    48.128021   -851.75626    1723.7712   -64290.691    1.8918427    6.2439664 
    1100   -898.24051    48.864044   -849.37647    1750.1328   -62413.136    1.8918427    7.5961413 
    1200   -904.65117    47.911511   -856.73966    1716.0166   -70079.296    1.8918427    10.080666 
    1300   -901.36873    50.626064   -850.74267     1813.242   -66485.434    1.8918427    9.9415453 
    1400   -898.02934     50.14396   -847.88538    1795.9748   -65972.007    1.8918427    6.8862543 
    1500   -900.48777    45.512847   -854.97492    1630.1051   -67230.634    1.8918427    5.4297181 
    1600   -898.09678    52.649757   -845.44702    1885.7234   -59237.195    1.8918427    13.329519 
    1700   -900.19121    50.899002   -849.29221    1823.0177    -64600.88    1.8918427    8.3693995 
    1800    -900.7566    47.899901    -852.8567    1715.6007   -66934.586    1.8918427    11.327382 
    1900   -898.26573    49.213706   -849.05203    1762.6565    -62452.36    1.8918427    19.791834 
    2000   -894.29865    55.198247    -839.1004     1977.001   -58118.214    1.8918427     15.37561 
    2100   -900.77866    51.306918   -849.47174    1837.6277   -64097.787    1.8918427    13.865871 
    2200   -902.29621    48.378179   -853.91803    1732.7309   -63970.786    1.8918427    5.6333203 
    2300    -898.1998     52.28068   -845.91912    1872.5044    -62440.08    1.8918427    19.639677 
    2400   -896.77458    47.623213   -849.15137    1705.6908   -60472.964    1.8918427     15.90617 
    2500   -900.77002    47.713889   -853.05613    1708.9385   -65813.366    1.8918427    19.788749 
    2600   -903.61722    54.945802   -848.67141    1967.9594   -64397.317    1.8918427     4.983727 
    2700   -897.66193    53.283992   -844.37794    1908.4393   -62437.802    1.8918427     6.333471 
    2800   -902.75845     48.56908   -854.18937    1739.5683   -68093.035    1.8918427    7.5913232 
    2900   -899.40544    50.153903   -849.25154    1796.3309    -62310.44    1.8918427    4.9797894 
    3000    -899.4623      53.5246    -845.9377    1917.0571   -61146.488    1.8918427    8.3651505 
    3100   -905.28946    50.378574   -854.91088    1804.3778   -70595.014    1.8918427    5.5437648 
    3200   -898.45802    50.808876   -847.64915    1819.7897    -64090.81    1.8918427    5.7625533 
    3300   -903.40524    49.712503   -853.69274    1780.5216   -68061.949    1.8918427    3.7923828 
    3400   -903.23774    48.958347   -854.27939    1753.5105   -66322.616    1.8918427    6.7784072 
    3500   -900.50221    52.288004   -848.21421    1872.7667   -64783.408    1.8918427    6.2881312 
    3600   -905.24763    53.817804   -851.42982    1927.5586   -68300.588    1.8918427    4.8913328 
    3700   -903.68222    51.632342   -852.04988    1849.2833   -66656.677    1.8918427    4.6903016 
    3800   -900.39917    50.033818   -850.36535    1792.0299   -65661.226    1.8918427    17.560233 
    3823   -901.21006    51.288002   -849.92206    1836.9502   -64959.317    1.8918427    15.913206 
Loop time of 2.1935 on 1 procs for 3823 steps with 217 atoms

Performance: 590.863 ns/day, 0.041 hours/ns, 1742.876 timesteps/s
99.9% CPU use with 1 MPI tasks x no OpenMP threads

MPI task timing breakdown:
Section |  min time  |  avg time  |  max time  |%varavg| %total
---------------------------------------------------------------
Pair    | 2.0236     | 2.0236     | 2.0236     |   0.0 | 92.25
Neigh   | 0.12918    | 0.12918    | 0.12918    |   0.0 |  5.89
Comm    | 0.019354   | 0.019354   | 0.019354   |   0.0 |  0.88
Output  | 0.0011215  | 0.0011215  | 0.0011215  |   0.0 |  0.05
Modify  | 0.016132   | 0.016132   | 0.016132   |   0.0 |  0.74
Other   |            | 0.004147   |            |       |  0.19

Nlocal:    217 ave 217 max 217 min
Histogram: 1 0 0 0 0 0 0 0 0 0
Nghost:    879 ave 879 max 879 min
Histogram: 1 0 0 0 0 0 0 0 0 0
Neighs:    3624 ave 3624 max 3624 min
Histogram: 1 0 0 0 0 0 0 0 0 0
FullNghs:  7248 ave 7248 max 7248 min
Histogram: 1 0 0 0 0 0 0 0 0 0

Total # of neighbors = 7248
Ave neighs/atom = 33.4009
Neighbor list builds = 237
Dangerous builds = 46
Total wall time: 0:00:02
