LAMMPS (3 Mar 2020)
Reading data file ...
  orthogonal box = (0 0 0) to (17.469 17.469 17.469)
  1 by 1 by 1 MPI processor grid
  reading atoms ...
  217 atoms
  read_data CPU = 0.00105237 secs
Reading potential file library.meam with DATE: 2012-06-29
Reading potential file LiSi.meam with DATE: 2020-11-07
1 atoms in group Li
216 atoms in group Si
Neighbor list info ...
  update every 1 steps, delay 10 steps, check yes
  max neighbors/atom: 2000, page size: 100000
  master list distance cutoff = 6
  ghost atom cutoff = 6
  binsize = 3, bins = 6 6 6
  2 neighbor lists, perpetual/occasional/extra = 2 0 0
  (1) pair meam/c, perpetual
      attributes: full, newton on
      pair build: full/bin/atomonly
      stencil: full/bin/3d
      bin: standard
  (2) pair meam/c, perpetual, half/full from (1)
      attributes: half, newton on
      pair build: halffull/newton
      stencil: none
      bin: none
Setting up Verlet run ...
  Unit style    : metal
  Current step  : 0
  Time step     : 0.003
Per MPI rank memory allocation (min/avg/max) = 8.895 | 8.895 | 8.895 Mbytes
Step Temp E_pair E_mol TotEng Press Volume 
       0         1675   -951.04357            0   -904.27725   -114861.02    5330.9442 
    3200    1617.9484   -942.30241            0   -897.12898   -9664.4888    4711.9008 
Loop time of 2.27184 on 1 procs for 3200 steps with 217 atoms

Performance: 365.096 ns/day, 0.066 hours/ns, 1408.548 timesteps/s
100.0% CPU use with 1 MPI tasks x no OpenMP threads

MPI task timing breakdown:
Section |  min time  |  avg time  |  max time  |%varavg| %total
---------------------------------------------------------------
Pair    | 2.2024     | 2.2024     | 2.2024     |   0.0 | 96.94
Neigh   | 0.02022    | 0.02022    | 0.02022    |   0.0 |  0.89
Comm    | 0.014094   | 0.014094   | 0.014094   |   0.0 |  0.62
Output  | 2.5917e-05 | 2.5917e-05 | 2.5917e-05 |   0.0 |  0.00
Modify  | 0.030167   | 0.030167   | 0.030167   |   0.0 |  1.33
Other   |            | 0.004966   |            |       |  0.22

Nlocal:    217 ave 217 max 217 min
Histogram: 1 0 0 0 0 0 0 0 0 0
Nghost:    957 ave 957 max 957 min
Histogram: 1 0 0 0 0 0 0 0 0 0
Neighs:    4184 ave 4184 max 4184 min
Histogram: 1 0 0 0 0 0 0 0 0 0
FullNghs:  8368 ave 8368 max 8368 min
Histogram: 1 0 0 0 0 0 0 0 0 0

Total # of neighbors = 8368
Ave neighs/atom = 38.5622
Neighbor list builds = 34
Dangerous builds = 0
Setting up Verlet run ...
  Unit style    : metal
  Current step  : 3200
  Time step     : 0.003
Per MPI rank memory allocation (min/avg/max) = 9.662 | 9.662 | 9.662 Mbytes
Step PotEng KinEng TotEng Temp Press Density c_msdli[4] c_msdsi[4] 
    3200   -942.30241     45.17343   -897.12898    1617.9484   -9664.4888    2.1403906            0 3.6924357e-32 
    3300   -949.83027    45.501379   -904.32889    1629.6944    -2976.468    2.1764808   0.21997467  0.099028856 
    3400   -948.28947    47.227584   -901.06188    1691.5208    9492.1304     2.202704   0.10748453   0.10020159 
    3500   -945.95673    49.997213   -895.95952    1790.7188   -4937.5613    2.1592927   0.27681068   0.11269329 
    3600   -946.01852    45.483322    -900.5352    1629.0476   -11093.823    2.1442409   0.14081038   0.12224329 
    3700   -950.01534     48.54634     -901.469    1738.7539    3259.3956    2.1901354  0.045540727   0.10087885 
    3800   -941.39163    49.390219   -892.00141    1768.9785    7575.7607    2.1765707   0.28904183  0.093285689 
    3900   -950.44358    51.969728   -898.47385    1861.3672   -10917.338    2.1542803   0.33411115   0.11058535 
    4000   -946.24047    45.174743   -901.06572    1617.9954   -3957.6527    2.1649347  0.033702561   0.11232169 
    4100   -944.17615    51.187661   -892.98849    1833.3564    9191.5355    2.1896569   0.14333759   0.10424547 
    4200   -942.64638    48.283252   -894.36313     1729.331    858.23171    2.1699853  0.031360929   0.12003989 
    4300   -942.72165    41.449104   -901.27255    1484.5566   -7751.0243    2.1497863  0.063245611  0.094093467 
    4400   -945.87625    49.517765   -896.35849    1773.5468      -685.88    2.1739395   0.29972436    0.1357251 
    4500   -942.86854    52.144389   -890.72415    1867.6229    8569.5483    2.1817163   0.10582577   0.13008784 
    4600   -946.07037    45.395601   -900.67477    1625.9058   -1337.4859      2.16827    1.1215154   0.15299168 
    4700   -945.67382     47.09072    -898.5831    1686.6188   -6237.7142     2.150475     3.471042   0.14197916 
    4800   -945.53335    52.493984   -893.03936    1880.1441     2177.035    2.1727862    6.1976559   0.14261831 
    4900   -948.16366    46.424692   -901.73897    1662.7641    5992.2694    2.1927342    4.8655736    0.1305444 
    5000    -944.7524    45.321748   -899.43065    1623.2607   -7046.7617    2.1517716    3.7468471   0.14462836 
    5100   -944.05823     49.94861   -894.10962    1788.9781   -5605.6361    2.1558573    3.3628899   0.14784919 
    5200   -944.58022    45.511417   -899.06881    1630.0539    8888.5693    2.1927559    5.9776235   0.13952308 
    5300     -943.152    41.616995   -901.53501    1490.5698    2200.7381     2.176102    3.9840419    0.1618284 
    5400   -941.83366    49.600679   -892.23298    1776.5164   -9289.0547    2.1355438    2.7102568   0.14505152 
    5500   -945.22903    46.389247   -898.83979    1661.4946    630.38559    2.1748161   0.83583045   0.13949531 
    5600   -939.17977    40.645307   -898.53446    1455.7675    12354.014    2.1935734    5.1496236    0.1433705 
    5700   -938.10951    47.591792   -890.51772    1704.5654   -3857.4527    2.1482579    4.5584444   0.13978889 
    5800   -943.21717    46.384127   -896.83304    1661.3112   -7536.8847    2.1482397     4.718808   0.13493732 
    5900   -949.57199    50.752771   -898.81922    1817.7802    1170.1465     2.182464    4.6046783   0.12680075 
    6000   -942.53247    49.202648   -893.32982    1762.2604    10991.018    2.1844692     3.913233   0.15116032 
    6100   -943.49621    49.564078   -893.93213    1775.2055   -5733.6944    2.1489686     3.621522   0.13308471 
    6200   -948.10981    46.918088   -901.19172    1680.4358   -8986.2666    2.1589277    4.7622847   0.14703818 
    6300   -942.00095    46.574302   -895.42664    1668.1226    7863.2112    2.1842973    3.7204674   0.15578379 
    6400   -940.24207    46.189832   -894.05224    1654.3523    3744.3312    2.1702591    6.4343619   0.13575957 
    6500   -947.55649    43.378769   -904.17772    1553.6702   -2433.6305    2.1758816    5.6686242   0.15115375 
    6600   -946.25089    48.096083    -898.1548    1722.6273   -2449.8054    2.1695536    4.6852237     0.144959 
    6700   -941.40209    47.607435   -893.79466    1705.1257    5028.4027    2.1737921    4.1230483   0.15427613 
    6800   -944.37694    41.435261   -902.94168    1484.0608    4529.6433    2.1829653     6.166869   0.12854703 
    6900   -945.90683     45.77357   -900.13326    1639.4433   -8260.7371    2.1538559    5.4796202   0.11450429 
    7000    -944.6102    49.312207   -895.29799    1766.1844   -195.59355    2.1722945    6.4760985   0.13535261 
    7100   -948.39025     47.90617   -900.48408    1715.8253    7053.1506    2.1993934    6.9509568   0.11294434 
    7200   -949.54481    45.046062   -904.49874    1613.3866   -6646.3888    2.1631392    5.4023661   0.11633115 
    7300   -940.33921    44.934603   -895.40461    1609.3945   -6644.3051    2.1429882    5.2067224   0.14031894 
    7400   -942.42602    44.572756   -897.85326    1596.4345    11427.226    2.1971046    6.7070115   0.12825962 
    7500   -945.67492    43.466101   -902.20882    1556.7981    8712.3188    2.1946791    5.1440061   0.12077491 
    7600   -940.41287    47.668968    -892.7439    1707.3296   -11412.902    2.1298061    4.2875661   0.12514921 
    7700   -947.72153    50.037925    -897.6836     1792.177   -3033.0402    2.1691902    5.5300367   0.12031568 
    7800   -948.78777     48.99234   -899.79543    1754.7279    8348.1582    2.1967482    5.7781394   0.12046198 
    7900   -943.41363    50.203057   -893.21057    1798.0914   -1661.3545    2.1597681    6.7126384    0.1132781 
    8000    -940.4835    44.585822   -895.89768    1596.9024   -6209.6382    2.1479896    4.8015268    0.1271337 
    8100   -945.83089    44.992322   -900.83857    1611.4618    4415.7212    2.1861148    6.0552493   0.11866887 
    8200   -947.19891    52.515652   -894.68325    1880.9202    3548.6184    2.1833162    6.2963532   0.12605351 
    8300   -940.15102    44.555357   -895.59566    1595.8113   -3710.0963    2.1528634     5.892149   0.13263639 
    8400   -947.13647    44.218704   -902.91776    1583.7536   -1913.3517    2.1733393    6.0772387   0.12771254 
    8500    -940.5038    45.006924   -895.49688    1611.9848    8559.7966    2.1816028    6.2662312   0.12124152 
    8600   -946.07827    49.545268   -896.53301    1774.5318   -747.54108    2.1714289    7.0089325   0.11662071 
    8700   -948.20685    44.115881   -904.09097    1580.0709   -3588.6987    2.1722567    6.0257273   0.11897483 
    8800    -945.0571    48.565822   -896.49128    1739.4516   -1986.2371    2.1674859    7.0612616   0.11792731 
    8900   -945.42541     49.24538   -896.18003    1763.7909    1653.2828    2.1766435    4.5151301    0.1219617 
    9000   -947.71155    43.470594   -904.24096     1556.959    1653.0926    2.1876304    6.9020633   0.11973635 
    9100   -943.34463    47.062221   -896.28241    1685.5981   -1974.1322    2.1624416    4.9863111   0.11421525 
    9200   -943.52022    47.410677   -896.10954    1698.0785    643.43291    2.1727089    6.0782175   0.11838668 
    9300   -945.75409     42.57377   -903.18032    1524.8381     3859.932    2.1879776    5.7891778    0.1235544 
    9400    -942.4998    47.353533   -895.14626    1696.0318   -534.69488    2.1674129    5.2760092   0.14152837 
    9500   -938.36096    42.515552   -895.84541    1522.7529    1995.7974    2.1661061    6.3423546   0.12995409 
    9600   -946.82788    45.390514   -901.43737    1625.7236    3607.8033    2.1824865    4.6874169   0.13800823 
    9700   -942.65368    50.035064   -892.61861    1792.0745    196.76005    2.1670335    3.9764764   0.12681108 
    9800   -940.70229    45.607467   -895.09482    1633.4941   -1837.3764    2.1607782    5.4361209   0.13690514 
    9900   -942.28998    41.587586    -900.7024    1489.5165    2769.7057    2.1741246    6.0935734    0.1356539 
   10000   -940.44139    48.093329   -892.34806    1722.5286    5790.8849     2.175883     4.578444   0.13632424 
   10100   -944.94258      49.8053   -895.13728    1783.8452    1128.5491    2.1733051     7.089932   0.10949483 
   10200   -948.29073    46.729934    -901.5608    1673.6968   -9216.2252    2.1561048    5.4293743   0.11962371 
   10300    -939.6311    43.925447   -895.70565    1573.2502    5884.1233    2.1743311    6.0902095   0.12456775 
   10400    -941.9724    51.200951   -890.77145    1833.8324    15947.796    2.2030193    4.9096843   0.14025907 
   10500   -946.36855    45.652571   -900.71598    1635.1096   -11825.185    2.1496336    5.3340015   0.12907194 
   10600   -943.99649    44.624951   -899.37154    1598.3039    -14707.81    2.1315921     5.363993   0.12331115 
   10700   -944.72658    51.137996   -893.58858    1831.5776    13148.629    2.1981838    6.9572205   0.12408638 
   10800   -948.17766    46.737514   -901.44015    1673.9682    7076.9244    2.1983182     7.917162   0.11845026 
   10900   -947.71425     44.19453   -903.51972    1582.8878   -11771.353    2.1535033    5.9014407   0.12340771 
   11000   -946.60145    50.221717   -896.37974    1798.7598   -7625.5112    2.1555991    5.3938257   0.11046537 
   11100   -948.50898    50.666909   -897.84207     1814.705    7858.3041    2.1957892     7.043608   0.13055971 
   11200     -953.369    48.764315   -904.60468    1746.5609    97.718012    2.1880212    5.5516222   0.11069785 
   11300    -940.4015    45.882248   -894.51925    1643.3357   -10366.731    2.1370645    3.8543582   0.13917466 
   11400   -942.21656     45.44493   -896.77163    1627.6726    4631.2093     2.177668     5.700366   0.14702896 
   11500   -943.38805    44.192772   -899.19528    1582.8248    10146.788    2.1941226    6.4260366   0.12233165 
   11600    -937.8904    46.509608   -891.38079    1665.8055   -723.18461     2.150702    6.0912521    0.1289967 
   11700   -940.59627    46.605572   -893.99069    1669.2426   -6120.9508    2.1502535    7.2446842   0.13325236 
   11800   -945.10882    46.129738   -898.97908    1652.1999    4540.8375    2.1824428    7.2734753   0.12345231 
   11900   -945.80805    47.418696   -898.38936    1698.3657    5767.7426    2.1843162    7.3442289   0.11256879 
   12000   -939.67269     50.38603   -889.28666    1804.6449   -7204.3592    2.1413555    4.8269015   0.13952008 
   12100    -943.7324    44.753159   -898.97924    1602.8958    1120.9131    2.1747614    5.7709449   0.13919309 
   12200   -949.17604    50.183343    -898.9927    1797.3854    2381.8511    2.1874039    7.1366947   0.13944074 
   12300   -942.98068    47.379972    -895.6007    1696.9788   -289.47827    2.1665752    5.6542826   0.13016788 
   12400   -940.12005    50.542249    -889.5778    1810.2401   -10579.427    2.1309773    7.7972507   0.13732582 
   12500   -946.90015     46.29312   -900.60703    1658.0517    11171.836    2.2030395    6.5681007   0.13228351 
   12600   -944.54088     46.91159   -897.62929     1680.203    11500.533    2.2016341    7.2692309    0.1322472 
   12700   -942.49666    44.844035   -897.65263    1606.1507   -14224.038    2.1318102     6.460018   0.13577522 
   12800   -942.27856    50.166267   -892.11229    1796.7737   -4738.7136    2.1509549    6.4722804   0.12156158 
   12900   -944.19918    56.164668   -888.03452    2011.6147    5932.4586    2.1810416    5.4484674   0.12763827 
   13000   -941.73838    46.091059   -895.64732    1650.8146    450.61137    2.1642209     4.647599   0.12594399 
   13100   -943.38743    44.750585   -898.63685    1602.8037   -4306.5095    2.1567127    4.9655377   0.12508733 
   13200   -947.28137    47.927975    -899.3534    1716.6062     437.6007    2.1769707    5.9023478   0.12020092 
   13300   -938.09261    48.752126   -889.34049    1746.1244    6769.4453    2.1751517    5.0508403   0.13404384 
   13400   -941.94634    47.885929   -894.06042    1715.1003   -1346.1169    2.1633457    6.5183945   0.13601575 
   13500   -946.50238    47.156023   -899.34636    1688.9577   -6309.4713    2.1588145     6.550245   0.12482425 
   13600   -944.81241    46.764901   -898.04751    1674.9492    3969.0972     2.180497    5.9598215   0.10865009 
   13700   -938.51511    50.164331   -888.35078    1796.7044    3360.7514    2.1690603    4.6996513   0.13380798 
   13800   -944.87649    47.660817   -897.21568    1707.0376   -2517.3396    2.1666642    4.6228423   0.13525578 
   13900   -944.98769    45.352082    -899.6356    1624.3471   -5515.8102    2.1598715    5.1428787   0.13168976 
   14000   -945.99314    51.820324   -894.17282    1856.0161    4205.2509    2.1830779    5.4230379   0.13957591 
   14100   -936.67629    46.885503   -889.79078    1679.2687    10154.803    2.1810872    5.7349891   0.13955824 
   14200    -941.3099    42.021503    -899.2884    1505.0578   -8892.6693    2.1457586    6.2422005   0.13561841 
   14300   -945.40579    46.413509   -898.99228    1662.3636   -3405.3903    2.1662618    6.2974196   0.12158551 
   14400   -943.70428    49.964778   -893.73951    1789.5571    13075.688    2.2034188    6.3639911   0.13327565 
   14500   -941.55428    45.085399   -896.46889    1614.7955   -2181.9986    2.1571926    5.6759923    0.1244272 
   14600   -948.16638    44.958622   -903.20776    1610.2548   -10970.576    2.1523198    3.7101014   0.12097605 
   14700   -946.87625    49.167767   -897.70848    1761.0111    6516.0168    2.1915776    5.4811161   0.13455141 
   14800   -945.63548    49.994964   -895.64051    1790.6383    5436.0624    2.1828909    6.1716905   0.12836605 
   14900   -947.51422    45.560898   -901.95332    1631.8261   -11375.256    2.1528994    7.8253931   0.12988524 
   15000   -947.90915    44.691261   -903.21789    1600.6789    -2697.244    2.1761257    5.9146068   0.12472661 
   15100    -944.2976    47.913366   -896.38423     1716.083    7303.8799    2.1906093    5.1300356   0.12843159 
   15200    -945.9846    47.645672   -898.33893    1706.4952   -591.45195    2.1726703    6.3700547   0.12274338 
   15300   -946.19223    39.460677   -906.73156    1413.3384   -2533.1483    2.1720783    5.9708245   0.11694626 
   15400   -942.13147    43.850862    -898.2806    1570.5789    899.73078      2.17032    5.1956915    0.1270096 
   15500   -944.19958    47.764924   -896.43466    1710.7664    7475.4787    2.1876578    4.3023499   0.12835933 
   15600    -948.1174    45.497983   -902.61942    1629.5727   -1766.9654    2.1753265    5.6741931   0.12327686 
   15700   -947.91779    45.524157   -902.39363    1630.5102   -5414.4448     2.163732    4.2408725   0.12133541 
   15800    -942.4927    47.467515   -895.02519    1700.1143    1053.5227    2.1698387    7.0365356   0.14319295 
   15900   -947.84385    49.590257   -898.25359    1776.1432    1624.2798    2.1763404    5.3545483   0.11981602 
   16000    -947.6102     46.63209   -900.97811    1670.1923   -1603.0557    2.1707001    6.9838903    0.1311644 
   16100   -944.23982    53.473426   -890.76639    1915.2242   -5134.5281    2.1535904    6.2168471   0.12742074 
   16200   -943.71073    48.624948   -895.08578    1741.5693     9600.816    2.1895631     5.774691   0.12467057 
   16300   -944.75387     45.17016   -899.58371    1617.8313   -3491.5269    2.1696574    4.4507477   0.12570428 
   16400   -944.42865     46.63919   -897.78946    1670.4467   -14209.631    2.1339649    5.0604539   0.12996054 
   16500   -937.13972    47.323151   -889.81657    1694.9436    11191.264    2.1811959    5.6113608   0.13702909 
   16600   -944.87886    47.660294   -897.21857    1707.0189    15021.994    2.2125515    7.4344314   0.16354705 
   16700   -943.98374    43.148861   -900.83487    1545.4357   -11020.186    2.1443629    6.2422933   0.12969644 
   16800    -939.6157    45.599907    -894.0158    1633.2233   -7514.0488    2.1393831    5.2595999   0.13925798 
   16900   -943.68588     46.55084   -897.13504    1667.2823    9442.3468    2.1948265    5.3007847   0.13029475 
   17000   -945.46542    43.729166   -901.73625    1566.2201    5295.6367    2.1856061    5.5985801   0.13107577 
   17100   -941.61629    43.999726   -897.61656    1575.9106   -5717.5389    2.1521244     5.558619     0.126987 
   17200   -941.49517    46.652793   -894.84237    1670.9339    765.73178    2.1615586    6.2487616   0.12194327 
   17300   -949.80351    45.255553   -904.54796    1620.8898    9237.3722    2.2046657     6.181085   0.11304104 
   17400   -944.57749    46.299623   -898.27786    1658.2846   -3872.6974    2.1620954    5.7875508   0.12269045 
   17500   -946.45104    49.734822   -896.71622    1781.3209   -9093.7318    2.1482355    6.0987456   0.11811576 
   17600   -946.99217    44.572453   -902.41972    1596.4236    5486.5869    2.1886076    6.5918005   0.12566611 
   17700   -949.69414    46.855683   -902.83846    1678.2006    5919.8196    2.1949384      6.55285   0.12592792 
   17800   -946.38564    50.469346   -895.91629     1807.629   -7432.3689    2.1487623    6.4425994   0.11505053 
   17900   -947.59454     47.77626   -899.81828    1711.1724    -6699.497    2.1555326    6.2435946   0.11690897 
   18000   -949.79055    47.109106   -902.68145    1687.2774    7940.8927     2.200984     6.460551   0.12228659 
   18100   -942.48248    50.105851   -892.37663    1794.6099    789.93997    2.1648114    6.4217618   0.12601194 
   18200   -946.84056     49.04888   -897.79168     1756.753   -10477.522     2.145353    5.5002784   0.10583075 
   18300   -946.29626    45.884055    -900.4122    1643.4004    3747.1643    2.1804797    6.7068213   0.10995735 
   18400   -943.56374    46.420792   -897.14295    1662.6244    12440.439    2.2003908    6.2304042   0.12385972 
   18500   -941.85781    49.272512    -892.5853    1764.7627   -12864.607    2.1335622    4.8145776   0.13929301 
   18600   -948.62611    48.042835   -900.58327    1720.7201   -14737.706    2.1402319    5.3444362   0.11994685 
   18700   -947.83992    50.546142   -897.29378    1810.3795    19194.363     2.216745    5.7683361   0.12882476 
   18800   -947.31508    53.980014   -893.33506    1933.3683    5841.5664    2.1875811    5.5558595   0.11960489 
   18900   -939.53188    44.986978    -894.5449    1611.2704   -13250.572    2.1244866    5.1259208   0.13782497 
   19000    -949.7491    48.421721   -901.32737    1734.2905   -1499.7354    2.1780904    6.1653469   0.11622054 
   19100   -945.23352    49.751793   -895.48173    1781.9288    6727.4443    2.1896827    5.8404242   0.11578837 
   19200    -941.6079    46.758094   -894.84981    1674.7054   -954.29983    2.1606086    4.7070674   0.13239159 
   19300   -945.01278    41.785578    -903.2272    1496.6079   -2046.3394    2.1723738    6.0424985   0.12095319 
   19400   -946.14981    49.466778   -896.68303    1771.7206    2721.3113    2.1795302    5.3628054   0.11963494 
   19500   -942.39558    47.314072   -895.08151    1694.6185    2569.9147    2.1765198    6.3811708    0.1281243 
   19600   -947.37985    43.339279   -904.04057    1552.2558   -2439.2621    2.1740545    5.2950058   0.12522525 
   19700   -946.51931    48.884662   -897.63464    1750.8713    -5117.965    2.1624993    5.5963672   0.13458822 
   19800   -943.18166    48.244045   -894.93761    1727.9267    3773.4029    2.1804933    4.9924782   0.12691673 
   19900    -947.9138    44.714205    -903.1996    1601.5007      6319.94    2.1905859    6.1763686   0.11512156 
   20000   -943.97448    47.028344   -896.94614    1684.3847   -9573.6781    2.1510482    5.6420331   0.12132397 
   20100   -943.07301    47.646254   -895.42676     1706.516   -2315.9789    2.1619761    6.9703746   0.12668135 
   20200   -947.97062    46.503533   -901.46709    1665.5879    9214.0867    2.1975078    6.2790213   0.11415436 
   20300   -940.97897    43.059721   -897.91925    1542.2431    3815.3952    2.1722807    5.0009712   0.11763794 
   20400   -942.17315    47.810167   -894.36298    1712.3868   -10151.301    2.1366932    6.2874928   0.11903608 
   20500   -943.34983    42.159728   -901.19011    1510.0086    3214.6765    2.1801923    4.5599762    0.1127766 
   20600   -945.76494    46.791433   -898.97351    1675.8994    11930.457    2.2022965    6.5753147   0.13131085 
   20700     -944.489    51.572558   -892.91644     1847.142   -8522.5501    2.1439227    6.0256683   0.12110511 
   20800   -942.15225    40.468639   -901.68361    1449.4399   -7015.9223    2.1500862    5.9668293   0.12059815 
   20900   -945.58465    46.279752   -899.30489    1657.5729    9344.1236    2.1953865     6.720911   0.11793192 
   21000   -942.96954    49.965883   -893.00366    1789.5967    5423.8073    2.1823699    6.1586057   0.12740216 
   21100   -945.18607    46.267869    -898.9182    1657.1473   -11683.688    2.1408421    5.4229681   0.11462267 
   21200   -946.45518    44.686502   -901.76868    1600.5084   -4429.8112    2.1655212    6.3073481   0.12577541 
   21300   -935.93191    42.903306   -893.02861    1536.6408    12396.071    2.1867269    3.2345627   0.13626937 
   21400   -947.11525    48.349256   -898.76599     1731.695   -1856.2484    2.1729346    4.4581448   0.12632783 
   21500    -948.5522    45.272472   -903.27972    1621.4958   -4916.8243    2.1677434    5.3377764   0.11528352 
   21600   -940.69556    46.440827   -894.25474     1663.342   -894.25578    2.1638773    6.1998494   0.13641901 
   21700   -945.08988    46.786986   -898.30289    1675.7402    3957.1144    2.1811772    4.8008078   0.13087493 
   21800   -947.94526    46.861817   -901.08344    1678.4204   -522.37113    2.1785512    5.7046783    0.1357433 
   21900   -941.47712    49.070718    -892.4064    1757.5352   -10091.884    2.1429868    2.9315815   0.14431969 
   22000   -944.96922    47.039706   -897.92951    1684.7917    1512.0038    2.1743241   0.64764169   0.13153107 
   22100   -945.79467    46.817419   -898.97725    1676.8302    9071.1158    2.1952157   0.20721982   0.13060316 
   22200   -943.59386    51.863072   -891.73078    1857.5472   -2933.1143    2.1592191  0.063104806   0.12451356 
   22300   -941.31385    44.646089   -896.66776     1599.061   -6389.7566    2.1504588   0.34630995   0.14538033 
   22400    -945.0474    44.864645   -900.18276    1606.8889    2616.1735    2.1857739  0.077032519     0.133676 
   22500   -943.76533    49.142294   -894.62304    1760.0988    9751.9955    2.1951023   0.12685837   0.13214242 
   22600   -944.74064    49.282832   -895.45781    1765.1323   -7191.2214    2.1529407   0.26326078   0.11724099 
   22700   -949.16958    45.558496   -903.61108    1631.7401   -6746.2888    2.1643087  0.036587889   0.11565761 
   22800   -944.65275    47.711421   -896.94133    1708.8501     11775.64    2.2010696   0.29357979   0.13228976 
   22900   -943.72236    48.192149   -895.53022     1726.068    4649.3109    2.1810212   0.19578403   0.13478111 
   23000   -950.32345    46.769588   -903.55386     1675.117   -14572.716    2.1484998   0.12006566   0.12945472 
   23100   -946.20357    44.788275    -901.4153    1604.1536   -2171.4942    2.1743337  0.066247004    0.1324055 
   23200   -944.45615    49.863112   -894.59304    1785.9158    8590.6869    2.1939024  0.047931489   0.12766449 
   23300   -945.00985    44.352999   -900.65685    1588.5636   -1997.4503    2.1723352   0.39887014   0.12382231 
   23400   -945.08482    42.011279   -903.07354    1504.6917   -2017.1279    2.1725327  0.094860549   0.12546328 
   23500   -941.95638    48.320385     -893.636    1730.6609    947.91913    2.1673801    0.1552368   0.12557527 
   23600   -945.89335    47.903445   -897.98991    1715.7277    2729.0976    2.1831747   0.19525156   0.12744108 
   23700   -943.17876    41.176961    -902.0018    1474.8094    1510.0834    2.1783564   0.45169778   0.12769803 
   23800   -944.11463    51.902458   -892.21217    1858.9578    -3675.394    2.1555039   0.13753078   0.11966647 
   23900   -943.57148    48.172034   -895.39945    1725.3476     5949.441    2.1838966    0.3025675   0.15473996 
   24000    -946.9594    47.592745   -899.36665    1704.5995    440.86818      2.18093    9.8471325   0.15218576 
   24100   -939.92482    47.554383   -892.37043    1703.2255   -7685.0451    2.1475822    3.3649006   0.16942265 
   24200   -938.92388    46.200459   -892.72342    1654.7329   -1434.5993    2.1581725    4.4576548   0.17083224 
   24300   -948.38792     49.67396   -898.71396    1779.1411    4492.9472    2.1874604   0.89155912   0.14638004 
   24400   -945.21517    49.692343   -895.52282    1779.7995    2159.6031    2.1750764   0.34896654   0.13482031 
   24500   -939.09609    47.725325   -891.37077    1709.3481   -9346.4891    2.1369694    0.3376438   0.14253503 
   24600   -944.51642    42.326143   -902.19027     1515.969    4064.4521    2.1830241   0.47487107    0.1440204 
   24700   -942.47572    44.653638   -897.82208    1599.3314     6809.166    2.1911959  0.093921924   0.14425611 
   24800    -943.2567    46.362776   -896.89393    1660.5465   -6895.0188    2.1448334   0.17823377   0.12331114 
   24900   -949.70425    46.776311   -902.92794    1675.3578    -10111.58    2.1548395  0.076597211   0.11856794 
   25000   -950.64364    47.749449   -902.89419    1710.2121    12569.657    2.2147138  0.059261861   0.12745766 
   25100   -943.60291    47.867548   -895.73537     1714.442    3615.6982    2.1825697  0.052702637   0.13355807 
   25200   -943.62036    44.887236   -898.73312     1607.698   -14376.217    2.1348482   0.14621494   0.12530485 
   25300   -949.12825    45.736578   -903.39168    1638.1184   -845.03575    2.1763166  0.071145445   0.11189326 
   25400   -946.96571    43.760391   -903.20532    1567.3385    12247.752    2.2081178   0.33520597   0.13399075 
   25500    -943.8632    47.557319   -896.30588    1703.3307   -5956.6208    2.1585208    0.3062204    0.1201158 
   25600   -947.13899    47.971777   -899.16722    1718.1751   -8379.1346    2.1582109   0.19762122   0.12794665 
   25700   -946.39616    46.456664    -899.9395    1663.9092      4554.39    2.1888154  0.018813986   0.12818187 
   25800   -941.53777     52.12799   -889.40978    1867.0355   -1708.1129    2.1638544   0.18100215   0.13523076 
   25900   -944.62384    47.915364   -896.70847    1716.1546   -2486.9354    2.1705617   0.19460591   0.14456295 
   26000   -943.10769    43.334206   -899.77348    1552.0741   -871.42044    2.1725389   0.26410879   0.13365243 
   26100   -941.99954    45.924881   -896.07466    1644.8627    3948.4826    2.1795055   0.10326743   0.13533068 
   26200   -942.86865    52.330155   -890.53849    1874.2764   -2816.7386    2.1588091   0.12079205   0.14225251 
   26300   -947.04644    47.587444   -899.45899    1704.4097   -3497.9669    2.1711288   0.11148218   0.12033161 
   26400   -949.59303    51.301864   -898.29117    1837.4467   -486.93257    2.1830306   0.16639814   0.14613955 
   26500   -940.02627    48.404785   -891.62149    1733.6839    1940.9592    2.1715208  0.086858733   0.13284436 
   26600    -942.6079    47.998583   -894.60932    1719.1352   -9986.9764    2.1430803   0.20182675    0.1204557 
   26700    -947.8495    47.555849   -900.29365     1703.278   -3584.7259    2.1677913     0.130451   0.12206779 
   26800    -945.3349    49.824494   -895.51041    1784.5327    14983.403    2.2055696   0.26367071   0.12377815 
   26900   -946.06317    47.512896   -898.55028    1701.7396   -4491.4843    2.1647424  0.039275492   0.12564284 
   27000   -946.43396    40.307482   -906.12648    1443.6678   -8727.7048    2.1546935     0.279667   0.12841482 
   27100   -949.36044    50.039677   -899.32077    1792.2398    2107.0797    2.1859994 0.0056939952     0.114941 
   27200   -946.46773    50.584815   -895.88291    1811.7646    6478.0703    2.1890574  0.071783711   0.12321634 
   27300   -944.13654    42.778314   -901.35823    1532.1641    -5376.696     2.161882   0.25983189   0.13003453 
   27400    -948.8914    45.040067   -903.85133    1613.1719   -3715.0551    2.1751583    0.1522458   0.11901665 
   27500   -944.11291    48.217036   -895.89588    1726.9594    3108.7222    2.1824439   0.11805282   0.13142575 
   27600   -946.09089      47.6883   -898.40259     1708.022    160.26866    2.1774776  0.091941076   0.12459007 
   27700    -949.1086    44.097667   -905.01094    1579.4185   -4283.5172    2.1712703   0.17751251   0.10568482 
   27800   -948.29201    48.993023   -899.29898    1754.7524    350.97061    2.1820366    0.2450822   0.13151675 
   27900   -946.65006    50.547698   -896.10237    1810.4352    5159.4212     2.182899   0.19750027   0.13084135 
   28000   -946.34353    46.398345   -899.94518    1661.8204   -4150.6517    2.1682924   0.09000005   0.13520233 
   28100    -946.3641     44.94018   -901.42392    1609.5943   -965.97227    2.1763741   0.11305323   0.14361387 
   28200   -942.08493    50.818365   -891.26656    1820.1295    198.59696    2.1642172  0.052823874    0.1269308 
   28300   -944.16709    47.823703   -896.34339    1712.8716    2313.1018    2.1795427    0.1281169   0.12893723 
   28400   -947.37337    47.275099   -900.09827    1693.2226   -1732.7942     2.178457   0.15064241   0.13224094 
   28500   -946.91983    51.747454   -895.17238    1853.4061   -3879.3348    2.1678816  0.092381336   0.11033452 
   28600   -942.79506    50.437054   -892.35801    1806.4724   -3026.2706    2.1625453   0.11746048   0.14658804 
   28700   -940.92305    41.289427   -899.63363    1478.8376    4451.3364    2.1806391  0.088806478   0.14210613 
   28800   -943.67956    46.175369   -897.50419    1653.8343     332.9077    2.1766366   0.12025387   0.15003027 
   28900   -936.44615    45.391255   -891.05489    1625.7502   -1303.0613    2.1584618   0.42442519   0.14984255 
   29000   -946.90715     45.73258   -901.17457    1637.9752    3883.2632    2.1870272    0.1276679   0.13429058 
   29100   -945.51127    46.821481   -898.68979    1676.9757   -7.5470222    2.1739105   0.16199574   0.11642342 
   29200   -942.58745    48.393442     -894.194    1733.2776   -2870.5011    2.1621473   0.13345923   0.14277716 
   29300   -948.44734     45.26049   -903.18685    1621.0666   -29.568651    2.1819566   0.20230293   0.13192396 
   29400   -943.62551    42.582794   -901.04272    1525.1613    1339.4568    2.1791318   0.16202852   0.12941999 
   29500   -943.93481    48.328287   -895.60653     1730.944    416.69231    2.1694517   0.16300429   0.13394145 
   29600   -945.37959    45.758678   -899.62091    1638.9099    110.08577    2.1732212    0.2683784   0.13219597 
   29700   -948.07262    43.691032   -904.38159    1564.8543    1308.6377    2.1856834   0.15093683   0.13663793 
   29800    -945.0057    49.057147   -895.94855    1757.0491    259.27637    2.1702481  0.063955702   0.12563449 
   29900   -944.20983    46.171139   -898.03869    1653.6828   -1692.1449     2.171074    0.0728433   0.13996261 
   30000   -950.13198     44.82708    -905.3049    1605.5434   -860.11935    2.1888844  0.039281175   0.12512094 
   30100   -945.64748    49.306457   -896.34102    1765.9785   -1083.8642     2.169746   0.19763746   0.12899756 
   30200   -941.55898     44.85603   -896.70295    1606.5803    2395.7184    2.1737738  0.055938414    0.1274836 
   30300    -947.5113    45.900005    -901.6113    1643.9717    280.54966    2.1767918    0.1609534   0.12268588 
   30400   -946.41197    46.952312   -899.45966    1681.6615    110.29517    2.1768468  0.062225188    0.1299252 
   30500   -935.83791    42.450907     -893.387    1520.4376    2051.1015    2.1650543  0.010855046     0.162269 
   30600   -946.60608     47.67572   -898.93036    1707.5714    -4302.147    2.1652718   0.10035819   0.14654688 
   30700   -947.21773    47.431817   -899.78592    1698.8357    2473.0626    2.1827438  0.035128107   0.13778754 
   30800   -937.26393    47.763726   -889.50021    1710.7234     3891.506      2.16486   0.27761152   0.15321666 
   30900   -943.88706    47.651197   -896.23586    1706.6931   -433.33525    2.1695387   0.82276642   0.13231408 
   31000    -945.3995    46.029298    -899.3702    1648.6025   -5064.3463    2.1586621   0.46505145   0.12907234 
   31100   -944.05912    52.798903   -891.26021    1891.0652      535.232    2.1648397   0.30155489   0.13281323 
   31200     -943.183    48.287606   -894.89539    1729.4869    7684.3988    2.1886218     6.223471   0.15134499 
   31300    -942.6817      43.1513    -899.5304    1545.5231   -5214.2387    2.1569588    9.1561892   0.14051677 
   31400   -940.58464    44.944414   -895.64023    1609.7459   -814.76238    2.1588524    9.0443695    0.1583246 
   31500   -944.66753    52.943373   -891.72415    1896.2396    6870.1599    2.1892288    6.5232237   0.13965085 
   31600   -944.67188     44.66263   -900.00925    1599.6534   -2950.0995    2.1646463     5.212858   0.13608767 
   31700   -941.99495    41.190262   -900.80468    1475.2858    -6917.288    2.1435947    5.7127432   0.15043109 
   31800   -942.40847    45.552937   -896.85553     1631.541    9204.4857    2.1934678    5.4919701   0.14289807 
   31900   -944.11876    49.228524   -894.89024    1763.1872    6144.3715    2.1843852    5.4846744   0.15394262 
   32000   -937.87667    49.617496   -888.25917    1777.1188   -7623.6207     2.134607     6.585843    0.1453761 
   32100   -939.69602    51.734309   -887.96171    1852.9353    -6728.317    2.1403585    6.3032083   0.15818315 
   32200   -943.25305    48.768249    -894.4848    1746.7018    5173.5672    2.1768872    5.2526151   0.14808755 
   32300   -942.06527    45.555811   -896.50946    1631.6439     3636.829    2.1746458    5.9721751   0.14635947 
   32400   -945.37086    45.307426   -900.06344    1622.7477   -2024.6846    2.1621159    5.9130751   0.14147477 
   32500   -946.68609      46.4077   -900.27839    1662.1555    -1333.755    2.1688876    6.0205026   0.14615984 
   32600   -940.88495    50.234172   -890.65078    1799.2059    1260.9891    2.1621409    4.3538827   0.14084472 
   32700   -941.87325     46.80255    -895.0707    1676.2976    1896.2758    2.1678837     4.509078   0.14807163 
   32800   -943.18157    44.134451   -899.04712     1580.736   -2020.0555    2.1646091     5.088349   0.13806093 
   32900   -943.98167    45.801564    -898.1801    1640.4459    1046.2237    2.1738721    5.1435018   0.15013185 
   33000   -940.92789    51.366923   -889.56097    1839.7769    -5052.576    2.1483633    6.3814992   0.14474764 
   33100   -942.91429    45.837031   -897.07726    1641.7162    653.29406    2.1652278    7.8498367   0.13636084 
   33200   -946.09492    48.874972   -897.21995    1750.5242    5712.2651    2.1859777    4.4164139   0.14593637 
   33300   -945.74066    45.296958    -900.4437    1622.3728    722.81253    2.1717994    5.3149309   0.14776926 
   33400    -950.7867    42.572794    -908.2139    1524.8031   -8022.1118    2.1640867    6.5683995    0.1377267 
   33500   -944.78314    44.856254   -899.92688    1606.5883    1796.1001    2.1760487    2.9505293   0.13425016 
   33600   -942.70448    46.487284    -896.2172    1665.0059    8943.3969     2.192999    5.3413567   0.15853593 
   33700    -943.9234     46.22966   -897.69374    1655.7788   -5719.3395    2.1586748    8.9797035   0.15111728 
   33800   -948.39113    41.887337   -906.50379    1500.2525   -9299.4736    2.1618569    5.2184577   0.15931281 
   33900   -943.25434    43.111781   -900.14255    1544.1076    3284.8099    2.1823621    4.8139765   0.15434627 
   34000   -944.09047    49.251882   -894.83859    1764.0238    6508.0001    2.1889807    6.7001681   0.15515908 
   34100   -945.09634    45.289065   -899.80728    1622.0901   -5280.5828    2.1584004    5.1894073   0.12977269 
   34200   -944.17626    42.789765   -901.38649    1532.5742   -5506.0072    2.1652545    4.7612207    0.1523277 
   34300   -939.41234    46.819081   -892.59326    1676.8897    7354.1281    2.1823496    5.8817662   0.17182165 
   34400   -946.07874    49.324502   -896.75424    1766.6248    384.82736    2.1717947    4.4205039   0.14952879 
   34500   -944.51747     43.22741   -901.29006    1548.2491   -7701.0855     2.151341    6.9437033    0.1457148 
   34600   -943.55578    50.030824   -893.52495    1791.9227    1188.5093    2.1675769    5.0052919    0.1572459 
   34700   -946.10971    53.560664   -892.54905    1918.3487    11607.023    2.1963681    4.7225555    0.1459792 
   34800   -946.45439    47.733117   -898.72127    1709.6271   -7577.4495     2.147916    5.5973348   0.14685806 
   34900   -942.77791    45.837084   -896.94083    1641.7181   -9905.0871     2.139936    4.8794865   0.13896093 
   35000   -943.07699    54.713256   -888.36374    1959.6304    11613.915    2.1882918   0.71278748   0.13412547 
   35100   -943.28761    46.238788   -897.04882    1656.1057    10606.356    2.1922909   0.89281888   0.14467224 
   35200   -946.31878    46.116312   -900.20247     1651.719    -13751.96    2.1369121  0.064415852   0.13050659 
   35300    -942.6399    48.471536   -894.16836    1736.0746    -2364.136    2.1595873  0.073173152   0.12974926 
   35400   -946.65066    45.456282   -901.19438    1628.0792    5492.6648    2.1914069   0.19069683   0.12761332 
   35500   -947.45537    45.220039   -902.23533    1619.6178   -879.49746     2.175515   0.07342896   0.11067955 
   35600   -940.99367    44.699549   -896.29412    1600.9757   -2989.9649    2.1581855   0.13870287   0.13240705 
   35700   -945.52816    47.794238   -897.73393    1711.8163    1392.5597    2.1768352  0.010501422   0.12391845 
   35800   -951.18533    46.873611   -904.31172    1678.8427     4609.423    2.1957778  0.026945452   0.12738748 
   35900   -947.15535    51.246029   -895.90932    1835.4469   -6963.7205    2.1571135   0.36564037   0.11783384 
   36000   -941.70609    43.973574   -897.73252    1574.9739   -4140.5296    2.1581052   0.27881642   0.12357027 
   36100   -950.73402    47.471955   -903.26207    1700.2733     3429.017     2.194949   0.18022317   0.12775916 
   36200   -944.28725    50.548132   -893.73911    1810.4508     637.6302    2.1676097  0.094390728   0.13043689 
   36300   -944.78474    48.283429   -896.50131    1729.3373   -6074.8774    2.1525457   0.35450941   0.12685634 
   36400    -948.7513    47.150685   -901.60062    1688.7665   -3069.7687    2.1696487  0.059993781   0.12075629 
   36500   -943.91463    46.942222   -896.97241    1681.3002    9672.4577    2.1897957   0.16265217   0.11872173 
   36600   -943.01765     49.46298   -893.55467    1771.5846    -2832.501    2.1578437  0.031262376   0.11318125 
   36700   -945.82634    44.311485   -901.51485    1587.0767   -9867.6377    2.1490935    0.3296086   0.11631707 
   36800   -944.50644    47.086862   -897.41958    1686.4806    5160.6258    2.1806583   0.23862976   0.12150434 
   36900   -945.24242     54.66531   -890.57711    1957.9132    6716.6659    2.1815562   0.42180866   0.12386546 
   37000   -943.30947    43.254106   -900.05537    1549.2052    -5326.269      2.15621   0.25739718   0.11997777 
   37100   -944.50403    44.524529    -899.9795    1594.7072   -10592.342    2.1452837   0.23941584   0.11291213 
   37200    -946.0602    53.347792   -892.71241    1910.7244    6115.4443    2.1882605   0.11978499   0.12404256 
   37300   -947.49308     47.02224   -900.47084    1684.1661    4979.6395    2.1910854 0.0053434756   0.12252722 
   37400   -948.21636    45.872241   -902.34412    1642.9773   -10419.911    2.1540254  0.040649553   0.11136092 
   37500   -943.89622    48.712948   -895.18327    1744.7211   -2187.6925    2.1612399  0.085697347   0.12012938 
   37600   -944.10839    44.725886   -899.38251     1601.919    7314.4824    2.1876356    0.1046927  0.097328492 
   37700   -951.64592    47.567445   -904.07848    1703.6934   -783.37017     2.184175   0.15411876   0.12528922 
   37800   -942.85277    47.715545   -895.13722    1708.9978   -5002.0057    2.1532684   0.11097715   0.12012794 
   37900    -947.5103    48.958651   -898.55164    1753.5213    91.847861    2.1782842  0.068555124   0.12423822 
   38000   -949.53705     46.83854   -902.69851    1677.5866    5316.6848    2.1979656   0.13953806   0.12724586 
   38100   -942.42646    49.354321   -893.07214    1767.6928   -5341.5011     2.156308   0.07826609   0.10663601 
   38200   -944.27589     45.86729    -898.4086       1642.8    -2360.398    2.1687848  0.059232029   0.11621597 
   38300   -948.26975    47.555597   -900.71415     1703.269    3892.4341    2.1910384   0.31368691   0.12307642 
   38400   -941.02157    49.484029   -891.53754    1772.3385   -341.88592    2.1642306   0.35596907   0.12272164 
   38500    -943.4097    45.855928   -897.55377    1642.3931   -4014.8902    2.1638504   0.14534025   0.13686316 
   38600   -946.15622    45.215335   -900.94089    1619.4493   -399.92243     2.179128  0.087754403   0.11342564 
   38700   -942.52184    49.526317   -892.99552    1773.8531    5717.0201    2.1828223   0.18354672   0.11976787 
   38800   -947.59663    50.725966   -896.87067    1816.8201   -8084.6886    2.1608615  0.019926255   0.12430112 
   38900   -943.83486    40.685182   -903.14967    1457.1957   -7815.3731    2.1577059  0.055789533   0.11956103 
   39000   -940.74825    45.010271   -895.73798    1612.1047    10349.077    2.1958119   0.04466218   0.13670084 
   39100   -947.61677    50.752023   -896.86474    1817.7534    4819.9682    2.1924531  0.045016286   0.11211159 
   39200   -947.37722    42.248692   -905.12853    1513.1949   -9143.0507    2.1551983   0.14000376   0.12196022 
   39300   -942.85403     44.38268   -898.47135    1589.6266   -4544.6064    2.1561451   0.16221207   0.11953103 
   39400   -942.41814    48.168916   -894.24922    1725.2359    10167.597     2.194596  0.040773208   0.13407299 
   39500    -949.6923    47.132603    -902.5597    1688.1189    778.79779    2.1838676   0.17302942   0.11837784 
   39600   -946.51134    48.831275   -897.68007    1748.9592    -9687.489    2.1509672  0.052458096   0.11975829 
   39700   -942.98437    48.528658   -894.45571    1738.1205   -539.67028    2.1688428  0.075690897   0.13692262 
   39800   -946.49416    46.022499   -900.47166     1648.359    5027.8299    2.1886961   0.17574765   0.12033024 
   39900   -945.83657    46.453554   -899.38302    1663.7978   -1035.0519    2.1727629   0.11922287   0.13191827 
   40000   -936.93651    44.331799   -892.60471    1587.8043   -1342.5532    2.1518738   0.11843845   0.14378159 
   40100    -945.9912    45.625017   -900.36619    1634.1226    2041.0411    2.1814112   0.28285349   0.12554514 
   40200   -942.77909    43.615154   -899.16394    1562.1366    5031.2694    2.1812872   0.29427311   0.11760523 
   40300   -938.88895    46.437753    -892.4512    1663.2319    -4638.081    2.1510472    0.3444618   0.13766759 
   40400   -947.42659    45.646638   -901.77995     1634.897   -1967.5768    2.1746992   0.24597484   0.12108194 
   40500   -947.31973    48.128261   -899.19147    1723.7798    1609.5378    2.1799381   0.16547834   0.13469613 
   40600   -944.98362    51.892577   -893.09104    1858.6039   -2707.7891    2.1669617  0.018582474   0.12691554 
   40700   -947.39239    46.030605   -901.36178    1648.6493   -7210.6555     2.162294   0.17932026   0.12734464 
   40800    -948.1242    47.441991    -900.6822    1699.2001   -5412.8087    2.1667336   0.24755126   0.12523853 
   40900   -946.09508    52.902386   -893.19269    1894.7716    10447.227    2.1989373  0.027583261   0.12060814 
   41000   -948.19227    47.904879   -900.28739     1715.779   -78.497083    2.1795457   0.08491813   0.12690124 
   41100   -949.47273    46.036419   -903.43632    1648.8576   -17275.379    2.1381118   0.21543871   0.11386367 
   41200   -945.07989    50.051498   -895.02839    1792.6632   -1467.0765    2.1673954   0.14026996   0.12709658 
   41300   -944.42496    47.625907   -896.79905    1705.7873    14558.121    2.2067876   0.18315799   0.12740884 
   41400   -948.40923    44.921252   -903.48798    1608.9163   -4338.2417    2.1704768   0.17541242    0.1225708 
   41500   -941.14532    46.527434   -894.61788    1666.4439   -9267.4969     2.138165    0.1370564   0.12611499 
   41600   -943.06412    47.326442   -895.73768    1695.0615    6613.4326     2.183115  0.094953005     0.125347 
   41700   -943.90757     43.08015   -900.82742    1542.9747    8922.1621    2.1929485    0.1163321   0.13285594 
   41800   -939.66666    44.823691   -894.84297    1605.4221   -3968.3646    2.1506515  0.037616997   0.12951906 
   41900   -943.32372    48.948606   -894.37512    1753.1615   -5669.9846    2.1552729   0.17159719   0.11896455 
   42000   -947.27231    46.440914    -900.8314    1663.3451    7461.2123    2.1930888  0.042534748   0.11866586 
   42100    -944.4149    48.684924   -895.72997    1743.7174    2960.9542    2.1760594   0.13169865   0.11956547 
   42200   -941.41537    46.512945   -894.90242     1665.925   -7675.1897    2.1434972  0.070677868   0.12952177 
   42300   -946.84935     43.80133   -903.04802    1568.8048    2547.7713    2.1835399   0.10728873   0.11345183 
   42400   -943.03801    47.142225   -895.89579    1688.4635    7582.9877     2.187536   0.17689808   0.11737231 
   42500   -945.52086    49.349526   -896.17133    1767.5211   -5311.2318    2.1577749  0.021651455   0.11510398 
   42600    -947.9338    43.236501    -904.6973    1548.5747   -4333.2358    2.1671311  0.079264913   0.11640891 
   42700   -945.52209    48.141647   -897.38044    1724.2592    5041.0759    2.1834264  0.089464237   0.13266636 
   42800   -939.03566    43.638166   -895.39749    1562.9609    8183.0991     2.180338   0.25621883   0.12800072 
   42900   -946.13353    42.199864   -903.93366    1511.4461   -6857.2013    2.1584623   0.10432578   0.10107671 
   43000   -945.79132    47.369541   -898.42178    1696.6052   -7781.9064    2.1556986   0.22910696   0.11058295 
   43100   -943.51347    50.566627   -892.94684    1811.1132    19457.269    2.2189244  0.060251624   0.13498272 
   43200   -943.81899    44.201044   -899.61795    1583.1211   -404.01415    2.1703516   0.17204261   0.12446129 
   43300   -944.06932    44.415633   -899.65369    1590.8069   -20122.964    2.1184099   0.15482661   0.11879905 
   43400   -942.34663    51.365782   -890.98085     1839.736    7555.9657    2.1820198   0.32549277   0.11137793 
   43500   -946.01377    49.065217   -896.94855    1757.3381    10390.669    2.1990558   0.34570037   0.13410755 
   43600   -945.28299    43.620708   -901.66228    1562.3356   -7428.9805    2.1584021   0.27936141    0.1237952 
   43700   -942.53889    47.537684    -895.0012    1702.6274   -4194.4929    2.1491077  0.088855491   0.11689204 
   43800   -945.34714    49.671406   -895.67574    1779.0496    5501.9359     2.185812  0.030569595   0.12028485 
   43900   -947.84283    45.522444   -902.32038    1630.4489     5903.568    2.1925774    0.2676262   0.10546806 
   44000    -942.5989    45.576523   -897.02238    1632.3858   -5577.1017    2.1526198  0.030213018   0.10424305 
   44100    -941.9067    46.668948   -895.23775    1671.5125   -3475.9264    2.1553229   0.17698325   0.12060396 
   44200   -949.93589    46.080658   -903.85523     1650.442    8284.2613    2.2036155   0.11753262   0.12303217 
   44300   -946.02773    49.520499   -896.50723    1773.6447    297.70521    2.1683519   0.13489659    0.1088014 
   44400   -945.28011    48.694311    -896.5858    1744.0536   -9481.9821    2.1455572   0.33880204   0.10751982 
   44500   -949.86852     46.55073   -903.31779    1667.2783    1025.1278     2.182537   0.17621419   0.11735704 
   44600   -947.08076    47.528912   -899.55185    1702.3133       9396.7     2.196269    0.4016338   0.12294723 
   44700   -945.29989    49.897713   -895.40218    1787.1551   -6008.3786    2.1547017   0.14276659   0.11566434 
   44800   -945.00269    43.406887   -901.59581    1554.6773   -7714.2275    2.1523056   0.30274565   0.11434597 
   44900   -947.91346    48.882837   -899.03062    1750.8059    6666.2152    2.1924411  0.031561106  0.098154565 
   45000   -942.35839    50.708464   -891.64993    1816.1933     5218.605    2.1766115   0.16370017   0.11148734 
   45100   -946.37992    46.361551   -900.01837    1660.5026   -8997.6336    2.1504849   0.13368512   0.10634042 
   45200   -944.16564    44.879148   -899.28649    1607.4083   -2047.0914    2.1610783   0.16132499   0.10855975 
   45300   -940.57742     49.98995   -890.58747    1790.4587    8263.5444    2.1818766   0.43978674    0.1243496 
   45400    -947.5151    48.733089   -898.78201    1745.4425    1180.1797    2.1750867   0.10278418   0.12002317 
   45500   -947.62256     46.74122   -900.88134     1674.101   -9139.9549    2.1504036   0.24803998    0.1074858 
   45600   -941.02116     47.78448   -893.23668    1711.4668    1844.7903    2.1641159   0.31754254   0.12364574 
   45700   -946.97756    46.457732   -900.51983    1663.9475     5343.279    2.1884629   0.14525389   0.11830619 
   45800   -947.67025    46.033462   -901.63679    1648.7517   -1471.7266     2.173897  0.077365913   0.11143186 
   45900   -941.30473    46.494713   -894.81002     1665.272   -1353.0978    2.1592814  0.074035232   0.12989737 
   46000   -946.52226    45.823388   -900.69888    1641.2276    1645.6846    2.1775536  0.071819238   0.12317629 
   46100   -946.06757    43.868049   -902.19952    1571.1944    4403.9713    2.1835687   0.16013247   0.12874677 
   46200   -942.07911    47.445889   -894.63322    1699.3397   -668.52884    2.1623469   0.16607014   0.13027342 
   46300   -949.91891    49.719436   -900.19947    1780.7699   -5546.9451    2.1667423  0.012813451   0.12197703 
   46400   -947.27109     45.10187   -902.16922    1615.3854    3460.7599    2.1843543   0.06333237   0.13180099 
   46500   -943.58355    50.161618   -893.42193    1796.6073   -1486.5086    2.1659481  0.071141712   0.12753218 
   46600   -944.78938    45.189574   -899.59981    1618.5267   -2395.7239    2.1638905  0.045672519   0.12634148 
   46700   -949.42192    48.015435   -901.40649    1719.7387    -1784.894    2.1758296   0.35671032   0.12406016 
   46800   -940.13131    48.299837   -891.83148     1729.925    2581.2841    2.1668218   0.35102282   0.13784046 
   46900   -943.64431    44.887022   -898.75729    1607.6903    1597.4384    2.1748358   0.12197604   0.13718856 
   47000   -949.14223    47.951365   -901.19087     1717.444   -5706.6085    2.1638512    0.2258145   0.13994444 
   47100   -942.33918    50.236094   -892.10309    1799.2747   -1113.4189    2.1561785   0.25725554   0.13759181 
   47200    -948.1731    49.167627   -899.00547    1761.0061    5648.0638    2.1924617   0.26708129   0.13518536 
   47300   -944.61427    43.950302   -900.66397    1574.1404   -392.21488    2.1682054   0.29217313   0.13124855 
   47400   -940.32409    45.262052   -895.06204    1621.1226   -7945.4053    2.1435236  0.062052501   0.14605541 
   47500   -947.19139    50.295687    -896.8957    1801.4091     2253.505    2.1818447  0.097270631    0.1216044 
   47600   -949.99284    47.639015   -902.35382    1706.2568    8429.3937    2.2023799  0.015016957   0.12176001 
   47700   -942.18585    45.272667   -896.91318    1621.5027    -4931.272    2.1542474  0.090048565    0.1515161 
   47800   -945.13077    48.585113   -896.54565    1740.1426    -9201.156    2.1477879   0.14254077   0.13561507 
   47900   -953.58908    49.618203   -903.97088    1777.1441    10788.319    2.2117539   0.33041223   0.12994739 
   48000   -947.52998    50.577582    -896.9524    1811.5056    3782.3972    2.1822529   0.17001662   0.13123118 
   48100   -945.16494     48.61548   -896.54946    1741.2302   -10730.088    2.1402673  0.072907932    0.1142499 
   48200   -948.64772    47.957789   -900.68993    1717.6741   -4277.7666    2.1671711  0.016907563   0.12322215 
   48300   -949.72476    47.463091   -902.26167    1699.9558      12530.4    2.2097201   0.10324489   0.11839239 
   48400   -938.72979    45.592412   -893.13737    1632.9549   -1215.6743    2.1556957    0.1101461   0.11934958 
   48500   -945.08642    46.036656   -899.04977    1648.8661   -6010.9222    2.1581437  0.041642499   0.12705296 
   48600   -948.43835    48.248072   -900.19027     1728.071    2380.8063     2.183745   0.16704805   0.11179156 
   48700   -938.93701    48.416141   -890.52087    1734.0906     1840.858     2.164341   0.56721368   0.14297335 
   48800     -945.257      47.0616    -898.1954    1685.5758      -1267.5    2.1672779   0.30021636   0.12176023 
   48900   -946.88283    46.705804   -900.17702    1672.8325   -1205.2671    2.1726697    0.1116633    0.1169939 
   49000   -941.28338    49.386153   -891.89722    1768.8329    2178.9846    2.1687583   0.13266234   0.12800464 
   49100   -948.64913    50.515877   -898.13325    1809.2955   -2069.2642    2.1745676  0.051125561   0.12040604 
   49200   -947.75426    46.848516   -900.90574    1677.9439   -4994.6378    2.1675168   0.02808598    0.1204883 
   49300    -939.1162    45.226903    -893.8893    1619.8636    4137.0365    2.1708979   0.29306584   0.13832896 
   49400   -948.50495    50.667657    -897.8373    1814.7317    1460.4009    2.1849709  0.067289241   0.11322124 
   49500   -947.96375    45.710355   -902.25339    1637.1792   -4065.0519    2.1716826    0.2411702   0.12195794 
   49600   -942.08461    45.299961   -896.78465    1622.4803   -3034.0817    2.1625356   0.30763653   0.12536976 
   49700   -943.85346    48.415111   -895.43835    1734.0537    4194.4407    2.1813633  0.034301453    0.1256087 
   49800    -947.0694    43.025407   -904.04399     1541.014    7264.0311     2.195197  0.068322852    0.1213474 
   49900   -945.45261    48.065166   -897.38745    1721.5199   -10146.067    2.1489945  0.053367096   0.13251079 
   50000   -941.02197    45.040047   -895.98192    1613.1711   -1850.7087    2.1630779   0.20017223   0.12307669 
   50100   -951.03172    48.040145   -902.99158    1720.6238    8418.5026    2.2080826   0.12430068   0.13400898 
   50200   -943.05971    46.441431   -896.61828    1663.3636    2754.3238    2.1720856   0.12846639   0.13474678 
   50300   -943.79619    48.676814   -895.11938    1743.4269   -11582.685    2.1393337   0.11852772   0.12420451 
   50400    -942.7527    43.356591   -899.39611    1552.8759    1652.6552    2.1767599   0.16592515   0.14273726 
   50500   -947.76709    47.759092     -900.008    1710.5575    8678.7829    2.1969033   0.21698497    0.1151144 
   50600   -943.12839    51.444848   -891.68354    1842.5679   -5837.2775    2.1524351   0.48724984   0.13973669 
   50700   -944.68879    45.773409   -898.91538    1639.4375   -7430.8263    2.1574363   0.35250433   0.14326629 
   50800   -943.73274    46.256747     -897.476    1656.7489    3013.0947    2.1806302    7.2356317   0.15376463 
   50900   -941.34429     52.82205   -888.52224    1891.8943    1889.3072     2.170006    5.7109279   0.15541842 
   51000   -943.18227    45.658866   -897.52341     1635.335   -3815.2375    2.1609866    7.0616027    0.1561648 
   51100   -943.88422    45.528182   -898.35604    1630.6544   -11134.216    2.1437174    6.8806078   0.12653118 
   51200   -942.71714    51.573418   -891.14373    1847.1728    9406.4225    2.1911213    9.5526855   0.15303557 
   51300   -943.64421    46.407368   -897.23685    1662.1436    12179.826    2.2031541    18.657263   0.14743387 
   51400   -944.19432    42.911907   -901.28241    1536.9489     -18776.9     2.129243    15.749062   0.14760971 
   51500   -945.18348    49.144998   -896.03848    1760.1956   -6019.4545    2.1608341    9.7812442   0.15021883 
   51600   -945.68001    50.774035   -894.90598    1818.5418    12002.593    2.2008742    12.312031   0.13584175 
   51700   -946.59139     42.14985   -904.44154    1509.6548    347.99168    2.1822217    16.326435   0.14352445 
   51800   -943.48834    45.715988   -897.77236    1637.3809   -9220.4227    2.1509105    15.586461   0.15125975 
   51900   -945.42615     51.02974   -894.39641    1827.7002   -146.07363    2.1746108     9.515115    0.1624708 
   52000    -946.2667    48.238695   -898.02801    1727.7351    7444.4188      2.19264    14.999522    0.1428949 
   52100   -946.81159    42.513404   -904.29819     1522.676     -1057.77    2.1755357     11.46376   0.14680113 
   52200   -946.07856    50.941535   -895.13703     1824.541   -9915.3372    2.1503083    13.388616   0.16233238 
   52300   -942.48772    46.521732   -895.96599    1666.2397    7562.0615    2.1893257    4.6688387   0.15029698 
   52400   -946.39192    44.682929   -901.70899    1600.3805     8694.517    2.1948505     5.896216    0.1424105 
   52500   -940.80293    49.176765   -891.62616    1761.3334   -9521.3649    2.1398181    6.0456543   0.13828478 
   52600   -943.14747    48.296863    -894.8506    1729.8185   -1517.1575    2.1664908    5.6984668   0.11361088 
   52700   -943.42071    44.718388   -898.70233    1601.6505    5679.0234    2.1881815    4.0229977   0.12758593 
   52800   -945.33341    50.026014    -895.3074    1791.7504    479.76802    2.1726836     5.445271   0.12079498 
   52900   -942.80722    52.387682   -890.41954    1876.3368   -9551.2718    2.1411558    4.4206088   0.13450417 
   53000   -947.41404    47.653629   -899.76041    1706.7802    1961.3584    2.1861397     5.801714   0.13812063 
   53100   -942.80558    45.329824   -897.47575    1623.5499    11570.687    2.2017443    5.3477492   0.12256886 
   53200    -941.0058    46.590784   -894.41502    1668.7129   -11046.928    2.1396217     6.356404    0.1113069 
   53300   -936.71702    48.829853   -887.88716    1748.9083   -12288.575    2.1243913    4.8638316   0.12320706 
   53400   -949.51519    50.778864   -898.73633    1818.7148    18729.115    2.2291413    3.8338034   0.12016432 
   53500   -946.44769    48.395194   -898.05249    1733.3404    1511.1599    2.1786793    3.9980885   0.11098183 
   53600   -943.02867    45.491933   -897.53674    1629.3561   -11595.831    2.1394435    5.1019092   0.11709232 
   53700   -947.51869    40.429418   -907.08928    1448.0351    2551.8056    2.1868034     5.478045   0.11528113 
   53800   -944.92316    44.077981   -900.84518    1578.7134    7433.1572    2.1898098    4.9153052   0.11995828 
   53900   -944.92571    47.619834   -897.30587    1705.5698   -2161.4545    2.1667908    4.4098539   0.12408223 
   54000   -947.26402    48.179039   -899.08498    1725.5985   -8316.2254     2.154617    4.3132324   0.12022852 
   54100   -949.64308    42.537007   -907.10607    1523.5213    3949.3311    2.1916103    5.4438979   0.11215144 
   54200   -941.58669    43.922051   -897.66464    1573.1286    6434.8287    2.1784583    5.2728957   0.11936136 
   54300   -944.80432    47.375354   -897.42896    1696.8134   -3332.9172     2.162753    4.9291017   0.10819544 
   54400   -947.96964    47.240019   -900.72962    1691.9662   -4998.4327    2.1661148    5.1996328   0.12007398 
   54500   -949.01444     41.62759   -907.38685    1490.9493    5933.7473    2.1965237    5.2759693   0.10955989 
   54600    -946.1075    48.781961   -897.32554    1747.1929   -2703.6258    2.1653428    4.7306855   0.11249097 
   54700   -949.89033    52.127885   -897.76244    1867.0318   -6237.2485    2.1607269    5.7186902   0.10506597 
   54800   -947.56443    48.079524    -899.4849    1722.0342    2099.9301    2.1802519    4.8898262   0.12462982 
   54900   -948.32493    40.380067   -907.94486    1446.2676    6192.9154    2.1959274    4.9584049   0.13570365 
   55000   -944.77213    44.025454   -900.74667    1576.8321   -6562.3622    2.1554715    5.7483053   0.12944349 
   55100   -944.75059    46.248846   -898.50174    1656.4659    2273.3292    2.1761271    5.1808664    0.1382382 
   55200   -944.87746    47.647189   -897.23028    1706.5495    8998.4454      2.18944    4.7066716    0.1094985 
   55300   -945.09804     44.31659   -900.78145    1587.2595   -5318.8454    2.1586145    3.9278574   0.12222067 
   55400   -950.93039     44.00582   -906.92457    1576.1289   -4835.6648    2.1727651    4.2273958   0.12218889 
   55500   -943.05916    44.281645   -898.77752    1586.0079    10778.183     2.196084    5.2075992   0.13411629 
   55600   -944.29357    47.007607   -897.28596     1683.642    755.06508    2.1695897    5.0256264   0.12532772 
   55700    -947.3748    48.562267   -898.81253    1739.3243   -13841.034    2.1377065    4.4239368   0.12140254 
   55800   -953.47935    46.583159   -906.89619    1668.4398      4011.36    2.1967088    5.2942737   0.13001913 
   55900   -946.29298    48.830737   -897.46225    1748.9399    9422.3523    2.1920227    5.3288331   0.13747397 
   56000   -946.66003    48.801337   -897.85869    1747.8869   -6842.8359    2.1540426    5.1231261    0.1385148 
   56100   -946.22469    47.432578   -898.79211    1698.8629   -4614.8304    2.1585891    4.6401082   0.14104104 
   56200   -952.34062    44.872562   -907.46806    1607.1725    7761.2951       2.2073    5.4497357   0.11389837 
   56300   -946.71352    48.494914   -898.21861    1736.9119   -1431.3104    2.1712811    4.8592577   0.12047345 
   56400   -945.60157    47.875205   -897.72637    1714.7162   -4662.5903    2.1622345      4.65126   0.12748868 
   56500   -943.80687    43.914071    -899.8928    1572.8428    1228.2818    2.1771199    4.6188273   0.12590166 
   56600    -948.1226    40.207468   -907.91513    1440.0857     5060.463    2.1932763    5.5664668   0.13165635 
   56700   -946.11031    47.847843   -898.26246    1713.7362   -3905.4217    2.1620693       5.0217   0.12769035 
   56800   -945.53807    47.735958   -897.80211    1709.7289    437.39545    2.1700771    4.9105066   0.12688937 
   56900   -946.25756    47.024411   -899.23315    1684.2439    2612.4659    2.1786843    5.2216055   0.12634239 
   57000   -951.98553    43.998741   -907.98679    1575.8754   -2965.3355    2.1809963    4.7181467   0.11572747 
   57100   -944.46658    42.001206   -902.46538    1504.3309   -1494.5018    2.1694377    4.9847533    0.1274605 
   57200   -942.58203    44.551135   -898.03089    1595.6601     5884.743    2.1860124     5.157016   0.13437037 
   57300   -943.64867     45.89177    -897.7569    1643.6768    478.59287    2.1724408    4.5802088   0.12740535 
   57400   -947.35082    46.676705   -900.67411    1671.7903    -9000.849    2.1570911    5.4681326   0.11611923 
   57500   -949.23816    43.316274   -905.92189    1551.4318    6708.4157    2.1969134    4.6331104   0.11893607 
   57600   -945.15204    47.099648    -898.0524    1686.9386    7038.5811    2.1901084    4.4540072   0.11750963 
   57700   -941.72513    43.979002   -897.74613    1575.1684   -9363.9401    2.1405731    4.7845435   0.12838702 
   57800   -941.55482    45.472419    -896.0824    1628.6571    -3364.074    2.1522122    5.5407663   0.12346994 
   57900   -950.08481    43.876899   -906.20791    1571.5114    22702.015    2.2382182    5.0990866   0.12665565 
   58000   -948.92647    48.958466   -899.96801    1753.5147   -5523.9639    2.1648662    5.5883767   0.11175021 
   58100   -945.07571    46.651977   -898.42373    1670.9046   -15172.409    2.1349284     5.774399   0.13437651 
   58200   -943.71474    47.561153   -896.15358     1703.468    4441.9642     2.180816    5.6728193   0.13592733 
   58300   -950.14477    44.619711   -905.52506    1598.1162    6780.5802    2.2004907    5.5357582   0.11601252 
   58400   -946.48905    45.376328   -901.11272    1625.2155   -5160.2709    2.1619454    5.0746087   0.12135957 
   58500   -947.08708    49.731501   -897.35558     1781.202   -4452.1058     2.165765    5.7520549   0.11626003 
   58600   -943.10972    44.758158   -898.35157    1603.0749    4291.8741    2.1818356     5.236937   0.12528203 
   58700   -947.43211    40.326875   -907.10523    1444.3624    339.99494    2.1851785    5.1905088   0.13184456 
   58800   -942.04171    42.580364   -899.46134    1525.0742   -3911.1946    2.1595797    4.4081293   0.12962243 
   58900    -946.3412     49.11655   -897.22465    1759.1767    2238.7804    2.1799449    4.5823268   0.11851313 
   59000   -945.35372    46.062609   -899.29111    1649.7956    2284.2943    2.1816168    3.5612766   0.11687336 
   59100      -950.99    43.564212   -907.42579    1560.3121   -8161.3505    2.1671201    5.5866753   0.11877272 
   59200   -944.26923    43.231838    -901.0374    1548.4077   -1743.2494    2.1676386    3.4394994   0.11366901 
   59300   -943.88988    46.970786    -896.9191    1682.3232    11334.754    2.2002068    5.2216131   0.13198406 
   59400   -944.86208    46.266667   -898.59542    1657.1042   -3021.1072    2.1661779    5.0852758   0.13373232 
   59500   -940.59931    47.401131   -893.19817    1697.7366   -8577.2254    2.1383751      4.85565    0.1281551 
   59600   -939.03289    49.274195    -889.7587     1764.823    3471.0842    2.1662888    5.1170478   0.13233109 
   59700   -946.69596    49.973469   -896.72249    1789.8684    6682.0756     2.189617    5.0383439   0.13869254 
   59800    -945.7822    46.521826   -899.26037    1666.2431    -4862.439    2.1621981    5.4659667   0.11657635 
   59900   -939.13442    43.651576   -895.48284    1563.4412   -3734.6975    2.1537898    4.9537675   0.12996133 
   60000   -937.66414    48.814586   -888.84956    1748.3615    5428.5259    2.1689102    5.0722284   0.14165766 
   60100   -944.47836    46.986306   -897.49205    1682.8791     7426.016    2.1901199    3.8682592   0.12291383 
   60200   -946.90663     47.76449   -899.14214    1710.7508   -11526.754    2.1478816    4.7015791   0.11310496 
   60300   -941.14297    47.125084   -894.01789    1687.8496   -9856.2486    2.1383425    5.4174079   0.12384406 
   60400   -939.66598    53.756733   -885.90924    1925.3712     19102.64    2.2033458    5.0052607   0.13674624 
   60500    -946.5648    50.554876   -896.00993    1810.6923    5937.6244    2.1842261    4.7022567   0.12483183 
   60600   -942.28763    43.505469   -898.78216    1558.2081   -13934.638    2.1309268    4.9378885   0.12710243 
   60700   -944.42648    47.779487     -896.647     1711.288    984.36658    2.1716634    6.0913279   0.12707704 
   60800   -947.32884    42.656744   -904.67209    1527.8099    10838.863    2.2079963     5.008866   0.12982571 
   60900   -948.06393    44.112557   -903.95137    1579.9518   -5221.4465    2.1709786    5.2702586   0.12017659 
   61000   -946.58564    47.963699   -898.62194    1717.8858    -5710.135    2.1604883    4.8172412    0.1236654 
   61100   -943.56041    47.344977   -896.21543    1695.7254    3173.8557    2.1809552    4.0154609   0.12503136 
   61200   -945.49957     41.26809   -904.23148    1478.0733    4675.3622    2.1886222    5.7435486   0.12073017 
   61300   -947.95618     45.25765   -902.69853    1620.9649   -5575.7531    2.1633692    4.4950879   0.12401334 
   61400   -943.83875    46.524874   -897.31387    1666.3523    1332.4708    2.1716749    5.2290988   0.14602057 
   61500   -944.64145    46.695159   -897.94629    1672.4513    5328.9982    2.1827451    4.9603136   0.14209909 
   61600   -945.78672    39.293638   -906.49308    1407.3556    610.51599    2.1789814     5.919234   0.13908227 
   61700   -943.30168    44.359905   -898.94178    1588.8109    -5628.528    2.1543364    4.0151988   0.14471257 
   61800   -941.93804     45.50891   -896.42913    1629.9641     10105.45    2.1907514    6.2592775    0.1271181 
   61900   -944.66761    44.852461   -899.81515    1606.4525    6437.8873    2.1870765    4.0104418   0.13310663 
   62000   -947.38601    42.791705   -904.59431    1532.6437   -13706.015    2.1434581    5.1990087   0.11803047 
   62100   -950.69454    41.975059   -908.71948    1503.3944    51.365382    2.1886388     5.138017   0.11772327 
   62200   -945.41671    46.337845   -899.07886    1659.6536    12550.919    2.2059362    5.9012347   0.14885286 
   62300   -944.88983    46.688262   -898.20157    1672.2042   -6352.2745     2.154869    4.7813815   0.12364057 
   62400   -943.92642    45.793672   -898.13275    1640.1633   -6705.7401    2.1543794    6.7621719   0.13837296 
   62500    -947.5404    42.139745   -905.40066    1509.2928    7892.7982    2.2022164    4.5954349   0.14777916 
   62600   -946.48499    43.265469   -903.21952    1549.6122    4852.9657    2.1921229    4.6225879   0.13004427 
   62700   -944.86191     46.69663   -898.16528    1672.5039   -1909.0381    2.1638345    3.5862564   0.13641833 
   62800   -944.71741    46.786138   -897.93127    1675.7098   -1372.2905    2.1677329    3.7775135   0.13870375 
   62900   -947.89029    46.441805   -901.44849     1663.377    943.38624    2.1845759    4.1933752   0.11156909 
   63000   -949.37393    42.499994   -906.87393    1522.1957    4397.1717    2.2000675    4.6551528   0.13957977 
   63100   -944.60459    45.536224   -899.06836    1630.9424   -3108.0123    2.1687213    6.9273509   0.13206666 
   63200   -942.75167    45.127796   -897.62387     1616.314   -983.79306    2.1657937    6.0678805   0.12692891 
   63300   -943.27134    45.330056   -897.94128    1623.5582    4392.6333    2.1835215    4.0923282   0.14709712 
   63400   -950.61317    42.941786   -907.67139    1538.0191    5188.7863    2.1959189    4.3625816   0.12367977 
   63500   -944.73702    44.071624   -900.66539    1578.4858   -8000.6149    2.1538109    5.2123032   0.14033489 
   63600   -945.37871    47.546742   -897.83197    1702.9519   -1642.5322    2.1699752    5.7049765   0.14346856 
   63700   -947.39231    50.818908   -896.57341     1820.149    9458.5719    2.1970885     5.016397   0.12920172 
   63800    -948.3923    43.564547   -904.82775    1560.3241   -6373.1059    2.1621225    8.4178709   0.11897189 
   63900   -944.49552    42.537025    -901.9585     1523.522   -13577.832    2.1376835    7.0839903   0.12967309 
   64000   -943.40042    47.350941   -896.04948     1695.939    15521.287    2.2039319    15.233891   0.15588256 
   64100   -942.98338    48.090042   -894.89333    1722.4109    8004.8063    2.1859159     11.25678   0.15769862 
   64200   -945.54637    45.069203   -900.47717    1614.2154   -13502.586    2.1427951    26.771916   0.14094685 
   64300   -945.23743    44.274205   -900.96322    1585.7415    971.52778     2.174801    30.891116    0.1419439 
   64400   -942.34292     49.52533   -892.81758    1773.8177    4610.3666    2.1760703    28.450596   0.14043773 
   64500   -949.10547    50.922514   -898.18296    1823.8598   -3844.9983    2.1667136    25.564172   0.13503976 
   64600   -945.60224    44.227042    -901.3752    1584.0523   -1480.7677    2.1708738     24.78729   0.15010508 
   64700   -942.97251    51.243716    -891.7288    1835.3641    -306.0301    2.1614032    34.536086   0.13108494 
   64800   -948.69524    50.467309   -898.22793     1807.556    2316.4691    2.1816706    34.335201   0.11299174 
   64900   -948.15169    47.365929   -900.78576    1696.4758   -3848.3029    2.1671268    34.096454   0.10422132 
   65000   -941.47128    49.215585   -892.25569    1762.7238   -4686.8056    2.1486826    32.745159   0.11761296 
   65100   -950.36449    51.227492     -899.137     1834.783    2673.8613    2.1868075    34.755974   0.12760895 
   65200    -948.9894     48.45772   -900.53168    1735.5798   -1758.0896    2.1763843    38.285103    0.1285173 
   65300   -941.56507    46.547888   -895.01719    1667.1765   -4478.7142    2.1524344    33.180815   0.12576352 
   65400    -943.5039     47.49963   -896.00427    1701.2645    1610.3717    2.1664678    36.833887    0.1283295 
   65500   -949.72928    47.566621   -902.16266    1703.6638    8212.2308    2.2023794    33.104663   0.13069166 
   65600    -944.7352     48.36771   -896.36749     1732.356   -664.87522    2.1674274    37.882143   0.13785628 
   65700   -947.13472    49.839118    -897.2956    1785.0565   -14900.039     2.137449    34.341601   0.12868433 
   65800   -948.57754     43.82252   -904.75502    1569.5637    5866.8405    2.1949105    33.825986   0.12243979 
   65900   -940.90536    44.633319   -896.27204    1598.6036    13139.454    2.1952753    32.903562   0.11425818 
   66000   -944.35233    47.230695   -897.12163    1691.6322   -7898.6776    2.1479573    37.432668   0.12105014 
   66100   -946.38856    44.278303   -902.11026    1585.8882   -8932.9819    2.1524287    34.859665   0.13050624 
   66200   -949.58281    48.888874   -900.69394    1751.0222    10875.333    2.2046394    34.481759   0.12353461 
   66300   -942.81702     49.44051   -893.37651    1770.7798    921.04948    2.1678955    36.030807   0.13244523 
   66400   -942.54597    42.074829   -900.47114    1506.9678   -5721.9527      2.15078    36.425708   0.13674861 
   66500   -945.57086    46.938447   -898.63241    1681.1649    255.49548    2.1751399     32.77104   0.14557369 
   66600   -938.72711    48.456361   -890.27075    1735.5311    4553.0969    2.1679509    34.337216    0.1357223 
   66700    -948.0038    48.378147   -899.62566    1732.7298   -2121.5258    2.1728081    36.268676    0.1265349 
   66800   -947.46094    47.762863   -899.69808    1710.6925   -6164.0344    2.1637594    36.147702   0.11445172 
   66900   -940.97951    49.016948   -891.96256    1755.6093   -535.11365    2.1617025     36.46138    0.1260259 
   67000   -948.10283    47.722791   -900.38004    1709.2573    3564.8525    2.1832728    35.737927   0.11346384 
   67100   -945.38722    44.909968   -900.47726    1608.5122   -3288.3821    2.1661198    39.745275   0.12098246 
   67200   -941.10458    46.093136   -895.01144     1650.889   -1125.3548    2.1617999    36.647737   0.14103557 
   67300   -946.81199    46.617373   -900.19461    1669.6652    2484.3853    2.1843034     31.61152   0.14157401 
   67400   -949.25632    46.254475   -903.00184    1656.6675   -2018.1479    2.1780783    30.054351   0.13433555 
   67500   -942.03941    45.436328   -896.60309    1627.3645   -2791.1949    2.1622925    32.162507    0.1310192 
   67600   -945.36989     47.73538   -897.63451    1709.7082   -2651.5551    2.1694348    36.469689   0.13690925 
   67700   -947.70017    42.984333   -904.71583    1539.5429    7147.1764    2.1992912    36.270925   0.13554914 
   67800   -941.55748    45.891502   -895.66597    1643.6672   -1599.4091    2.1596805    33.160778   0.13651992 
   67900   -943.37846    45.641876   -897.73658    1634.7265   -6825.1905    2.1539147    34.270768   0.12705094 
   68000   -944.15306    41.774053     -902.379    1496.1951    9256.9848    2.1960005    33.338044   0.12829161 
   68100   -951.10413    51.572218   -899.53191    1847.1298    3191.1631    2.1930229    36.400997   0.11595025 
   68200   -942.91789    48.109535   -894.80836    1723.1091   -9513.8806    2.1426038    34.734502   0.14026123 
   68300   -944.18635    44.223632   -899.96271    1583.9301   -4477.4703     2.159884    37.123567   0.13344187 
   68400   -946.59746    48.416798   -898.18066    1734.1141    11625.934    2.2036329    31.844362   0.13083665 
   68500   -940.05614    50.363058   -889.69309    1803.8221    853.20174    2.1579844    36.791765   0.14342548 
   68600   -943.13863    44.320167   -898.81846    1587.3877   -7208.3355    2.1525397    34.775049   0.12136532 
   68700   -945.99647    46.748444   -899.24803    1674.3597    912.33446    2.1750934    38.604671   0.13501848 
   68800       -945.8    52.265012   -893.53499    1871.9432    7337.2645    2.1842701    34.120195   0.12001261 
   68900   -944.50857    50.696554   -893.81201    1815.7667   -6209.3551    2.1510491    35.866579   0.12063738 
   69000   -947.79508     46.25493   -901.54015    1656.6838   -4597.8765    2.1651098     33.82922   0.12683791 
   69100   -946.51512     49.69047   -896.82465    1779.7324    5439.6905    2.1867473    34.778255   0.13008445 
   69200    -943.2501    47.800772   -895.44933    1712.0503     872.0978    2.1685337    35.674364   0.14128111 
   69300   -947.48093     41.99312   -905.48782    1504.0413   -2323.8749    2.1721003    35.267407   0.14299792 
   69400   -944.49708    44.118832   -900.37825    1580.1766   -277.22406    2.1689459    36.507635   0.12913956 
   69500   -943.52072    47.559839   -895.96088     1703.421    2813.7717    2.1732472    36.182481   0.11985721 
   69600   -946.05716    45.122364    -900.9348    1616.1194   -1338.0107    2.1727817    36.010139   0.11284335 
   69700   -946.64075     42.24681   -904.39394    1513.1275   -386.66231    2.1792887    35.037568     0.131156 
   69800   -944.53814    47.961038    -896.5771    1717.7905   -433.94001    2.1666594    36.132304   0.12147864 
   69900   -946.63595    48.281333   -898.35462    1729.2622    24.255297    2.1725666    34.639764   0.12469929 
   70000   -947.96418     42.36665   -905.59753    1517.4198    2923.2473     2.186326    34.527106   0.12143561 
   70100   -942.21194    45.690869   -896.52107    1636.4812   -685.51801    2.1644779     34.34644   0.13603227 
   70200   -945.17407    48.003953   -897.17012    1719.3275   -258.87227    2.1708868    36.681012   0.14692716 
   70300   -947.11328    45.567293   -901.54599    1632.0552    1862.5868    2.1788448     36.01393   0.13909401 
   70400   -947.39102    47.751863   -899.63915    1710.2985   -1440.4994    2.1703799     36.61406   0.12189727 
   70500    -936.5176    43.185289   -893.33231    1546.7405   -120.70519    2.1502031    35.510115   0.12974063 
   70600   -943.59579    44.287406   -899.30838    1586.2143   -354.76617    2.1677343    35.993563   0.12262567 
   70700   -947.13639    48.062124   -899.07426     1721.411    6346.6063    2.1911768    35.432884   0.12317775 
   70800   -945.27253    55.943323    -889.3292     2003.687   -7065.6558    2.1474971    37.150013    0.1213403 
   70900   -947.56178     49.46155   -898.10023    1771.5334   -7967.1975    2.1570863    35.587977   0.13236856 
[...]
  186800   -943.58425    43.571047    -900.0132    1560.5569    7101.8925    2.1886802    19.666423   0.14216008 
  186900    -942.3087     49.20447   -893.10423    1762.3257    2039.4943    2.1670878    20.011358   0.13563828 
  187000   -947.46109    52.782402   -894.67869    1890.4742   -9658.9862    2.1480658    22.324216     0.126154 
  187100    -946.8861    45.807433   -901.07867    1640.6561   -1986.2626    2.1760936    22.916821   0.11798398 
  187200   -941.01761    46.368028   -894.64958    1660.7346    7898.2549    2.1841916    32.622338   0.15641057 
  187300   -940.01828     46.72757   -893.29071    1673.6121   -1669.3525    2.1574915    28.447255   0.15391614 
  187400   -947.33444    44.921688   -902.41275    1608.9319   -5692.6188    2.1627191    27.717481   0.12835862 
  187500   -944.08179    47.654423   -896.42737    1706.8086    3843.7499    2.1813649     26.75649   0.14461542 
  187600   -942.99928    50.168789   -892.83049    1796.8641     4114.826    2.1739343    24.476439    0.1619678 
  187700   -946.38623    43.797282   -902.58895    1568.6598    -1112.964    2.1650084    28.986583   0.13847036 
  187800   -945.31352    47.132567   -898.18096    1688.1176   -5053.0683    2.1554978    29.571572   0.12726311 
  187900   -943.11934    50.365566   -892.75378    1803.9119    5976.1158     2.180267    30.002501   0.14565716 
  188000   -944.42639    43.263273   -901.16311    1549.5335    8740.6458    2.1851094    26.002118   0.15399821 
  188100   -941.47734    44.706273   -896.77107    1601.2166    -10004.95    2.1353874    21.227366     0.140145 
  188200   -942.75876     48.84569   -893.91307    1749.4755      2251.29      2.16644    20.917327   0.12508362 
  188300   -945.94442    47.820478   -898.12394    1712.7561    14203.942    2.2085525    26.634248   0.14021671 
  188400     -947.474    45.052071   -902.42193    1613.6018   -5901.5185    2.1606132    25.012003   0.14387435 
  188500   -943.85889    50.914931   -892.94396    1823.5882   -14715.641    2.1302553    42.547855   0.12478472 
  188600   -944.30337    45.882816   -898.42056    1643.3561     8187.573    2.1943002    45.016576   0.16008475 
  188700   -948.09131     47.40808   -900.68323    1697.9855    5169.6207    2.1926803    46.238079   0.12478064 
  188800   -941.17664    47.470562   -893.70608    1700.2234   -4698.9593    2.1486881    45.674403   0.12267821 
  188900   -943.91805    46.981774   -896.93628    1682.7168   -2835.2889    2.1622707    42.284071   0.13336375 
  189000   -946.16192    45.055212   -901.10671    1613.7143    7159.7214    2.1932083    44.558443    0.1293456 
  189100   -944.98476    49.916856    -895.0679    1787.8408    16.003931    2.1694344    50.881109    0.1397793 
  189200   -941.67845    45.654231   -896.02422     1635.169   -3985.3677    2.1496172    47.443195   0.13194106 
  189300   -947.81832    44.908711   -902.90961    1608.4672     2052.798     2.184745    43.568949    0.1267219 
  189400   -944.27342    49.146603   -895.12681    1760.2531     5605.306    2.1829727    48.240939   0.13962443 
  189500   -946.74674    49.169282   -897.57745    1761.0654   -5391.1665    2.1608299    46.312137    0.1353368 
  189600   -948.90395    44.375386   -904.52856    1589.3654   -4060.9073    2.1731463     44.95459   0.11961463 
  189700   -942.80452    47.118291   -895.68623    1687.6063    5093.7978    2.1791526     43.75077   0.14054772 
  189800   -946.13096    49.469734   -896.66123    1771.8265    3122.2294    2.1786123    43.690955   0.12229615 
  189900   -947.18567    43.144646   -904.04102    1545.2847   -6690.5034    2.1606126    45.571307   0.12509603 
  190000   -940.83356    44.672223   -896.16134     1599.997   -4068.4462    2.1561544    47.791931    0.1333086 
  190100   -945.77298    51.906233   -893.86675     1859.093    15172.328    2.2085635     44.87025   0.13053253 
  190200   -946.61971    45.733518   -900.88619    1638.0088   -407.06034    2.1738486     45.73296   0.14504645 
  190300   -941.17173    44.106353   -897.06538    1579.7296    -15364.97    2.1242953    42.711656   0.14090827 
  190400   -941.30726    49.374519   -891.93274    1768.4162    2170.6689    2.1707717    44.975018   0.14566859 
  190500   -946.20211    47.371186   -898.83093    1696.6641    11411.033    2.2035891    44.503332   0.13300561 
  190600   -948.08358    47.349528   -900.73405    1695.8884   -5533.3848    2.1607969    45.829905   0.12543467 
  190700   -940.84553    48.552003   -892.29353    1738.9567   -7533.2852    2.1407348    45.828958   0.13535504 
  190800    -946.1052    45.588908   -900.51629    1632.8294    6556.8398    2.1942146    43.006545   0.13959005 
  190900   -946.50659     46.25902   -900.24757    1656.8303    3677.8685    2.1823026    47.851659   0.14345006 
  191000   -938.13496    43.292991   -894.84197    1550.5979   -3434.6295    2.1499829    45.174122   0.14349365 
  191100   -944.30002    44.389007   -899.91102    1589.8533   -2574.8776    2.1695928    44.521708   0.15133658 
  191200   -947.81644    45.839292   -901.97715    1641.7972    5954.3692    2.1949506    42.858067   0.13688258 
  191300   -940.39567     45.21956   -895.17611    1619.6006    2177.7133    2.1709541    42.645581   0.15602753 
  191400   -945.62101    47.071392   -898.54962    1685.9265   -7303.1731    2.1542647    46.253945   0.13799612 
  191500   -948.18112    44.374356   -903.80677    1589.3285    1045.6478    2.1826576    48.063065   0.13092724 
  191600   -946.60756    52.046781   -894.56078     1864.127    4564.2641    2.1837424    45.245603   0.13448829 
  191700   -945.82254    47.872674   -897.94987    1714.6256   -4212.8473    2.1607207    48.148335   0.13258744 
  191800    -949.8189    45.454535   -904.36436    1628.0166    -10119.94    2.1576397    47.124768   0.12910685 
  191900   -944.72875    48.188764   -896.53999    1725.9468    9647.6073    2.1927514     41.91426    0.1333829 
  192000   -945.73774    51.218686   -894.51905    1834.4676     11561.42    2.1986469    42.260161    0.1382018 
  192100   -945.34482    43.583269   -901.76155    1560.9946   -13009.259    2.1378967    49.244967   0.12296912 
  192200   -945.40538    48.330222   -897.07516    1731.0133   -7175.5395    2.1517487    43.964171   0.12546791 
  192300    -938.2129    48.140561   -890.07233    1724.2203    12988.912    2.1938196    46.737907    0.1552755 
  192400   -944.78673    45.508677   -899.27806    1629.9558    2321.0748    2.1824124     46.29111   0.12706361 
  192500    -946.6296    47.067293    -899.5623    1685.7797   -7997.2621    2.1567157    46.451494   0.11917191 
  192600   -939.85745    48.170104   -891.68735    1725.2784    -870.2181    2.1628782    45.937507    0.1475299 
  192700   -945.17273    45.189411   -899.98332    1618.5208    6783.6226    2.1908647    45.890521   0.12827137 
  192800   -947.49882    46.934139   -900.56468    1681.0106   -5507.9027    2.1624087    45.410217   0.14190102 
  192900   -942.74567    47.718968   -895.02671    1709.1204   -3712.0046    2.1534641    44.077013   0.13570492 
  193000   -947.43886    46.223807   -901.21505    1655.5691    4009.3554    2.1883006    47.847492    0.1339701 
  193100   -946.64086    44.063115   -902.57774     1578.181    1707.3242    2.1820794     45.02072   0.11915907 
  193200   -942.94542    46.333611   -896.61181    1659.5019   -4309.5002    2.1561872    47.608626   0.12856445 
  193300   -944.76813    47.499127     -897.269    1701.2465   -838.29605    2.1677721    44.855359   0.13069631 
  193400   -947.00562    42.576324    -904.4293    1524.9295    8510.4499    2.2026825    45.312651   0.13376401 
  193500   -946.08754    50.313613   -895.77392    1802.0512   -5845.6055    2.1599443    48.966509   0.12764576 
  193600   -944.48431    46.738604    -897.7457    1674.0073   -8116.2347    2.1470957    46.535715   0.12957915 
  193700   -947.72193    45.377706   -902.34422    1625.2649    7326.7818    2.1979181    42.768519   0.13808462 
  193800   -946.35939    46.972466   -899.38692    1682.3834    10332.709    2.2027241    43.802924   0.12133257 
  193900   -941.04316    46.126588   -894.91657    1652.0871   -14457.641     2.129915    46.069226   0.13841904 
  194000   -945.67221    45.574789   -900.09743    1632.3237   -9085.7633    2.1503716    45.150727   0.11557973 
  194100   -945.03084    46.527086   -898.50375    1666.4315    16234.771     2.214136    45.149958   0.13356334 
  194200   -942.41775    52.411504   -890.00624      1877.19   -266.44083    2.1632266    44.355252   0.12598011 
  194300   -942.28763    43.687346   -898.60029    1564.7223   -6347.2928    2.1490068    43.376209   0.13252742 
  194400   -951.15495    51.778811   -899.37614    1854.5292   -2311.5654    2.1749635    44.892737   0.13912291 
  194500   -947.47335    54.603457   -892.86989    1955.6978    3676.5961    2.1834889    46.939615   0.14235968 
  194600   -941.57951     46.70319   -894.87632    1672.7389   -3960.3551    2.1537978    45.989492   0.13837703 
  194700    -945.1556    43.793413   -901.36219    1568.5212   -3569.8265    2.1663062    44.423252   0.14034509 
  194800   -945.23298    49.241467   -895.99152    1763.6508    5945.2184    2.1861667    43.406114   0.12919204 
  194900   -946.67529    51.064744   -895.61055    1828.9539   -435.31159    2.1720261    42.626628   0.13789758 
  195000   -949.30143    44.682204   -904.61922    1600.3545   -5968.5088     2.169349    44.407488   0.13541199 
  195100   -943.72718    44.979345   -898.74783     1610.997    89.159552    2.1716785    44.572526   0.12675326 
  195200   -944.55419    49.506015   -895.04818    1773.1259    4332.4857     2.180485    46.746071   0.14100708 
  195300   -948.72379    44.976602   -903.74718    1610.8988   -2337.2801    2.1774938    48.826453   0.13770099 
  195400   -944.17117    43.993038   -900.17813    1575.6711   -5692.1474    2.1581549    45.613371   0.14662336 
  195500   -944.24403    48.904394   -895.33963     1751.578    5148.2959    2.1830243    44.759877   0.14873358 
  195600   -948.28229    47.929211   -900.35308    1716.6505    5437.6392    2.1952379    45.485321   0.13605591 
  195700   -946.09991    40.771004    -905.3289    1460.2695    -8923.876    2.1542213    49.105369    0.1279336 
  195800   -943.28583    47.226414   -896.05942    1691.4789   -7870.9281    2.1488841    47.346231    0.1337099 
  195900   -946.25667    50.039367    -896.2173    1792.2287    15465.773     2.212928    45.093394   0.13359083 
  196000   -947.15043    45.045276   -902.10516    1613.3584    1921.3979    2.1853815    41.175551     0.124044 
  196100   -939.84867    46.326159   -893.52251     1659.235   -10872.053    2.1342526    48.034646   0.15254074 
  196200   -945.25209     50.19833   -895.05376    1797.9221    18.759319     2.173808    44.698973   0.13840455 
  196300   -947.82216    48.183553   -899.63861    1725.7601    7358.8483    2.1959425    47.012028   0.14865643 
  196400    -943.4207    47.100309   -896.32039    1686.9623   -1513.0932    2.1655173    43.670104    0.1394393 
  196500   -939.89503    47.889219   -892.00582    1715.2182   -6105.6454    2.1494478    44.748964   0.14926847 
  196600   -949.47546    48.508717   -900.96674    1737.4063    4662.2551    2.1941569    46.114772   0.13783516 
  196700   -945.83969      48.7155   -897.12419    1744.8125    3098.1816    2.1818462    47.062472   0.13897983 
  196800   -940.74314    46.610983   -894.13216    1669.4364   -4929.9046    2.1507718    48.344554   0.14223672 
  196900     -946.755     42.84387   -903.91113     1534.512    1523.0972    2.1812545    48.794884   0.11854045 
  197000   -948.31771    50.158662   -898.15904    1796.5014    3176.2552    2.1832894    43.348043   0.13563888 
  197100    -946.2879    50.884892     -895.403    1822.5123   -2348.3751    2.1637713     43.53234   0.12181222 
  197200   -946.49783     42.29867   -904.19916     1514.985   -1645.4538    2.1718274    40.681463   0.13630831 
  197300   -943.43253    43.395667   -900.03686    1554.2754    1160.4571    2.1743593    47.989131   0.13529561 
  197400   -942.76309    47.916902   -894.84619    1716.2097    7280.3835    2.1830449    44.483475   0.13853169 
  197500   -949.14377    47.167778   -901.97599    1689.3788   -5626.3665     2.169291    47.688685   0.12809066 
  197600   -944.95231    44.576086   -900.37622    1596.5537   -9962.6358    2.1501005    45.086039   0.14173402 
  197700   -942.06496    48.176991   -893.88797    1725.5251    9076.8653    2.1914444    47.364211   0.13773128 
  197800   -942.76707    44.661822   -898.10525    1599.6245    9943.5189    2.1943544    46.427811    0.1339456 
  197900   -947.95622      44.8728   -903.08342     1607.181   -13914.059    2.1476833    47.154848   0.11986706 
  198000   -941.44452    47.362758   -894.08176    1696.3622   -3497.1554    2.1554856     46.14258   0.13640874 
  198100   -938.88399    43.783207   -895.10078    1568.1557     17322.82    2.2056214    39.765288    0.1472869 
  198200   -945.67599    44.689675   -900.98631    1600.6221    701.37358    2.1770054    45.190061    0.1262611 
  198300    -941.5689    45.703978   -895.86492    1636.9508   -9154.5614    2.1416344    48.160138   0.13962396 
  198400   -939.73166    47.835482   -891.89618    1713.2935     4129.946    2.1704487    49.154115   0.14106575 
  198500   -947.97411    47.576441   -900.39767    1704.0156    9316.9925    2.1981069    44.008988   0.12641687 
  198600   -944.44546    46.534631   -897.91083    1666.7017   -3188.2891    2.1589169    46.188451   0.12188552 
  198700   -940.53668    47.360648   -893.17603    1696.2867   -6236.3849    2.1447552    42.014007   0.12334957 
  198800   -947.62083    44.706213   -902.91462    1601.2144    7111.3548    2.1973062    44.212011    0.1273281 
  198900   -943.99409    45.958802   -898.03528    1646.0776    2814.2313    2.1777195    46.698743   0.12787504 
  199000   -943.20714    47.704702   -895.50244    1708.6094   -7066.0586    2.1488979    45.059477   0.13064481 
  199100   -948.98957    44.703402   -904.28617    1601.1137   -1004.7385    2.1781625    43.732209    0.1228433 
  199200   -946.60421    47.435644   -899.16856    1698.9727    4390.2135    2.1855279    44.524355   0.12826454 
  199300   -944.04083    48.986195   -895.05464    1754.5078   -1715.1957    2.1644119    46.099777   0.15222661 
  199400   -946.31825    43.829366   -902.48889    1569.8089   -7582.9979     2.159751    45.652954   0.12188788 
  199500   -946.72322    46.755781   -899.96744    1674.6225    1280.8677    2.1796431    45.121829   0.13861132 
  199600   -943.22079    50.194421   -893.02637    1797.7821    7746.2321    2.1844458    45.943668   0.14286954 
  199700   -946.10653    45.577159   -900.52937    1632.4085   -7975.8076    2.1548725    44.616932   0.13377734 
  199800   -941.52183    41.739236    -899.7826    1494.9481   -10853.188    2.1428494    46.382272    0.1394758 
  199900   -946.63543    55.540519   -891.09491      1989.26    12800.573    2.2014302    44.002535   0.13881766 
  200000   -946.45849    49.708574   -896.74991    1780.3809    8759.8073    2.1926286     45.94062   0.13474868 
  200100   -944.54335    42.903817   -901.63953    1536.6591   -15256.534    2.1363591    45.225261     0.148244 
  200200   -942.15108    48.030907   -894.12017    1720.2929   -1346.7251      2.15789    47.719668   0.13440212 
  200300   -945.31186    50.979134   -894.33273    1825.8877    9703.7507    2.1948007    44.310884   0.13256473 
  200400   -948.18964    46.881132    -901.3085    1679.1122   -218.67637    2.1772051    45.233974   0.12679951 
  200500    -944.7351    47.189311   -897.54579      1690.15   -7360.6674    2.1510382    43.981347   0.13176734 
  200600   -940.14072    47.177367   -892.96335    1689.7222    4652.2512    2.1703598    43.560045   0.14383374 
  200700   -948.98641    46.402279   -902.58413    1661.9614    7398.3371    2.1972701    44.935462   0.12922418 
  200800   -944.61114    46.761236    -897.8499    1674.8179   -6164.7838    2.1540256    46.991055   0.13977183 
  200900   -940.56095    45.506373   -895.05458    1629.8733   -3007.1073    2.1518321    43.842072   0.14644364 
  201000   -947.65945     44.89763   -902.76182    1608.0703     6704.972     2.195038    46.104446   0.13634213 
  201100   -944.03741    45.170401   -898.86701      1617.84     4803.445    2.1824828    47.466498    0.1438138 
  201200   -944.87423    49.267698   -895.60654    1764.5903   -7964.1743       2.1485    47.856766   0.14208327 
  201300   -946.60228    44.575112   -902.02717    1596.5189   -1485.2974    2.1730201    45.610252   0.13956714 
  201400   -948.39917    48.208694   -900.19047    1726.6606    7833.5569    2.1978005    42.833276   0.13416135 
  201500    -944.2546    50.889711   -893.36488    1822.6849   -3636.2291    2.1607093    45.467657   0.14404249 
  201600    -945.7419    44.912891   -900.82901    1608.6169   -12271.853    2.1447101    47.144268   0.11920746 
  201700   -947.83401    49.010229   -898.82378    1755.3687    4868.0689    2.1889424    45.349915   0.12855383 
  201800   -938.69754    48.853227   -889.84432    1749.7454    14691.868    2.1944143    45.339774   0.15046133 
  201900   -946.26464     48.02345   -898.24119    1720.0258   -11382.158    2.1474305    46.323576   0.13089789 
  202000   -946.04002    45.355414   -900.68461    1624.4664   -12768.972    2.1445102    43.442809   0.13752234 
  202100   -943.85433    50.868048   -892.98628     1821.909    13055.474     2.201464    45.540108   0.13475249 
  202200   -943.59122    46.467724    -897.1235    1664.3054    6434.6395    2.1849158    43.926503    0.1279287 
  202300   -951.79987    48.497455   -903.30242     1737.003   -10224.062    2.1589056    44.693841   0.12084687 
  202400   -948.83284     52.52307   -896.30977    1881.1859   -3780.0126    2.1692526    43.130278   0.12052296 
  202500    -944.9862    48.738973   -896.24723    1745.6533    4002.2808    2.1818793    43.422186   0.13406673 
  202600   -951.26245    46.627992   -904.63446    1670.0456   -353.55863    2.1833951    45.647569    0.1217709 
  202700   -942.03965    44.968492   -897.07116    1610.6083   -3651.3648     2.158747    43.041338   0.12724218 
  202800   -941.08878    45.497678    -895.5911    1629.5618    953.96114     2.169281    46.139947   0.14897119 
  202900   -949.34135      45.0325   -904.30885    1612.9008     4544.383    2.1931345    45.680102   0.13190601 
  203000   -942.87585    43.824263   -899.05158    1569.6262   -1881.7111    2.1682236    43.020335   0.13045831 
  203100   -943.35668    47.226116   -896.13056    1691.4682   -2552.4749    2.1625361    41.747764   0.12997012 
  203200   -948.21206    46.688748   -901.52331    1672.2216    2022.0419    2.1860585     49.18522   0.11332774 
Loop time of 141.517 on 1 procs for 200000 steps with 217 atoms

Performance: 366.318 ns/day, 0.066 hours/ns, 1413.263 timesteps/s
100.0% CPU use with 1 MPI tasks x no OpenMP threads

MPI task timing breakdown:
Section |  min time  |  avg time  |  max time  |%varavg| %total
---------------------------------------------------------------
Pair    | 136.36     | 136.36     | 136.36     |   0.0 | 96.36
Neigh   | 2.0076     | 2.0076     | 2.0076     |   0.0 |  1.42
Comm    | 0.89951    | 0.89951    | 0.89951    |   0.0 |  0.64
Output  | 0.068726   | 0.068726   | 0.068726   |   0.0 |  0.05
Modify  | 1.8742     | 1.8742     | 1.8742     |   0.0 |  1.32
Other   |            | 0.3063     |            |       |  0.22

Nlocal:    217 ave 217 max 217 min
Histogram: 1 0 0 0 0 0 0 0 0 0
Nghost:    955 ave 955 max 955 min
Histogram: 1 0 0 0 0 0 0 0 0 0
Neighs:    4172 ave 4172 max 4172 min
Histogram: 1 0 0 0 0 0 0 0 0 0
FullNghs:  8344 ave 8344 max 8344 min
Histogram: 1 0 0 0 0 0 0 0 0 0

Total # of neighbors = 8344
Ave neighs/atom = 38.4516
Neighbor list builds = 3408
Dangerous builds = 53
Total wall time: 0:02:23
