LAMMPS (3 Mar 2020)
Reading data file ...
  orthogonal box = (0 0 0) to (17.469 17.469 17.469)
  1 by 1 by 1 MPI processor grid
  reading atoms ...
  217 atoms
  read_data CPU = 0.00105171 secs
Reading potential file library.meam with DATE: 2012-06-29
Reading potential file LiSi.meam with DATE: 2020-11-07
1 atoms in group Li
216 atoms in group Si
Neighbor list info ...
  update every 1 steps, delay 10 steps, check yes
  max neighbors/atom: 2000, page size: 100000
  master list distance cutoff = 6
  ghost atom cutoff = 6
  binsize = 3, bins = 6 6 6
  2 neighbor lists, perpetual/occasional/extra = 2 0 0
  (1) pair meam/c, perpetual
      attributes: full, newton on
      pair build: full/bin/atomonly
      stencil: full/bin/3d
      bin: standard
  (2) pair meam/c, perpetual, half/full from (1)
      attributes: half, newton on
      pair build: halffull/newton
      stencil: none
      bin: none
Setting up Verlet run ...
  Unit style    : metal
  Current step  : 0
  Time step     : 0.003
Per MPI rank memory allocation (min/avg/max) = 8.895 | 8.895 | 8.895 Mbytes
Step Temp E_pair E_mol TotEng Press Volume 
       0         1700   -951.04357            0   -903.57924   -114721.17    5330.9442 
    3200    1615.8284   -943.68458            0   -898.57034    2822.1583    4632.3488 
Loop time of 2.26853 on 1 procs for 3200 steps with 217 atoms

Performance: 365.629 ns/day, 0.066 hours/ns, 1410.607 timesteps/s
100.0% CPU use with 1 MPI tasks x no OpenMP threads

MPI task timing breakdown:
Section |  min time  |  avg time  |  max time  |%varavg| %total
---------------------------------------------------------------
Pair    | 2.1855     | 2.1855     | 2.1855     |   0.0 | 96.34
Neigh   | 0.033858   | 0.033858   | 0.033858   |   0.0 |  1.49
Comm    | 0.014519   | 0.014519   | 0.014519   |   0.0 |  0.64
Output  | 2.6461e-05 | 2.6461e-05 | 2.6461e-05 |   0.0 |  0.00
Modify  | 0.029605   | 0.029605   | 0.029605   |   0.0 |  1.31
Other   |            | 0.004999   |            |       |  0.22

Nlocal:    217 ave 217 max 217 min
Histogram: 1 0 0 0 0 0 0 0 0 0
Nghost:    957 ave 957 max 957 min
Histogram: 1 0 0 0 0 0 0 0 0 0
Neighs:    4130 ave 4130 max 4130 min
Histogram: 1 0 0 0 0 0 0 0 0 0
FullNghs:  8260 ave 8260 max 8260 min
Histogram: 1 0 0 0 0 0 0 0 0 0

Total # of neighbors = 8260
Ave neighs/atom = 38.0645
Neighbor list builds = 57
Dangerous builds = 0
Setting up Verlet run ...
  Unit style    : metal
  Current step  : 3200
  Time step     : 0.003
Per MPI rank memory allocation (min/avg/max) = 9.663 | 9.663 | 9.663 Mbytes
Step PotEng KinEng TotEng Temp Press Density c_msdli[4] c_msdsi[4] 
    3200   -943.68458    45.114237   -898.57034    1615.8284    2822.1583    2.1771478            0 4.6340014e-32 
    3300   -943.25642    47.617897   -895.63853    1705.5004    10909.395    2.1936955   0.13332443   0.10994074 
    3400   -943.51031     53.65968   -889.85063    1921.8951   -8650.8128    2.1437694   0.25335553   0.12082519 
    3500   -942.24694    42.918003   -899.32894    1537.1672   -3808.7092     2.156838   0.29973171   0.12257838 
    3600   -944.25466    45.767139   -898.48752    1639.2129    4516.5058    2.1821669   0.16768526   0.15270361 
    3700   -942.88239    48.365383     -894.517    1732.2726    4955.2632    2.1753931   0.13592848   0.12437534 
    3800   -942.78513    48.066948   -894.71818    1721.5838   -8462.8364    2.1434403   0.40032666    0.1063081 
    3900   -951.25682    47.726709   -903.53011    1709.3976   -38.245946    2.1843275  0.012470211   0.11987244 
    4000   -944.61362    48.557118    -896.0565    1739.1399     7658.693    2.1854422   0.10151409   0.10233003 
    4100   -943.50126    48.025947   -895.47531    1720.1153   -4859.7243    2.1566113 0.0036858274   0.10604752 
    4200     -946.499    43.532822   -902.96617    1559.1878   -4910.4384    2.1627708  0.096971294   0.10126214 
    4300    -947.8179    47.297735   -900.52017    1694.0333    4702.9015    2.1918747   0.25239121   0.10355443 
    4400   -942.69707    48.916254   -893.78081    1752.0028    2714.0104    2.1753996   0.29880194   0.14368144 
    4500   -944.50652    46.224541   -898.28198    1655.5954   -8356.0107    2.1487599   0.11484475   0.13861074 
    4600   -947.66871    45.786857   -901.88186    1639.9192     365.3247    2.1790983   0.18001517   0.13827335 
    4700   -942.41877    50.776158   -891.64261    1818.6178    5872.0406    2.1797659   0.34180623   0.12644863 
    4800   -942.25377    47.399122   -894.85464    1697.6646   -701.12709    2.1657138  0.058228088   0.13642043 
    4900   -945.40127      45.5221   -899.87917    1630.4365   -6857.4392    2.1587748   0.10011417   0.11309235 
    5000   -942.84025    48.019128   -894.82112     1719.871    6677.4673    2.1822551   0.24587967   0.14359711 
    5100   -942.45651    51.330486   -891.12602    1838.4718    2009.4811    2.1705085   0.41760111   0.12462674 
    5200   -946.13564    47.079598   -899.05605    1686.2205    -7391.203     2.153227   0.35418869   0.12098749 
    5300   -947.27713    51.082049   -896.19508    1829.5737   -341.19902    2.1697507   0.25865974    0.1229452 
    5400   -944.22852    56.133725   -888.09479    2010.5065    3584.0438     2.174119   0.19253788   0.13157235 
    5500   -943.69558     45.86208    -897.8335    1642.6134   -1419.1642    2.1640414   0.19631863   0.15551107 
    5600   -943.83504    45.597483   -898.23756    1633.1365   -5791.3825    2.1493003   0.59382663   0.13956359 
    5700   -939.06031    48.098599   -890.96171    1722.7174    8292.8358    2.1763991   0.13019231   0.14734137 
    5800   -945.98068    47.569439   -898.41124    1703.7648    4705.8855    2.1851364   0.47975592   0.12553961 
    5900   -945.27997    44.706823   -900.57315    1601.2363   -9536.0423    2.1507186   0.17849392   0.13831819 
    6000    -941.8718    47.429733   -894.44207     1698.761    668.77972    2.1615204   0.20274663   0.13393549 
    6100   -946.23154    49.432457   -896.79908    1770.4913    7476.8293    2.1903887   0.39722738   0.14375091 
    6200   -947.29531    44.075995   -903.21931    1578.6423    1087.7585    2.1817083   0.43395485   0.13404603 
    6300    -944.0247     48.50117   -895.52353     1737.136   -8327.9266    2.1476483   0.25148586    0.1391566 
    6400   -944.13857     49.76957     -894.369    1782.5655    986.52093    2.1711485   0.15015305   0.13775113 
    6500   -949.07962    46.599751   -902.47987    1669.0341    5236.4325    2.1930932   0.28900107   0.12970279 
    6600   -943.24564    48.728326   -894.51731    1745.2719   -5502.9572    2.1487079  0.072537893   0.13411761 
    6700   -942.38251    47.573826   -894.80868    1703.9219   -2149.5067    2.1550817   0.15528506    0.1458114 
    6800   -945.71415    46.574984   -899.13917     1668.147    10765.315    2.1949433   0.12230151   0.12487534 
    6900   -949.10461    48.552822   -900.55179     1738.986    155.89241    2.1783099   0.19475222   0.12171391 
    7000   -939.12656    47.153521   -891.97303    1688.8681    -18080.22    2.1126702   0.19417488    0.1522799 
    7100   -942.62589      44.7462   -897.87969    1602.6466    5711.0393    2.1860917    0.1959208    0.1315128 
    7200   -946.09588    48.678482    -897.4174    1743.4867    16530.309    2.2160586   0.29206724   0.13337755 
    7300   -940.76901    48.850041   -891.91897    1749.6313    -9710.715    2.1387407   0.26584373   0.14038472 
    7400   -941.58858    48.070886    -893.5177    1721.7248   -9019.5253    2.1407129   0.14030688   0.14161747 
    7500   -944.78174    46.379469   -898.40227    1661.1444    9035.5531    2.1949281   0.14706842   0.13583608 
    7600   -943.08504    48.283674   -894.80136    1729.3461    3528.1674    2.1760278  0.084379991   0.15994914 
    7700   -940.05154    48.760103   -891.29143    1746.4101   -9621.6873    2.1372488  0.090487878   0.15360344 
    7800   -945.76333    44.624446   -901.13888    1598.2858    3607.9095     2.181325   0.36726788   0.13055568 
    7900   -943.97586    48.282138   -895.69372    1729.2911    8019.2483    2.1871549   0.38732578   0.13628586 
    8000   -943.75353    49.934933    -893.8186    1788.4882   -4914.0216    2.1545888    0.2260666   0.12475121 
    8100   -947.60197    44.031709   -903.57026    1577.0562   -5133.1785    2.1674223   0.19783316      0.12882 
    8200   -943.06294    45.104411   -897.95853    1615.4764    5505.4765    2.1821366   0.12420813   0.12342127 
    8300   -942.51604    49.032612   -893.48343    1756.1703     4158.778    2.1735634   0.39774833   0.13065846 
    8400   -946.67704    46.058745    -900.6183    1649.6572   -7390.0095    2.1573368   0.36042666   0.13530065 
    8500   -947.23902    47.427443   -899.81158     1698.679   -4065.8775    2.1644027   0.10058728   0.13229322 
    8600   -945.19187    52.333165   -892.85871    1874.3842    5937.2311    2.1857571   0.37720552   0.14761433 
    8700    -946.1462    47.962405   -898.18379    1717.8394    998.32268    2.1730986   0.08292429   0.13561911 
    8800   -947.82481    45.789537   -902.03527    1640.0152    -11068.33    2.1488228   0.18739609   0.12463643 
    8900   -944.11992    51.649058   -892.47087    1849.8819    1922.9868    2.1745479   0.48642148   0.12752399 
    9000   -942.91122    49.163097   -893.74813    1760.8439    15723.033     2.206484    1.1838801   0.16173801 
    9100   -942.06666    42.568449   -899.49821    1524.6475   -9207.0293    2.1497303     2.432649   0.15896154 
    9200   -939.91176    48.444282   -891.46748    1735.0985   -10806.192    2.1316908     1.156603   0.16324603 
    9300   -935.76038    45.293554   -890.46683    1622.2508    16137.494    2.1912709   0.81361077   0.17227176 
    9400   -940.65897    42.696013   -897.96296    1529.2164    6473.9541    2.1792258    1.9196957   0.16322935 
    9500   -941.83085    47.554834   -894.27601    1703.2417   -8499.1018    2.1453723    1.1111308   0.14369105 
    9600   -938.35938    50.087213   -888.27217    1793.9423     467.5195    2.1552155     1.176496   0.16056882 
    9700   -942.34976    43.977267    -898.3725    1575.1062     9790.908    2.1961457    0.9296082   0.14629221 
    9800   -945.06766    48.938907   -896.12875    1752.8142   -5051.2021    2.1565874   0.24839017   0.12369895 
    9900    -942.3092    49.237324   -893.07188    1763.5024   -6909.4118    2.1474899   0.17135765   0.13980251 
   10000   -946.23843    43.985436   -902.25299    1575.3988       8006.8    2.1977541   0.35238375    0.1320326 
   10100   -943.46186    47.539486   -895.92237     1702.692    2199.4127    2.1730563   0.21491639   0.13859519 
   10200   -943.75357    48.997083   -894.75649    1754.8978   -9180.9731    2.1494238    0.2134936   0.13113481 
   10300   -946.09701    44.353314    -901.7437    1588.5749   -574.34158    2.1769798   0.46330047   0.15018332 
   10400    -946.3799    48.038618   -898.34128    1720.5691    8984.4534    2.1927166   0.56797124   0.12312311 
   10500   -945.26993    51.784735    -893.4852    1854.7414   -3895.6533    2.1577247   0.64691187   0.14160687 
   10600   -948.96245    48.824945    -900.1375    1748.7325   -11109.663    2.1509535  0.056161761   0.12193185 
   10700   -947.44644    49.238744    -898.2077    1763.5532    4809.7086    2.1882853   0.17021465   0.12899962 
   10800   -942.17633    51.971167   -890.20517    1861.4187    5680.2707    2.1780873   0.22463283   0.13207377 
   10900   -944.93125    46.720776   -898.21047    1673.3688   -10468.521    2.1422161   0.44398418   0.12177149 
   11000   -945.22487    47.336829   -897.88804    1695.4335   -4733.9116    2.1563056   0.27342361   0.13156062 
   11100   -939.35299    51.002722   -888.35026    1826.7325    19523.399    2.2050938   0.22917205   0.13625636 
   11200   -944.56457    49.033794   -895.53078    1756.2127    -473.3167    2.1690763   0.27786601   0.14185606 
   11300   -944.15961    43.293624   -900.86598    1550.6206   -18777.712    2.1262255   0.29916046   0.15191298 
   11400   -943.95079    49.834185   -894.11661    1784.8798    3457.0188    2.1805761  0.072303461   0.14978842 
   11500   -945.80353    50.899222   -894.90431    1823.0255    5737.2311    2.1921739  0.073689476   0.13868423 
   11600   -944.48376    41.236317   -903.24744    1476.9353   -1033.0588    2.1726028   0.15300357   0.14058686 
   11700   -942.96263    46.721901   -896.24072     1673.409   -4017.4657    2.1575235   0.49259608   0.12475116 
   11800   -944.01102    50.249239   -893.76178    1799.7455    3405.6462    2.1815371   0.40647484   0.13891685 
   11900   -946.71255    44.248737   -902.46381    1584.8293    2275.3371    2.1879298   0.25395332   0.12958521 
   12000   -942.22305    46.744639   -895.47841    1674.2235   -6500.6076    2.1510168   0.40868008   0.14067687 
   12100   -942.18245    48.245612   -893.93683    1727.9829    1500.1543    2.1710581   0.47562067   0.15304802 
   12200   -944.22699    44.319284    -899.9077     1587.356    7770.5411    2.1945902  0.030541984   0.13527706 
   12300   -940.37659    43.892144   -896.48445    1572.0574   -506.06197    2.1606737   0.15818705   0.13736326 
   12400   -936.97123    44.647257   -892.32397    1599.1028   -5232.6006    2.1457937    0.2004439   0.14680338 
   12500   -944.12748    45.886852   -898.24062    1643.5006    5226.8418    2.1850113  0.047965414   0.13638357 
   12600   -946.36799    47.698256   -898.66974    1708.3786    5702.8031    2.1886578   0.27534505   0.11232639 
   12700   -941.18775    50.905645   -890.28211    1823.2556   -10464.961    2.1345973   0.23806157    0.1301383 
   12800   -947.01235    47.809138   -899.20322      1712.35   -3480.3624    2.1664902    0.5228452   0.12288654 
   12900   -946.67773    49.176679   -897.50105    1761.3303    7717.8853    2.1956661   0.21624035   0.13074278 
   13000   -941.76533    50.478921    -891.2864    1807.9719    -1339.708    2.1597351   0.26698723   0.12851739 
   13100   -945.50096    49.254105   -896.24685    1764.1034   -15000.855    2.1353334   0.30947783   0.15019103 
   13200   -944.79571    45.392532   -899.40318    1625.7959    5791.7169    2.1894004     0.228139   0.12735229 
   13300   -937.44994    45.349744   -892.10019    1624.2634    16648.875    2.2026031   0.22916696   0.14384439 
   13400   -944.94987     48.89351   -896.05636    1751.1882   -13511.158    2.1367577   0.21274139   0.14574299 
   13500   -947.82533    44.609939   -903.21539    1597.7662   -9729.0506    2.1557758   0.65963541   0.13401179 
   13600   -941.15904    46.331478   -894.82756    1659.4255    11632.922    2.1925697    1.1140511   0.12847173 
   13700    -943.4109    48.556322   -894.85458    1739.1114    3049.0341    2.1737832   0.30937057   0.11880265 
   13800     -946.875    43.984372   -902.89063    1575.3607   -5843.7888    2.1637622   0.26022686   0.12469067 
   13900   -942.71224    46.617237     -896.095    1669.6604    943.28773    2.1674911   0.32444088   0.12331275 
   14000   -940.84977    47.416693   -893.43307     1698.294    5383.4554      2.17514   0.10165345   0.13991345 
   14100   -943.57657    42.740591   -900.83598     1530.813   -239.94653    2.1698344   0.24849462   0.13100883 
   14200   -942.22653     47.00852   -895.21801    1683.6747   -3028.9966    2.1577799   0.21860842   0.13359048 
   14300   -942.12132    49.662467   -892.45885    1778.7295    1647.6015    2.1720446   0.19044661   0.14004949 
   14400   -945.12891    45.861044   -899.26786    1642.5763   -8.7600993    2.1735618   0.43260834   0.13581002 
   14500   -941.12449    45.269228   -895.85527    1621.3796   -2539.9705    2.1571083   0.22819459    0.1262991 
   14600   -943.32285    52.941177   -890.38167     1896.161   -1213.3925    2.1573721   0.19203118   0.11734658 
   14700   -944.33629    46.101608   -898.23468    1651.1924    7004.2038    2.1870896   0.21999776   0.11780813 
   14800   -945.32967    47.777192   -897.55248    1711.2058   -1998.5032    2.1616836   0.25808351   0.11914115 
   14900   -940.11369     49.46041   -890.65328    1771.4925   -7598.0535    2.1373483   0.13821178    0.1276567 
   15000   -947.13763    47.147726    -899.9899    1688.6606    9609.3004    2.1970834   0.17826655   0.12424989 
   15100   -944.45433    46.728742   -897.72559    1673.6541    6100.7344    2.1833145    0.2685209    0.1200952 
   15200   -942.11586    48.123067    -893.9928    1723.5937   -13536.673    2.1304195   0.58346889   0.15472574 
   15300   -945.29291    46.729442   -898.56347    1673.6792   -1350.6239    2.1681995   0.38768601   0.13550416 
   15400   -947.91274    47.462452   -900.45029    1699.9329    14114.212    2.2125384  0.092324169   0.12050517 
   15500   -940.85464    46.880256   -893.97438    1679.0807   -1936.3712      2.16092   0.32825052   0.13898674 
   15600   -940.66588    44.392803   -896.27308    1589.9892   -10347.846    2.1388293   0.18947496   0.13555828 
   15700   -946.58759    45.063098   -901.52449    1613.9967    7245.4163    2.1938042   0.40329844   0.13177283 
   15800   -940.65263     48.26779   -892.38484    1728.7772    7101.2105    2.1797676   0.29608138    0.1330328 
   15900   -940.57075    45.905371   -894.66538    1644.1639   -2099.0044    2.1573203   0.35185117   0.15147455 
   16000   -943.47293    43.147251   -900.32568    1545.3781   -1418.4189    2.1688258   0.27781161   0.12762649 
   16100   -943.83433    49.376513   -894.45781    1768.4876    3440.6967    2.1773271   0.21050356   0.14278505 
   16200   -940.72645    48.337195   -892.38926     1731.263   -144.33226    2.1660933   0.52547438   0.14661746 
   16300   -942.45961    42.694218   -899.76539    1529.1521   -506.49738    2.1695561  0.095777571     0.149506 
   16400   -942.60613    47.580338   -895.02579    1704.1551    1137.3159     2.171645   0.38125005   0.14656853 
   16500   -940.77534    49.942459   -890.83288    1788.7578     1198.369    2.1684336   0.26613826   0.13759915 
   16600   -944.12681    44.347825   -899.77899    1588.3783   -300.98864    2.1759701   0.47257538   0.12281944 
   16700   -944.61748     48.62971   -895.98777    1741.7398   -4334.3234    2.1660011   0.76816684   0.13905664 
   16800   -941.71459    50.814335   -890.90025    1819.9852    1006.3057    2.1657769   0.49889688   0.14787587 
   16900   -942.93487    42.303536   -900.63134    1515.1592    8684.2729    2.1942819   0.44973938   0.14861359 
   17000   -939.64437    42.967892   -896.67647    1538.9541   -1947.1578      2.16097   0.65750052   0.16279532 
   17100   -942.16833    48.899719   -893.26861    1751.4106   -7271.1314    2.1461293   0.14340376   0.14545927 
   17200   -946.33229    44.269902   -902.06239    1585.5874    10869.783    2.2053769   0.12343862   0.13647112 
   17300   -944.80146    46.856714   -897.94475    1678.2376    4066.9526    2.1848322  0.098403406   0.13726109 
   17400   -940.44379    45.837044   -894.60675    1641.7167   -10750.205     2.140093   0.30357062   0.15018766 
   17500   -947.02132    47.374021    -899.6473    1696.7656   -1242.5957    2.1740697   0.47073135   0.12549749 
   17600   -947.84652    47.141422    -900.7051    1688.4348    12263.256    2.2125079   0.33117952   0.14206633 
   17700   -940.49926    47.561542   -892.93772    1703.4819   -3399.7465    2.1560051   0.22776152   0.13327749 
   17800     -945.776    47.750978   -898.02502    1710.2668   -11525.276    2.1460563   0.10560552   0.13222228 
   17900   -946.14677    47.038443   -899.10832    1684.7464    6573.9059    2.1925894    0.1084519   0.12370531 
   18000   -939.51294    50.271071   -889.24187    1800.5275    4944.7456    2.1732554   0.11115513   0.14802961 
   18100   -942.13092    45.748219    -896.3827    1638.5353   -5181.4514    2.1599296   0.14255787   0.14341102 
   18200   -942.54234    43.382711   -899.15963    1553.8114   -1602.3905    2.1695428 0.0079080487   0.13832446 
   18300   -940.96016    50.529399   -890.43076    1809.7798    4924.5592    2.1755535   0.11518082   0.14338028 
   18400    -942.3884    48.031902   -894.35649    1720.3285    2039.2102    2.1711711   0.37986362   0.14028346 
   18500   -943.04631    43.459139   -899.58717    1556.5488    -2182.573    2.1632348  0.093685003   0.12401539 
   18600   -940.09413    47.165664   -892.92847    1689.3031    3126.6478     2.171373   0.15180262   0.14634602 
   18700   -943.31418    49.314999   -893.99918    1766.2844    2059.1552    2.1740523   0.38494695   0.12959872 
   18800   -950.22615    49.541886   -900.68426    1774.4107   -2724.3141    2.1732828  0.012807173   0.12345248 
   18900   -942.76875    47.954717   -894.81403     1717.564   -689.69309    2.1613669   0.18609826   0.14417694 
   19000    -941.2257    48.399245   -892.82645    1733.4855    982.54106     2.166231   0.28824007   0.13635651 
   19100   -944.43117    42.388198   -902.04297    1518.1915    4234.9487    2.1826208   0.23591542    0.1510569 
   19200   -943.86237    48.237618   -895.62475    1727.6965   -1567.0359    2.1639334   0.34886916    0.1559252 
   19300   -946.07046    51.952786   -894.11768    1860.7604   -4186.8249    2.1647412   0.27008803   0.13496098 
   19400   -949.52388    46.881833   -902.64204    1679.1372     1658.963     2.185101   0.06264813   0.11801684 
   19500   -945.78339     50.72637   -895.05702    1816.8346   -2791.6534     2.166221  0.088653386   0.12310211 
   19600    -944.7128    50.063437   -894.64936    1793.0908   -2450.5906    2.1645472   0.25488956   0.13804621 
   19700   -948.73757    46.890104   -901.84746    1679.4335    572.17229    2.1808038   0.21410178   0.12655081 
   19800   -944.19402    48.860196   -895.33382     1749.995     1413.422    2.1714855   0.30911711   0.15137007 
   19900   -942.39921    48.560465   -893.83874    1739.2597   -587.57517    2.1641554   0.39074515    0.1469338 
   20000    -946.1915    45.634287   -900.55721    1634.4546   -565.03418    2.1718822   0.14918899   0.12716231 
   20100   -944.81462     49.19087   -895.62375    1761.8386    945.32119    2.1698005   0.19330484   0.13218689 
   20200   -944.43531    52.152541   -892.28277    1867.9149   -794.37745    2.1632271   0.10963708   0.13687208 
   20300   -944.43458    44.376252   -900.05833    1589.3964   -1906.6873    2.1673197   0.45843173   0.12816453 
   20400   -944.73513     49.37579   -895.35934    1768.4618   -185.77955    2.1711914  0.096875083   0.12901908 
   20500   -941.99928    51.755515   -890.24376    1853.6948    4427.8416    2.1700303   0.24468786    0.1215617 
   20600    -947.1375    47.710207   -899.42729    1708.8066   -5377.2874    2.1631583   0.40357943    0.1220396 
   20700   -945.47313    48.596935    -896.8762     1740.566   -5593.7557    2.1559519   0.31967627   0.14127921 
   20800   -940.73342      51.3736   -889.35982     1840.016    5621.3658    2.1743355   0.22860899   0.14422119 
   20900   -945.75162    46.796922   -898.95469     1676.096    4090.1809    2.1863796   0.72744796   0.14621367 
   21000   -942.66386    44.283637   -898.38022    1586.0793   -8121.2901    2.1471032   0.13374301   0.14485477 
   21100   -942.13535    50.231154   -891.90419    1799.0978   -4197.2737    2.1583687    0.5136982   0.13183731 
   21200   -946.58766    47.021626   -899.56604    1684.1441     9737.454    2.2041018   0.20221535   0.12292426 
   21300   -947.80067    47.851359   -899.94931    1713.8622   -4585.0242    2.1660889   0.33044098   0.12449579 
   21400   -943.28076    49.326114   -893.95465    1766.6825   -9816.4682    2.1443896   0.73496346    0.1182276 
   21500   -944.04687    45.422771    -898.6241    1626.8789     7059.589    2.1906352    0.2885324   0.13870067 
   21600   -945.83419    44.505845   -901.32834     1594.038      6894.27    2.1962111   0.14833172   0.13099623 
   21700   -944.93841    51.490838   -893.44757    1844.2151   -10053.553     2.145336   0.20930267   0.15046664 
   21800   -943.21148    45.975777    -897.2357    1646.6856   -2697.9193    2.1639131   0.45779198    0.1468379 
   21900   -945.53856    45.403249   -900.13531    1626.1797    9321.2841    2.2026652   0.28838567   0.14025693 
   22000   -939.58804    48.609797   -890.97824    1741.0266   -2357.8618     2.157105   0.31730852   0.12436849 
   22100   -941.90147    45.033653   -896.86782    1612.9421   -6076.8175    2.1515469   0.30199486   0.12314298 
   22200   -947.80099    48.564221   -899.23676    1739.3943    2628.0022    2.1855756  0.066635989   0.11293582 
   22300   -935.11196    45.143317   -889.96864    1616.8699     5923.269    2.1706623   0.48561133    0.1393533 
   22400   -944.13356    48.673756   -895.45981    1743.3174   -4901.1913     2.156468   0.10587967   0.12527968 
   22500   -946.30586    46.695662    -899.6102    1672.4693    -1001.991     2.170151   0.13572214   0.12946056 
   22600   -942.84934    50.911001   -891.93834    1823.4474    3038.4593    2.1732692  0.083899711   0.13324687 
   22700   -944.92745    50.951345   -893.97611    1824.8924   -10.054145    2.1669712  0.011867325   0.12809554 
   22800   -946.15443     46.17164   -899.98279    1653.7007    -1978.908    2.1702222   0.12446231   0.12962089 
   22900   -944.06372    50.558199   -893.50553    1810.8113   -149.97576    2.1681046    0.2168309   0.13833485 
   23000   -940.98475    47.705044   -893.27971    1708.6217     3011.973    2.1704085   0.13255612   0.14331669 
   23100   -948.45549     47.38648   -901.06901    1697.2119    298.62346    2.1781004    0.1729497   0.12610046 
   23200   -945.64486    50.630148   -895.01471    1813.3883   -1349.5338    2.1673793   0.26933266   0.12013402 
   23300   -941.97114    48.576571   -893.39457    1739.8366    2312.2929    2.1685159   0.20654994   0.13373971 
   23400   -944.88959    42.691319   -902.19827    1529.0482    5453.6811    2.1896941   0.28936793   0.13700987 
   23500   -945.84504    50.611862   -895.23318    1812.7334   -4089.8033    2.1593313   0.25096852   0.12211645 
   23600   -946.23459    51.607288    -894.6273    1848.3859   -6605.4984    2.1606661  0.040069034   0.13162946 
   23700   -947.69253    45.449558   -902.24297    1627.8383     7172.298    2.1993149  0.070204845   0.14766244 
   23800    -942.5023    47.605406    -894.8969     1705.053    989.72886    2.1715138   0.15742041   0.13574741 
   23900   -944.24701    49.737794   -894.50922    1781.4274   -8540.6073    2.1489296    0.5263849   0.14191275 
   24000   -945.34315    45.199383   -900.14377     1618.878    2475.4121    2.1817503   0.44472352   0.13662977 
   24100   -945.08466    46.226773   -898.85788    1655.6754    7952.5809     2.198507   0.65430296   0.14455663 
   24200    -942.5806    50.638235   -891.94236    1813.6779   -8233.1806     2.148239    4.7090967   0.17886859 
   24300   -941.26399    43.592294   -897.67169    1561.3179   -6786.6462    2.1502827    3.5579173   0.16089668 
   24400   -941.21643    44.593851   -896.62258      1597.19    8123.0227    2.1897011    4.6034117   0.19727339 
   24500   -936.43962    49.313379   -887.12624    1766.2264    6003.1359    2.1698657    2.5445382   0.19240866 
   24600   -941.45465    45.516289   -895.93836    1630.2284   -5960.4482    2.1510701    7.6575517   0.14880793 
   24700   -943.55194    46.949044    -896.6029    1681.5445   -3411.0236    2.1593581    5.2154913   0.14952669 
   24800   -939.51069     51.23758   -888.27311    1835.1443    8365.2759    2.1779613    10.860976   0.13558182 
   24900   -941.93434    47.694393   -894.23995    1708.2402   -350.23708    2.1686093    9.8065786   0.15383752 
   25000   -942.61933    43.948868   -898.67047    1574.0891    -7339.418     2.155622    4.3311759   0.18813765 
   25100   -942.48513    50.719739   -891.76539    1816.5971    5808.1677    2.1789269    4.0630327   0.16567047 
   25200   -944.84882    50.248253   -894.60057    1799.7102     9235.656    2.1929137    2.0616475   0.16305554 
   25300   -942.96842    42.271763   -900.69666    1514.0212   -9220.0005      2.14961    5.5721191   0.16507446 
   25400   -943.38011    48.035413    -895.3447    1720.4543   -6930.5518    2.1487455    4.5056646   0.14764494 
   25500   -943.68067    53.388788   -890.29188    1912.1928    16204.314    2.2098228    2.7381834   0.16778417 
   25600   -945.03397    45.630792   -899.40318    1634.3295    1693.8848    2.1808411    3.9442288   0.17792936 
   25700   -941.90716     45.18929   -896.71787    1618.5165   -14804.251    2.1311099    3.4927993   0.17411495 
   25800   -942.11455    50.780255    -891.3343    1818.7646   -2144.7419    2.1664355    6.3357108    0.1734478 
   25900   -945.24862    48.705276   -896.54334    1744.4463    7189.7584    2.1936511    8.6583597   0.15535046 
   26000   -944.83259    47.789844   -897.04275    1711.6589   -6951.0557     2.160716    9.0483343   0.15353208 
   26100   -931.94624    42.209562   -889.73668    1511.7934   -6767.4479     2.132886    2.4180543   0.21693178 
   26200   -943.16926    46.258283   -896.91098    1656.8039    5713.8072    2.1862979    4.6480674    0.1677543 
   26300   -946.36197    49.119549   -897.24243    1759.2841    4099.9412    2.1851563    3.8337537   0.16076489 
   26400   -937.32556     48.27745   -889.04811    1729.1232   -5258.0863    2.1403763    6.5939867   0.16301748 
   26500   -942.83794    45.921564   -896.91637    1644.7439   -1472.1626    2.1651383    4.6062058   0.13819454 
   26600   -945.97841    49.091594   -896.88682    1758.2829    6307.1746    2.1851953    3.7182105   0.14789487 
   26700   -940.48349    48.407171   -892.07632    1733.7693    1920.6223     2.163223    3.0114665   0.16910219 
   26800   -941.99108    48.042035   -893.94904    1720.6915    -10554.41    2.1402101    3.7539628   0.15735283 
   26900   -948.16996    48.228249   -899.94171     1727.361    133.94036    2.1755065    4.2240136   0.14430073 
   27000    -943.6831    50.903317   -892.77978    1823.1722    8649.8332    2.1855396    4.5638208   0.13742343 
   27100   -942.24125    45.503926   -896.73732    1629.7856    -2992.765    2.1573555    5.4028639   0.14561711 
   27200   -949.38257    46.294347   -903.08822    1658.0956    -9032.715    2.1583911    4.2862129   0.14024227 
   27300   -944.10098    49.925662   -894.17532    1788.1562     7799.025     2.188235    5.0132833   0.13872383 
   27400   -948.64463     53.93315   -894.71148    1931.6898     4982.034    2.1884423     3.617207   0.11742742 
   27500   -948.37597    45.981074    -902.3949    1646.8753   -19918.436    2.1313814    6.1435997   0.12501638 
   27600   -943.87483    47.338918   -896.53591    1695.5084   -4918.1762    2.1567597    6.0257109   0.13569084 
   27700   -944.61579    54.716518   -889.89927    1959.7472    18467.203    2.2140907    5.4885797    0.1453831 
   27800   -946.52069    48.114259   -898.40643    1723.2783   -4922.6436    2.1638315    6.4409533   0.12856592 
   27900   -943.55118    46.069551   -897.48163    1650.0442   -8625.9403    2.1471794    5.7138255   0.13238519 
   28000   -938.16198    49.364181    -888.7978     1768.046    3415.4302    2.1647388    5.6271869   0.14818766 
   28100   -946.93851    49.530064   -897.40845    1773.9873    7657.7083    2.1956354     5.661779   0.14774487 
   28200    -944.5877     45.46768   -899.12002    1628.4874   -5969.8024     2.158854    5.7215006   0.13601641 
   28300   -939.89318    48.394994   -891.49818    1733.3332   -5624.3679    2.1463962    6.3455438   0.14832374 
   28400   -945.74135    46.821464   -898.91988     1676.975    8275.7612    2.1966998    4.9886164   0.12980632 
   28500   -948.09743    48.474651   -899.62278    1736.1862   -507.60842    2.1769917     4.801979   0.13121224 
   28600   -943.92813    49.630893   -894.29724    1777.5986    -6745.629    2.1508115    5.7534996   0.13160263 
   28700   -943.87847    48.368969    -895.5095    1732.4011   -1046.9169    2.1698331     4.877163   0.14376332 
   28800   -945.44347    44.146785   -901.29668    1581.1777    10954.674    2.1970907    11.047111   0.14859569 
   28900   -942.43575    49.497626   -892.93813    1772.8255   -5115.1172    2.1486816    10.866953   0.16189938 
   29000   -940.41667    44.853567    -895.5631    1606.4921   -6415.2646    2.1457918    11.084887   0.18246461 
   29100   -943.10874     43.69977   -899.40897    1565.1673    9306.8562     2.189494    15.633321   0.14484519 
   29200   -939.62702    49.968315    -889.6587    1789.6838    6237.7023    2.1759697    15.280442   0.15164576 
   29300   -941.15014    45.655397   -895.49474    1635.2107   -7087.9458    2.1476093    16.907736   0.14578357 
   29400   -947.30147     47.43499   -899.86648    1698.9493    -5378.528    2.1623931    14.351462   0.14090793 
   29500   -944.63631    51.606151   -893.03016    1848.3452    10630.151    2.1951317    15.687319   0.13540311 
   29600   -943.81459     51.37507   -892.43952    1840.0687   -1068.0992    2.1621254    13.726395   0.12455112 
   29700   -947.16137    46.434435   -900.72693    1663.1131   -16388.803    2.1354762    16.303555   0.13291495 
   29800   -944.76104    48.576093   -896.18495    1739.8195    5814.0085    2.1849281    14.243308   0.14529741 
   29900   -946.80654    55.793185   -891.01335    1998.3095    10609.487    2.1940246    14.565789   0.14970585 
   30000   -945.66971    48.249922   -897.41979    1728.1372   -13684.351    2.1356381     15.11129   0.14434551 
   30100   -946.17537    45.942981   -900.23238     1645.511   -4851.2929    2.1633176    17.418276   0.14502868 
   30200   -940.30514    47.690551   -892.61459    1708.1026    8680.9118    2.1789922    15.439716   0.14755233 
   30300   -944.46665    46.572802   -897.89385    1668.0689      265.005    2.1691579     12.97707   0.12320581 
   30400   -946.89224      44.4912   -902.40104    1593.5134    -5488.619    2.1635995    12.790247   0.13878846 
   30500   -945.35094    51.409586   -893.94135    1841.3049   -396.49784    2.1664403    15.247739   0.11780982 
   30600   -940.59615    44.170613   -896.42554    1582.0312    8444.9324    2.1814696    12.978354   0.13013655 
   30700   -950.70277    47.378252   -903.32451    1696.9172   -4122.5448    2.1724824     16.43535   0.13746883 
   30800   -941.18982    47.210705   -893.97912    1690.9162   -6831.1593    2.1482395    15.286663   0.16586477 
   30900   -946.83111    51.190672   -895.64043    1833.4642    3472.8759    2.1824375    15.558192    0.1547852 
   31000   -947.18256    46.440175   -900.74239    1663.3187    3885.5014    2.1858522     17.17648   0.15169944 
   31100   -937.10602      45.5107   -891.59532    1630.0282   -5600.2232    2.1396881    13.277405   0.12750032 
   31200   -945.00946    49.927823   -895.08164    1788.2336   -312.82587    2.1672442    13.655645   0.12640065 
   31300    -947.6309    48.731816   -898.89908    1745.3969    5906.9997    2.1937286    15.402952   0.12018728 
   31400   -943.32405     50.82864   -892.49541    1820.4976   -5091.3907    2.1556121    12.228905   0.12354997 
   31500   -942.83467    49.882418   -892.95226    1786.6073   -8258.7256    2.1450808    14.840104   0.13577042 
   31600   -949.62905    50.152695   -899.47635    1796.2877      4010.94    2.1920852    16.411137   0.12047414 
   31700   -946.09133    51.592571   -894.49876    1847.8588    8061.0635     2.190443    13.694844   0.13892394 
   31800    -942.1367    49.231606   -892.90509    1763.2976   -12977.061    2.1327752    13.976401   0.14972388 
   31900   -949.47777    46.806944   -902.67082     1676.455    -7000.108    2.1654888     16.61395   0.12849781 
   32000    -941.9181    46.005846   -895.91225    1647.7626    17313.375    2.2060168    15.075167   0.12839203 
   32100   -944.41588    50.419464   -893.99642    1805.8424   -3106.5119    2.1625255    16.319563   0.12369915 
   32200   -943.82482    44.665293   -899.15953    1599.7488   -11364.223    2.1390631    15.437274   0.11714549 
   32300   -946.17047    45.254255   -900.91621    1620.8433     4174.326    2.1904383    16.074875   0.12941573 
   32400   -943.44668    50.664647   -892.78203    1814.6239    3993.9835    2.1795279    14.036976   0.11912681 
   32500   -943.31043    45.661262   -897.64917    1635.4208   -3829.5951    2.1603992    16.302252   0.13290021 
   32600   -945.09515    43.011828   -902.08332    1540.5277    330.58077    2.1739931    16.535008   0.14818651 
   32700   -940.02847    47.883334   -892.14514    1715.0074    1589.9539    2.1688629    15.055417   0.15528951 
   32800   -943.98746    48.035345   -895.95211    1720.4519    1700.4207    2.1775986    15.623415   0.14806598 
   32900   -948.37861    47.292465   -901.08615    1693.8446   -4596.0152    2.1694824    13.902329    0.1393054 
   33000   -938.33491    46.625886   -891.70902    1669.9701    191.90666    2.1583462    17.003198     0.134612 
   33100   -942.15007    47.488162   -894.66191    1700.8538    7333.5457    2.1873337    17.861604   0.13499334 
   33200   -944.58209    44.825774   -899.75631    1605.4967   -1032.3454    2.1745492    16.811801   0.13697596 
   33300   -940.58698     47.78819   -892.79879    1711.5997   -5701.6929    2.1494695    16.367996   0.13609413 
   33400   -944.35499     51.84625   -892.50874    1856.9447    1662.2673    2.1713319    13.720962   0.13249455 
   33500   -946.26697    47.113266    -899.1537    1687.4263    8027.7748    2.1941005    15.239002   0.13584731 
   33600   -944.34115    49.344712   -894.99643    1767.3487   -4923.8566    2.1524004     15.58438   0.13442837 
   33700   -943.15414    50.778562   -892.37558    1818.7039    -9260.806     2.142247    13.768156   0.14648311 
   33800   -946.70931    45.675413    -901.0339    1635.9276     13711.31    2.2069493    14.243749   0.13950779 
   33900   -941.18217    46.367416   -894.81475    1660.7127    8502.3895    2.1812731    14.608662   0.13834031 
   34000   -940.23306     45.34336    -894.8897    1624.0347   -13810.302    2.1290235    12.859328   0.14300899 
   34100   -943.82403    41.833053   -901.99097    1498.3082    1348.3782    2.1750318    17.857174   0.14097939 
   34200   -941.63176    43.457509   -898.17425    1556.4904    16805.192    2.2090251    12.900212   0.14225668 
   34300   -939.85799    46.183442   -893.67455    1654.1234   -3694.0006    2.1552201    15.881018   0.13846404 
   34400    -944.3049    44.683311   -899.62159    1600.3942   -8627.7937    2.1508015     12.92111   0.12668383 
   34500   -943.49143    44.201236   -899.29019     1583.128    6569.1264    2.1877371    15.076821   0.13720075 
   34600   -941.46839    49.982447   -891.48594      1790.19    833.45819    2.1694849    16.503253   0.16127173 
   34700   -943.54525    44.696712   -898.84853    1600.8741   -5256.1064    2.1619308    12.595138   0.15328856 
   34800   -943.66328    44.570255   -899.09302    1596.3449    274.97868    2.1729597      17.9343   0.16229425 
   34900    -940.8638     50.54706   -890.31674    1810.4124    2178.8584     2.165156    13.142381   0.14814527 
   35000   -941.53477    43.660933   -897.87384    1563.7763    2399.6416    2.1748646    13.789795   0.13673351 
   35100   -942.75883    44.021794   -898.73704     1576.701   -3397.6062    2.1656665    22.200534   0.16404508 
   35200   -936.43552    46.434638   -890.00088    1663.1203    160.06732    2.1546322    37.844832   0.17122075 
   35300   -944.82177    47.925118   -896.89666    1716.5039     6174.847    2.1852798    30.995701   0.14977598 
   35400    -946.0992    48.310426   -897.78878    1730.3043   -1726.2111    2.1674862    37.119542   0.14977941 
   35500   -940.37544    50.704922   -889.67052    1816.0664   -8741.2049    2.1384087     37.28411   0.17740151 
   35600   -944.14987    46.691024   -897.45885    1672.3032    7680.6644    2.1954013    30.949921    0.1845258 
   35700   -941.13806    44.283132   -896.85493    1586.0612    6323.7147    2.1826754    31.167397   0.18207454 
   35800    -935.8048    42.332606   -893.47219    1516.2004   -10312.765    2.1308945     36.19611   0.17570044 
   35900   -936.44967    48.058721   -888.39095    1721.2891    675.41439    2.1576714    35.806297   0.19087857 
   36000   -943.65739    45.247281   -898.41011    1620.5935    17087.842    2.2137634    34.881063   0.15287652 
   36100   -938.67439     42.91103   -895.76336    1536.9175   -5063.4063    2.1490331    35.779437   0.15886865 
   36200   -942.77734    50.121122   -892.65622    1795.1568   -9703.6825    2.1432118    29.157184   0.15406465 
   36300   -947.12204    47.160394   -899.96165    1689.1143    5978.6309    2.1915515    36.402806   0.16643094 
   36400   -943.15465    45.097086   -898.05756    1615.2141     5162.223    2.1850999     36.74006   0.16289037 
   36500   -945.37449    52.671242   -892.70325    1886.4929    -7562.398    2.1489837    35.115518   0.17409597 
   36600   -942.71151    45.895124   -896.81639    1643.7969   -1176.8164    2.1664205     36.32614   0.19424166 
   36700   -946.10998    46.650475   -899.45951    1670.8508    10546.745     2.199082    36.724152   0.17273709 
   36800   -940.55192    50.359244   -890.19268    1803.6855   -3575.8834    2.1540863    35.637955   0.17763125 
   36900   -947.24349    51.030178   -896.21332    1827.7159    -8477.979    2.1542415     32.34736   0.14865042 
   37000   -947.50773    50.617558   -896.89017    1812.9374    648.90483    2.1826697    35.386438   0.14320562 
   37100   -937.38123    50.166088   -887.21514    1796.7673    1399.1324    2.1581927    34.846893   0.15110992 
   37200   -941.56732    46.215111   -895.35221    1655.2577   -4264.2292    2.1594214     38.77656   0.14505739 
   37300   -940.90867    43.944013   -896.96466    1573.9152    5351.4371    2.1782577    38.098229   0.15462555 
   37400   -937.93392     49.24595   -888.68797    1763.8113    2697.7158    2.1627309    56.719848   0.14516297 
   37500    -941.1824    48.176625   -893.00578     1725.512    -3646.616    2.1477817    25.011633   0.15729128 
   37600   -946.09041    47.991773   -898.09864    1718.8913   -2720.5362    2.1671366    39.121502   0.16857582 
   37700    -942.1016    49.600085   -892.50151    1776.4952    12019.504    2.1937484    34.789446   0.16630307 
   37800   -941.63099    48.141488    -893.4895    1724.2535   -9053.4323    2.1426182    36.901296    0.1472772 
   37900   -944.86747    42.862282   -902.00519    1535.1715   -12302.392    2.1391678    39.552252   0.17325584 
   38000   -945.24625    49.357916   -895.88834    1767.8215    13132.466     2.204522    38.127401   0.14733005 
   38100   -941.24813    47.956623   -893.29151    1717.6323    6728.4814    2.1792332    34.799437   0.15873236 
   38200   -940.37456    45.471224   -894.90333    1628.6143   -11987.993    2.1292944    35.613697   0.18275822 
   38300   -946.32849    43.983515   -902.34497      1575.33    1719.8543    2.1831366    35.058222   0.17176823 
   38400   -940.39905    47.220088   -893.17896    1691.2523    9067.1397    2.1845087    27.205171   0.18571191 
   38500   -941.89027    47.041084   -894.84919     1684.841   -2187.2683    2.1574574    50.142788   0.17801732 
   38600   -945.74211    43.427459   -902.31465    1555.4141   -5279.0097    2.1618108    35.717778   0.16225013 
   38700   -942.26803    44.759881   -897.50815    1603.1366    5732.7727    2.1842601    35.986629    0.1806525 
   38800   -940.92639    47.864524   -893.06187    1714.3337    4214.2083    2.1740838    39.221332    0.1519352 
   38900   -945.20739    46.826083    -898.3813    1677.1405   -7603.3412    2.1493801    37.140551   0.15049918 
   39000   -940.12962    43.383811   -896.74581    1553.8508    3482.8786    2.1706344    36.057805   0.16081296 
   39100    -940.2466    51.614082   -888.63252    1848.6292    5695.9016    2.1750425    40.665019   0.15708046 
   39200   -942.85124    46.820191   -896.03105    1676.9295    -607.9187    2.1608338    34.591166   0.16065021 
   39300   -943.88088     45.53549   -898.34539    1630.9161   -6293.5353    2.1558835    30.725928   0.16859302 
   39400    -940.9442    52.408814   -888.53538    1877.0936   -388.32118    2.1599238    36.879138   0.15502768 
   39500   -940.12064    46.171849   -893.94879    1653.7082    6909.6747    2.1764949    42.414765   0.15772392 
   39600   -944.02667    45.576904   -898.44976    1632.3994   -5219.7736    2.1538208    35.617019   0.14711136 
   39700   -943.27007    50.387912   -892.88216    1804.7123   -3576.1209    2.1536035    35.452533   0.16392374 
   39800   -938.70427     51.25422   -887.45005    1835.7403    13917.106    2.1863809    33.672136   0.16409279 
   39900    -945.9457    48.168566   -897.77713    1725.2233     951.4456    2.1728457    32.633582   0.18587816 
   40000   -940.78088    44.137817   -896.64306    1580.8565   -16875.547    2.1184448    34.239112   0.16633814 
   40100   -945.80655    54.298886   -891.50766    1944.7892    3924.7364    2.1773973    34.499499   0.15953568 
   40200   -941.96292    43.399527    -898.5634    1554.4137    18644.787    2.2136264    37.031826    0.1786054 
   40300      -943.34    42.470064   -900.86993    1521.1237   -8391.5773    2.1513653    39.884824   0.15878345 
   40400   -942.27886    47.900633   -894.37823     1715.627   -9812.9022    2.1430688    35.092881   0.15462307 
   40500   -942.11282    47.517275   -894.59555    1701.8965    9279.8522    2.1881635    32.378129   0.15523562 
   40600   -945.22519    42.633478   -902.59171    1526.9766    4966.0393    2.1895529    38.026755   0.15832511 
   40700   -938.27062     44.70398   -893.56664    1601.1344   -7122.1402    2.1416128    37.975009   0.17977332 
   40800   -939.63573    45.718607   -893.91712    1637.4747    4544.0477    2.1718318    38.930981   0.17165034 
   40900    -944.2163    45.978355   -898.23794    1646.7779    7044.0993    2.1911122    40.816847   0.16915133 
   41000   -940.34733    45.786538   -894.56079    1639.9077   -4065.8003    2.1572178    39.608173    0.1866827 
   41100    -937.3931    47.327712   -890.06539     1695.107   -5539.3272    2.1436602    34.217955   0.17951266 
   41200   -942.97817    46.824036   -896.15413    1677.0671    4484.8243    2.1800848    35.846366   0.15502554 
   41300   -942.61932     46.14996   -896.46936    1652.9242    7185.6706    2.1847402    36.528091   0.14434008 
   41400   -941.05815    52.916826   -888.14132    1895.2888   -11565.384    2.1342807    59.500082   0.13880091 
   41500   -944.19738    47.618621   -896.57876    1705.5263   -2998.7165    2.1621787    62.382804   0.14135884 
   41600   -944.40146    47.817667    -896.5838    1712.6554    7885.5187    2.1903372    68.992142   0.14360341 
   41700   -942.54762     49.80819   -892.73943    1783.9487    113.28382    2.1652211    35.184999   0.17036192 
   41800   -939.56046    48.322227   -891.23823    1730.7269    -11049.92    2.1303244    34.847087   0.18722651 
   41900   -944.24716     44.07127   -900.17589    1578.4731    8159.5143    2.1992332    34.909526   0.17636357 
   42000   -944.79736    51.625729   -893.17163    1849.0464     14941.11    2.2091415    40.937077   0.16604845 
   42100   -940.00243    44.608707   -895.39373    1597.7221   -11516.054    2.1350737    38.841384   0.17441998 
   42200    -948.3147    45.066156   -903.24854    1614.1063   -8345.5784    2.1594441    39.718274   0.14910594 
   42300   -941.63732    43.840489   -897.79683    1570.2073    11641.426    2.2000643    35.073735   0.15573532 
   42400   -940.61232    47.089947   -893.52237    1686.5911    73.112958    2.1720976    33.915047   0.18313242 
   42500   -945.68157    47.704541   -897.97703    1708.6037   -9058.6647    2.1520675    25.713359    0.1660741 
   42600   -946.25376     44.67345   -901.58031     1600.041    2083.3504    2.1848565    32.988589   0.17392179 
   42700   -942.95072    51.156948   -891.79377    1832.2564    3584.5784     2.171963    33.977493   0.17775582 
   42800   -943.15792    47.986644   -895.17127    1718.7076   -3459.7989      2.16105     33.81901   0.17451438 
   42900   -942.17029     42.79134   -899.37895    1532.6306   -268.12279    2.1736603    37.815258   0.17206094 
   43000   -944.59885    46.916117   -897.68273    1680.3652    1730.3384    2.1840172    38.765853   0.16807805 
   43100   -938.75454    47.831677   -890.92286    1713.1572   -3083.6917    2.1497038    36.228976   0.17082278 
   43200   -941.06832    45.473912    -895.5944    1628.7106   -551.31981    2.1621877    35.949865   0.17443812 
   43300   -946.04201    49.278263   -896.76375    1764.9687    7424.9213     2.192664     34.71127   0.15550166 
   43400   -935.77129    49.654759   -886.11653    1778.4534    1873.9162    2.1472458    31.441638   0.16532041 
   43500   -940.87442    47.463303   -893.41112    1699.9634   -1583.6631    2.1637549    39.537361   0.15065253 
   43600   -947.43482    50.391025    -897.0438    1804.8238    927.32675    2.1842341    37.583794   0.14803571 
   43700   -949.18032    52.554157   -896.62616    1882.2993   -2592.1638    2.1748842    38.849387    0.1314993 
   43800   -934.02771    47.471251   -886.55646     1700.248   -5533.9945    2.1356181    33.629662   0.16938197 
   43900   -942.05454    45.493307   -896.56124    1629.4053    6677.6202    2.1883249    37.790007   0.15948316 
   44000   -941.50607    44.720369    -896.7857    1601.7215    6429.8085    2.1864715    33.265394   0.14954603 
   44100   -941.78238     45.42065   -896.36173     1626.803   -9559.4882    2.1431901    37.271835    0.1596972 
   44200   -942.53883    55.576522   -886.96231    1990.5495   -4730.0446     2.151824    35.652176   0.13364147 
   44300   -944.51344    49.580726   -894.93271    1775.8018    13111.529    2.2006185    39.126066   0.14683074 
   44400    -944.6283    47.014035   -897.61427    1683.8722   -8028.9763    2.1514141    36.445328   0.14312426 
   44500   -941.68519     45.24138   -896.44381    1620.3822   -6295.1871      2.14964     37.42148   0.13025414 
   44600   -939.81099    46.738296   -893.07269    1673.9963    11515.856    2.1908197    34.135884   0.16181776 
   44700     -937.692    51.626869   -886.06513    1849.0872   -914.09428    2.1529118    35.360336   0.13572011 
   44800   -943.67932    48.569264   -895.11006    1739.5749   -7984.2177    2.1526021    38.599689   0.14703062 
   44900   -943.23079    47.435345   -895.79545     1698.962      890.781    2.1715344    73.950566   0.16177648 
   45000   -942.64096     47.73337   -894.90759    1709.6362    3158.1943    2.1787314    66.820472   0.16215145 
   45100   -935.10942     50.82848   -884.28094    1820.4918   -5709.4497    2.1406775    66.245342   0.18542617 
   45200   -939.81413    45.827181   -893.98695    1641.3634   -438.64909    2.1727388    52.908337   0.15497508 
   45300   -941.04865    45.376533   -895.67212    1625.2229    2891.4976    2.1707302    53.601159   0.15451351 
   45400   -945.66706    47.187792   -898.47927    1690.0956   -931.04318    2.1753909    46.792027   0.14256798 
   45500   -952.02538    45.845491   -906.17988    1642.0192   -633.64942    2.1880345    47.239443    0.1313202 
   45600   -941.57666    44.978498   -896.59817    1610.9667   -2061.4424    2.1633553    44.511624   0.13750002 
   45700   -940.57611     44.42282   -896.15329    1591.0643    3025.3589    2.1714243    41.974486   0.13749045 
   45800   -948.04209    48.718848   -899.32324    1744.9324    1161.5205    2.1812176    49.765128   0.13131796 
   45900   -951.51183    44.761916   -906.74992    1603.2095   -2336.3421    2.1822728    43.053521   0.12511586 
   46000   -943.45222    46.327113   -897.12511    1659.2692   -7678.4434    2.1462918    46.762607   0.14880761 
   46100   -945.83735    50.044024   -895.79332    1792.3954    5832.5088    2.1852674    49.081095   0.13385222 
   46200   -947.89494     49.77662   -898.11832     1782.818    9104.9642    2.1990896    48.520246   0.13358813 
   46300   -945.78984    39.736484   -906.05335    1423.2167   -12902.484    2.1486056     47.84176   0.14725285 
   46400   -945.93782     43.77041   -902.16741    1567.6974   -5929.3333    2.1636345    46.058346   0.13165112 
   46500     -944.814    48.810579   -896.00342    1748.2179    15566.362    2.2081598    42.787992   0.15090332 
   46600   -944.15842    47.984278   -896.17415    1718.6228   -1735.1633    2.1643406    43.604909   0.14537961 
   46700   -943.09055    49.205681   -893.88487    1762.3691   -12075.407    2.1378744    46.572631   0.13333845 
   46800   -949.99179     44.96764   -905.02415    1610.5778    7372.2026     2.204426     46.81849     0.142379 
   46900   -942.71928    43.377875   -899.34141    1553.6382    4408.0769    2.1812305    45.127707   0.13477769 
   47000   -942.10336     46.12444   -895.97892    1652.0102   -6490.3015     2.149237    53.968378   0.14356792 
   47100   -940.76467    47.345202   -893.41947    1695.7334    956.89024    2.1677228    44.448941   0.15664489 
   47200    -949.3548    45.753633   -903.60117    1638.7292    8801.0706    2.2040494    49.224169   0.12890962 
   47300   -943.56124    45.956913   -897.60433    1646.0099   -5278.3477    2.1567062    46.980859   0.13696378 
   47400   -942.79323    47.649444   -895.14378    1706.6303   -7003.9513    2.1538175    45.828417   0.14872874 
   47500   -946.37537    46.698546   -899.67682    1672.5726    5993.8321    2.1920418    49.345531   0.14632175 
   47600   -950.18715    46.812059   -903.37509    1676.6382    1615.3216    2.1900772    43.820526   0.13393224 
   47700   -943.07668    48.169088   -894.90759    1725.2421   -8559.9512    2.1432683    47.305953   0.14519678 
   47800   -943.21772    46.497181   -896.72053    1665.3604   -1626.0835    2.1645433    49.857079   0.12916934 
   47900   -945.85051    44.040044   -901.81046    1577.3547    11273.962    2.2050241    47.775217   0.14794266 
   48000   -938.92853    47.260051   -891.66848    1692.6836   -2676.1991    2.1508945    46.194109   0.12527958 
   48100   -943.15784    48.207605   -894.95023    1726.6216   -4726.5701    2.1491234    51.686821   0.12737279 
   48200   -945.72609    47.601235   -898.12486    1704.9036    11033.744    2.1977015     42.96187   0.13079746 
   48300   -944.55734    42.643916   -901.91342    1527.3504    9613.5936    2.1937029     46.40839   0.13090709 
   48400   -937.59509    46.936264   -890.65883    1681.0868    -21363.55    2.0987467    45.308661   0.15889463 
   48500   -947.02732    49.997018    -897.0303    1790.7119    885.35997     2.175629     49.40527   0.14327291 
   48600   -946.07053    49.107289   -896.96324     1758.845    16404.117    2.2138983    45.098567   0.14103401 
   48700    -946.4277    52.518815   -893.90888    1881.0335   -9524.3588    2.1484862    49.097674   0.12593598 
   48800   -940.59166    50.213661     -890.378    1798.4712   -12671.172    2.1317844     52.68966   0.14947668 
   48900   -947.70116    48.619044   -899.08211    1741.3578    7287.2801    2.1957875    48.470872   0.13190288 
   49000   -944.36581    48.429061   -895.93675    1734.5533    6029.9572     2.182896    46.445624   0.13763382 
   49100   -943.39659    51.419983   -891.97661    1841.6773   -10141.262    2.1391897     51.34474   0.13010913 
   49200   -947.55868    45.501166   -902.05752    1629.6868    758.49281    2.1790621    46.980801   0.11836664 
   49300   -942.57307    45.676099   -896.89697    1635.9522    8219.2226    2.1868774    49.160125   0.13928337 
   49400   -943.27763    50.025425   -893.25221    1791.7293   -4041.2695    2.1574566    46.312925   0.15041458 
   49500    -944.3802    43.418423   -900.96178    1555.0905   -5922.9851    2.1600461    48.623839   0.13199647 
   49600     -950.577    50.693796   -899.88321    1815.6679    982.87056     2.183631    49.768575   0.12090462 
   49700   -945.57503    52.820906   -892.75412    1891.8533    6132.7161     2.181044    47.138259   0.12336376 
   49800   -946.09791    47.475936   -898.62197    1700.4158   -5689.9132    2.1571603     50.51761   0.11634477 
   49900   -946.13731    44.411367   -901.72594    1590.6541    -3237.089    2.1671951    45.506117   0.13357877 
   50000   -944.34009    52.136834   -892.20325    1867.3523    2906.4406    2.1793265    33.011569   0.13686025 
   50100   -944.70099    49.775833   -894.92515    1782.7898    1119.7973    2.1742219    31.966968   0.16195268 
   50200   -944.62602    43.190314   -901.43571    1546.9204   -9757.1503    2.1476559    26.597732   0.16390224 
   50300   -940.38208     46.94714   -893.43494    1681.4763    2038.4138    2.1643451    30.736508   0.15144316 
   50400   -942.85855    51.669937   -891.18862    1850.6298    16345.695     2.204314    27.803882   0.15259786 
   50500   -941.32124    42.596055   -898.72518    1525.6362   -7614.6849    2.1521851    31.664082   0.15398576 
   50600   -943.76557    49.370951   -894.39462    1768.2884   -14312.624    2.1309969     25.05205   0.15781495 
   50700   -943.47976    55.516577   -887.96318    1988.4024    6416.8802    2.1783313    32.813517    0.1533729 
   50800    -944.5347    46.966977   -897.56772    1682.1868    7849.5541    2.1879705    31.154834   0.14159754 
   50900    -943.8198     47.54776   -896.27204    1702.9883   -7798.4573    2.1454782    24.033506   0.15229011 
   51000   -939.52667    49.193168    -890.3335    1761.9209   -2273.6437     2.153092    43.280155   0.14281112 
   51100   -946.45026    47.056761    -899.3935    1685.4025    6639.8607    2.1930263    30.287839   0.16166198 
   51200   -946.48493     48.77099   -897.71394       1746.8   -3912.2701    2.1652174    26.427763   0.15977523 
   51300   -939.92407    47.681893   -892.24218    1707.7925   -5090.0619    2.1488454    28.754245   0.16280167 
   51400   -946.25566    46.367902   -899.88776    1660.7301    4274.8035    2.1828305    28.345145   0.15836081 
   51500   -948.80511    50.947324   -897.85779    1824.7484   -855.30004     2.176227    27.501772   0.15689133 
   51600   -941.63017    49.332518   -892.29765    1766.9119   -3472.8433    2.1541608    31.161106   0.17643268 
   51700   -948.82984    49.317384   -899.51246    1766.3699    -3480.966    2.1678154     28.45888   0.15015824 
   51800   -945.10624    47.513147    -897.5931    1701.7486    3781.1761    2.1804955    26.031641   0.15479578 
   51900   -937.52045    47.267145   -890.25331    1692.9377    1822.9355    2.1603519    29.134079   0.17651834 
   52000   -942.67697    44.518134   -898.15883    1594.4781   -5045.9222    2.1548906    24.377157   0.16374313 
   52100   -947.31321    50.393407    -896.9198    1804.9091   -3836.4092    2.1679468    27.361205   0.15446085 
   52200   -935.81502    47.896973   -887.91805    1715.4959    12143.625    2.1837216    31.237713   0.17918581 
   52300   -943.89973    47.313973   -896.58576    1694.6149   -5501.5496    2.1616529    24.743748   0.16538184 
   52400   -941.15404    42.952423   -898.20161       1538.4   -14762.397    2.1356762    29.733209   0.16463423 
   52500   -936.87098    47.376899   -889.49408    1696.8687    7436.7307    2.1754376    37.662795   0.15909557 
   52600    -942.4858    46.793987   -895.69181    1675.9909    10790.684    2.1946032     33.83608   0.16527854 
   52700   -942.42862    42.939413    -899.4892     1537.934   -6300.7163    2.1545594    34.869477   0.14040582 
   52800   -940.63147    48.631938   -891.99953    1741.8196   -8130.4166    2.1451452    23.560606   0.18721389 
   52900   -941.69779    44.592323   -897.10546    1597.1353    8185.5353    2.1912191    30.584615   0.18195748 
   53000   -945.23436    45.136377   -900.09798    1616.6213    3294.0973    2.1800911      28.2985   0.14772931 
   53100   -937.63109    45.354624   -892.27646    1624.4382   -5695.2267    2.1436276    43.872825   0.15693916 
   53200   -942.31998    47.985236   -894.33474    1718.6571    1265.7718     2.166913    52.237064   0.16013414 
   53300   -942.07044    42.510288   -899.56015    1522.5644    9545.8073    2.1921384    49.066422   0.16844738 
   53400   -939.70405    48.166568   -891.53748    1725.1518   -504.74604    2.1549682    33.953632   0.16262693 
   53500   -944.82048    49.805661   -895.01482    1783.8581    -4986.823    2.1568154    28.916336   0.16269207 
   53600   -944.82764    45.144322   -899.68332    1616.9059     5180.641    2.1847293    28.317355   0.15247504 
   53700   -941.46317    50.153669    -891.3095    1796.3226    4558.7863    2.1710286    30.364428    0.1580798 
   53800   -944.38128    49.269379    -895.1119    1764.6505   -6683.0801    2.1548828    27.850862   0.16125376 
   53900   -946.44761    45.979677   -900.46793    1646.8253   -729.77399    2.1730303     28.76297   0.16250709 
   54000   -943.14969    52.226767   -890.92293    1870.5734    6024.7449     2.181293     31.34851   0.16025981 
   54100   -943.68652    48.753797   -894.93272    1746.1842   -2672.9957    2.1656203    50.192607   0.15037717 
   54200   -945.25314    43.341992   -901.91115     1552.353   -12810.607    2.1457716    54.797181   0.16819923 
   54300   -940.32277    45.968168    -894.3546    1646.4131    9134.1818    2.1874288    52.067183   0.16421343 
   54400   -942.08399    50.546599   -891.53739    1810.3959    15995.971     2.207367    58.243171   0.15512847 
   54500   -946.64443    46.105773   -900.53865    1651.3416   -12078.879    2.1451027    52.996102    0.1359324 
   54600   -943.06006    45.699796   -897.36027     1636.801   -9140.6512    2.1479013    51.221095   0.12920557 
   54700    -939.7806    49.471611   -890.30899    1771.8937    11922.965    2.1934912    52.634784   0.12236406 
   54800    -948.1147    49.024382   -899.09031    1755.8756    2745.1368     2.186296     50.81932   0.13539681 
   54900   -945.72996    46.282429   -899.44753    1657.6688   -8809.6766    2.1508279    56.514319   0.12502435 
   55000    -941.3332    49.363328   -891.96987    1768.0154   -666.79674    2.1629207    51.996986   0.15916279 
   55100   -941.90664     43.65608   -898.25056    1563.6025    11816.933    2.1975619    53.001952   0.15232459 
   55200   -943.38195    43.048458   -900.33349    1541.8396   -352.26062    2.1714306    55.140966   0.14219874 
   55300   -941.46704    49.071053   -892.39599    1757.5472   -8799.6325    2.1431262    56.581435   0.16068618 
   55400   -946.03491    47.371387   -898.66352    1696.6713    3647.4933    2.1847548    55.542804   0.14346904 
   55500   -944.37445    44.867307   -899.50714    1606.9842    7055.4581    2.1938651    53.861162   0.13406227 
   55600   -939.25674    47.162788   -892.09396       1689.2   -5561.2337    2.1514569     57.39342   0.13485345 
   55700   -944.52015    45.834697   -898.68546    1641.6326   -5967.6135    2.1633602    50.867149   0.13303133 
   55800   -946.77869    47.590433   -899.18825    1704.5167    7148.1765    2.1923456     52.73695   0.12012841 
   55900   -939.61468    48.184228   -891.43045    1725.7843    2547.6857    2.1702738    56.146294    0.1268163 
   56000   -942.31349     44.51847   -897.79502    1594.4901   -8186.0344    2.1505797    51.158013   0.15148539 
   56100   -945.47715    45.088594   -900.38856    1614.9099   -2966.6124    2.1704272    51.866267   0.13222011 
   56200   -941.36434    50.451308   -890.91304    1806.9829    11798.624    2.1966106    47.503376   0.13287826 
   56300   -943.80024    47.738966   -896.06127    1709.8366   -3269.9668    2.1620849    52.250952   0.13296993 
   56400   -945.44605    43.181877   -902.26417    1546.6182    -17359.78    2.1308947    53.506068   0.11923698 
   56500   -943.18753    48.280184   -894.90734    1729.2211    9386.4758    2.1918655    53.335389   0.13801699 
   56600     -943.721    50.786387   -892.93461    1818.9842    11034.232    2.1968949    50.896499   0.12712331 
   56700   -948.39499    46.592365   -901.80262    1668.7695   -10424.592    2.1525779    53.362052    0.1252201 
   56800   -945.72377    49.319312   -896.40445    1766.4389   -7069.6784    2.1577536    53.739314   0.13463465 
   56900   -939.70487     48.08483   -891.62004    1722.2242    6557.7487    2.1831118     54.52338   0.15045303 
   57000   -945.72408     45.26427   -900.45981     1621.202    1540.4385    2.1829021    53.941341   0.14390604 
   57100   -944.68869    48.655666   -896.03302    1742.6695   -6831.7015    2.1535662     53.91474   0.12899568 
   57200   -938.41529    46.564201   -891.85109    1667.7608    2229.2627    2.1656379    50.290258   0.14377195 
   57300   -947.02865    47.531696   -899.49695     1702.413    5470.4169    2.1922868    54.132038   0.12285689 
   57400   -948.14775    51.319009   -896.82874    1838.0608   -5430.7181    2.1632914     54.91577   0.12983822 
   57500   -941.04468    49.027114   -892.01757    1755.9734    -5617.112    2.1477786    53.536897    0.1455562 
   57600     -948.325    48.350477   -899.97453    1731.7387    3734.2457    2.1905502     52.62162   0.13061766 
   57700   -944.88794    47.704093   -897.18384    1708.5876    4585.7045    2.1810161    52.587395   0.12265102 
   57800    -939.9938    47.451074   -892.54273    1699.5254   -5763.5538    2.1451567    51.547157   0.14840233 
   57900   -945.63388    44.213294   -901.42059    1583.5598   -1244.2506    2.1753495    54.050526   0.13117507 
   58000   -943.74557    46.626838   -897.11873    1670.0043    9922.0107     2.194087    55.937921   0.14203321 
   58100    -943.3088    50.956272   -892.35253    1825.0689   -3567.3721    2.1587184    57.713518   0.11672443 
   58200   -941.84433    40.970237   -900.87409    1467.4053   -8315.6051    2.1444717    55.333086   0.13906712 
   58300   -944.09392    46.242669   -897.85125    1656.2447    7200.5915    2.1863549    57.897527   0.12213201 
   58400   -942.43268    52.207123   -890.22556    1869.8698    11626.217    2.1918947    55.895298    0.1329023 
   58500   -944.12868    45.912973   -898.21571    1644.4362   -10849.491    2.1426486    51.693075   0.13098109 
   58600   -942.77612    43.641879   -899.13424    1563.0938   -6038.9466    2.1482072    55.152054   0.11711155 
   58700   -939.05487    49.050317   -890.00455    1756.8045    12536.487    2.1861177     47.33054   0.14025905 
   58800   -943.83844    47.646657   -896.19179    1706.5305    4250.8027    2.1778443    56.958948   0.13434349 
   58900    -947.3231    46.290319   -901.03278    1657.9514    -8416.811    2.1535221    55.105246   0.13352587 
   59000   -941.66714    49.453244   -892.21389    1771.2358   -1561.4446    2.1589283    54.455335   0.14456994 
   59100   -943.49912    47.899719    -895.5994    1715.5942    8071.9308    2.1850876    59.661162   0.12467835 
   59200   -946.76905    45.894349    -900.8747    1643.7692   -893.85767    2.1707739    53.767925   0.12840384 
   59300   -944.80084    51.336368   -893.46447    1838.6825   -6295.6783    2.1498269    51.862979   0.14343356 
   59400   -942.12437     47.41587    -894.7085    1698.2645    5089.5396    2.1764182    53.526348   0.13435245 
   59500     -948.802    48.163029   -900.63897     1725.025    4020.5393    2.1892174    49.458365   0.14766898 
   59600   -941.38077    47.552608   -893.82816     1703.162   -1722.5705    2.1553364    55.050572   0.15579888 
   59700   -943.07427    48.156181   -894.91809    1724.7798   -2813.0711    2.1597652    54.099212   0.16272788 
   59800   -943.84071    42.888742   -900.95197    1536.1192     10587.21    2.1993161    56.782887   0.15039666 
   59900   -941.78218    49.319834   -892.46235    1766.4576    438.08569    2.1638898    53.233445    0.1407342 
   60000   -940.23626    45.331935   -894.90433    1623.6255   -6500.1618    2.1440216    53.757128   0.15183934 
   60100   -944.12157    42.882173    -901.2394    1535.8839    3765.1708     2.180681    55.145686   0.14520222 
   60200   -942.85737    49.492714   -893.36466    1772.6495    12563.879    2.1986345    52.611196   0.17174874 
   60300   -944.14427    49.905793   -894.23847    1787.4445   -6743.4618    2.1463905    54.568671   0.15751926 
   60400   -944.82213    42.804926    -902.0172    1533.1172   -12385.852    2.1442235    58.056852   0.13335328 
   60500   -939.59714    43.732499   -895.86464    1566.3395     15136.02    2.2004606    52.553123   0.15180501 
   60600    -941.3091    49.445946   -891.86316    1770.9745    6880.7549    2.1812038    54.558012    0.1615978 
   60700   -945.87363    45.563795   -900.30984    1631.9299    -10833.09     2.144441    55.145954   0.15211654 
   60800   -945.02673    47.516094   -897.51063    1701.8542   -2173.5844    2.1664314    55.456806    0.1761783 
   60900   -939.39129    49.096476   -890.29482    1758.4577    9128.8956    2.1826346    53.501683   0.16743729 
   61000   -945.38979    46.128395    -899.2614    1652.1518    559.00746    2.1722337    50.448184   0.15341845 
   61100   -940.95038    43.158562   -897.79182    1545.7832   -2954.7446    2.1573464    50.198132   0.15735051 
   61200   -940.09142      49.3286   -890.76282    1766.7716    2120.1415    2.1650437    52.486217   0.16053502 
   61300   -947.08319     48.42832   -898.65487    1734.5268    4017.7324    2.1832318    68.399879   0.15212434 
   61400   -944.75632    49.108658   -895.64766     1758.894   -915.30328    2.1677651    64.676284   0.16190038 
   61500   -941.87393    51.030469   -890.84347    1827.7263   -7252.8245    2.1485478    61.660378   0.16456345 
   61600   -947.67167    48.341198   -899.33047    1731.4064   -1810.1802    2.1730779    61.950158   0.15307848 
   61700    -945.1519    49.561153   -895.59074    1775.1008    5379.3741    2.1854742    54.450956   0.14068556 
   61800   -941.57883    50.378659   -891.20018    1804.3809   -7034.5841    2.1427524    73.548983   0.15796326 
   61900   -941.95334    41.724326   -900.22902     1494.414   -4648.4988    2.1531169    85.788926   0.15741401 
   62000   -939.40005     43.25831   -896.14174    1549.3558    13818.734    2.1952071    71.997321   0.14774546 
   62100   -940.29903    49.821465   -890.47757    1784.4242    5126.9789    2.1748075    76.059045   0.15272497 
   62200   -943.85538     46.85223   -897.00315     1678.077    -16753.68    2.1303791    60.318312    0.1603921 
   62300    -943.8506    45.385254   -898.46535    1625.5352   -1861.0165    2.1619787    71.982026   0.16464483 
   62400   -938.22286    48.985448   -889.23741    1754.4811    16309.909    2.1998934     69.17938   0.18619641 
   62500   -946.67322    50.772739   -895.90048    1818.4954    -5301.123    2.1599128    75.114871   0.16108173 
   62600   -945.25574    45.767503   -899.48823     1639.226   -6879.6969    2.1495954    73.102123   0.14637121 
   62700   -942.25641    51.400723   -890.85569    1840.9875    4032.7487    2.1705421    74.114494   0.15897011 
   62800   -942.96413    49.888257   -893.07587    1786.8164    6020.2638    2.1786621    77.276718    0.1451009 
   62900    -943.5986    44.184324   -899.41427    1582.5222   -2770.7431    2.1629205     83.11745   0.14052304 
   63000   -942.71531    48.716772   -893.99854    1744.8581   -1999.0359    2.1582489    75.738618   0.13701027 
   63100   -942.94843    52.655562   -890.29287    1885.9313    2520.8915    2.1693698     81.37668   0.14371641 
   63200   -946.28927    47.611514   -898.67776    1705.2718   -41.741217    2.1771924    83.506642   0.14199677 
   63300   -942.28484    45.842926   -896.44192    1641.9274   -4130.9262    2.1559037    84.940159   0.11835774 
   63400   -939.54535    49.833318   -889.71203    1784.8487    261.80821    2.1549781    82.589521   0.13053194 
   63500   -948.85321    48.826101   -900.02711    1748.7739     7403.334    2.1926827    81.259648   0.11919985 
   63600   -944.08442    46.247424   -897.83699     1656.415   -4566.8979    2.1562571    77.570387   0.12595747 
   63700   -942.19822    48.329212   -893.86901    1730.9771   -7261.1157    2.1434776    85.785423   0.13381216 
   63800   -945.50343    43.382938   -902.12049    1553.8195    11227.507    2.2009316    82.782213   0.13021904 
   63900   -947.05542    46.858456   -900.19697       1678.3    1804.8349    2.1769962     78.87101   0.12483881 
   64000   -941.54069    46.100156   -895.44054    1651.1404   -11268.983    2.1324046    86.521472   0.14195923 
   64100   -944.98346    50.360362    -894.6231    1803.7255    1663.0381    2.1740753    79.885958   0.13382738 
   64200   -946.59926     44.96223   -901.63703     1610.384      17729.9    2.2188581    82.380995    0.1162392 
   64300   -937.61308     44.38484   -893.22825     1589.704   -9598.3332    2.1340755    87.924429   0.14420662 
   64400   -938.97473    43.977541   -894.99719     1575.116   -5242.3808    2.1443581     88.31728   0.11451374 
   64500   -943.97806    45.858424   -898.11963    1642.4824    11898.377    2.1983434    85.248811   0.12285633 
   64600   -949.13001    47.829193   -901.30082    1713.0683    48.138917    2.1798274      83.5204   0.12523647 
   64700    -941.3943    50.380104   -891.01419    1804.4326   -8892.0817    2.1362622    87.395196   0.14694152 
   64800     -942.599      46.0371    -896.5619     1648.882    4807.0095    2.1783447    86.217599   0.13058112 
   64900   -948.05401    49.235747   -898.81827    1763.4459     2275.202     2.184471    78.722902   0.12032793 
   65000   -939.54786    49.848449   -889.69941    1785.3907   -3370.5917    2.1471092    84.478256   0.12659015 
   65100   -943.48391    48.040968   -895.44294    1720.6533   -1105.7587    2.1644571    85.088153    0.1355485 
   65200   -944.74123    46.289887   -898.45134    1657.9359    2792.9789    2.1798585    82.714743   0.13723615 
   65300   -945.13693    51.618727    -893.5182    1848.7956   -139.36535    2.1705006    84.353738   0.13715481 
   65400   -939.34938    48.048383   -891.30099    1720.9188   -3693.8323    2.1462945    80.882439    0.1376789 
   65500   -947.25589    46.610987    -900.6449    1669.4365    2987.9423    2.1832515    78.549444   0.11250373 
   65600   -942.41835    47.078741   -895.33961    1686.1898    9092.6253    2.1844246    80.113475    0.1366223 
   65700   -943.67024    49.180196   -894.49004    1761.4563    -9427.333    2.1464137    80.851209   0.13020829 
   65800   -946.93154    42.502574   -904.42897    1522.2881   -3231.7723    2.1725953     86.52463   0.13221704 
   65900   -947.39803    49.700018   -897.69801    1780.0744    6318.3068    2.1881443    83.620191   0.12150101 
   66000   -943.14776    48.860181   -894.28758    1749.9945     1308.929    2.1657666    81.133703   0.12677712 
   66100   -943.85476    44.473305   -899.38145    1592.8725   -10056.829    2.1437966    84.873472   0.12789213 
   66200   -946.22772    44.680004   -901.54772    1600.2757    6258.4698    2.1862651    86.659313    0.1359277 
   66300   -946.89067     54.44545   -892.44522    1950.0386    9990.9016    2.1960518    84.008823   0.13901957 
   66400   -946.11532    49.264232   -896.85109    1764.4661   -10558.375    2.1447376     77.06901   0.12704302 
   66500      -945.38    45.554661   -899.82534    1631.6027   -9923.2472    2.1486428    84.395301   0.13143852 
   66600   -950.79635    45.489696   -905.30666    1629.2759     10169.38    2.2101354    79.233415   0.11939571 
   66700   -944.55411    49.639107   -894.91501    1777.8928   -953.38936    2.1681347    83.636526   0.14636811 
   66800   -945.13967    49.011486   -896.12818    1755.4137   -9212.1819    2.1531291    86.491308   0.12302363 
   66900   -943.99858    46.940376    -897.0582     1681.234    1304.5095    2.1738731    77.434369    0.1310368 
   67000   -947.44735    46.548681   -900.89867    1667.2049    3397.0036    2.1841142    78.515251   0.11673487 
   67100    -951.5742    42.664781   -908.90942    1528.0977   -1106.5917      2.18352    79.394149   0.11670388 
   67200   -945.80711    46.642985   -899.16413    1670.5826   -7328.4701    2.1559291    81.047732   0.12946983 
   67300   -945.87485    48.978408   -896.89644     1754.229    1302.1545    2.1792693    86.178341    0.1270583 
   67400   -944.48307    49.415789   -895.06728    1769.8943    2714.7946    2.1763122    82.092621   0.13857422 
   67500   -937.86089    51.691548   -886.16934    1851.4038   -3784.9213    2.1402947    79.665423   0.13279958 
   67600   -946.18032    53.542243   -892.63808     1917.689   -4295.6479    2.1599077    83.418554    0.1181886 
   67700   -946.63705     50.37502   -896.26203    1804.2505    -652.9137    2.1746558     81.93664   0.12352666 
   67800   -943.13802    46.302109   -896.83591    1658.3736    910.76728    2.1750435      81.4026   0.13496817 
   67900    -941.8969    45.171309   -896.72559    1617.8725   -65.201967    2.1667294    84.216245   0.13156566 
   68000    -935.6427    50.139674   -885.50302    1795.8213   -5124.8292     2.138912     87.82526   0.15130448 
   68100   -942.34543    48.879904   -893.46553    1750.7009    12397.346    2.1961748    81.854833   0.14871456 
   68200   -943.28562    47.188737   -896.09688    1690.1294    1472.7476    2.1731425    81.138852    0.1487405 
   68300   -947.92712    48.611369   -899.31575    1741.0829   -17692.722    2.1321443    84.183016   0.12478305 
   68400   -947.99859    48.006457   -899.99213    1719.4172    5376.6256    2.1909938    80.720743   0.14464409 
   68500   -939.49761    49.342684   -890.15492     1767.276    9494.6265    2.1810188    80.261154   0.13059437 
   68600   -941.69207    46.003384   -895.68868    1647.6744   -6605.6625    2.1478395    84.734146   0.13833769 
   68700    -946.0886    47.124239   -898.96436    1687.8193   -3599.7924    2.1666899     80.15096   0.13896436 
   68800   -944.98533    47.120649   -897.86468    1687.6908     11697.91     2.195139    84.376231   0.11565739 
   68900   -940.75884    50.798883   -889.95996    1819.4318   -4163.1415    2.1489801    85.565948   0.15861051 
   69000   -942.39821      44.6819   -897.71631    1600.3436   -5786.0827    2.1548707    83.683193   0.16122944 
   69100     -943.727    46.670425   -897.05658    1671.5654    6414.7519    2.1856173    83.938829   0.13912173 
   69200   -939.28543    51.138848   -888.14658    1831.6081    4383.5472    2.1695908    81.504152   0.15812854 
   69300   -946.49251    51.376147   -895.11636    1840.1073   -9239.8673    2.1496345     80.56269   0.12994969 
   69400   -946.08673    47.423511   -898.66322    1698.5382   -6106.3624    2.1598366      85.7529    0.1339268 
   69500   -939.70565    47.042784   -892.66287    1684.9019    10604.525    2.1861348    82.976792   0.13862085 
   69600   -944.36773     50.94633    -893.4214    1824.7128   -841.38583    2.1663822    81.339421   0.13552578 
   69700   -947.96018    46.590205   -901.36998    1668.6922   -8665.8883    2.1573047    85.361678   0.14341121 
   69800   -940.83616    44.654224   -896.18193    1599.3524    4484.2582    2.1751907    81.350008   0.14549227 
   69900   -941.38451    48.412881   -892.97163    1733.9738     4602.463    2.1777341    85.193436   0.15358438 
   70000   -946.33861    44.041428   -902.29718    1577.4042   -4502.2231    2.1658662    83.746861     0.150752 
   70100   -944.42045     45.08808   -899.33237    1614.8915   -3897.9923    2.1662443    81.287594   0.13612918 
   70200   -946.62559    52.931083   -893.69451    1895.7994    296.33898     2.173187    81.500821   0.14941445 
   70300   -946.31505    45.921889   -900.39316    1644.7555   -170.59494    2.1755101    80.979987   0.14288552 
   70400   -945.08623    43.848138    -901.2381    1570.4813   -743.25749    2.1711094    85.362051   0.13601638 
   70500    -942.6909    48.954871   -893.73603     1753.386   -1059.6215    2.1624665    88.925799   0.15955642 
   70600   -941.37185    42.973444   -898.39841    1539.1529    4404.2783    2.1746068    79.253348   0.15667599 
   70700   -946.87259    45.331538   -901.54105    1623.6113     929.2414    2.1785649    82.165423   0.13423465 
   70800   -938.88578    46.714972    -892.1708    1673.1609   -2130.5913    2.1502851    86.840093   0.15451481 
   70900    -945.2814    47.897523   -897.38388    1715.5156    447.85609    2.1765933    77.709978   0.14650466 
[...]
  186800   -947.70255    45.491025   -902.21152    1629.3235   -216.27847    2.1738553     105.0208   0.13035965 
  186900   -939.77336    46.865776   -892.90758    1678.5621    4156.8977    2.1715003    107.47871   0.13796248 
  187000   -940.96264    44.238436    -896.7242    1584.4603    2247.9938    2.1741684    103.45262    0.1376298 
  187100   -945.41255    42.923438   -902.48911    1537.3619   -3149.8898    2.1686306    109.71441   0.13719646 
  187200   -941.33151    48.281746   -893.04976     1729.277   -60.263343    2.1626842    108.90248   0.14321197 
  187300   -942.34724    48.078088   -894.26915    1721.9828    9450.6718    2.1899553    106.65215   0.15596404 
  187400   -943.06221    41.938862   -901.12334    1502.0979   -1288.1748    2.1692008    108.52024   0.15810842 
  187500   -939.06886    47.119687   -891.94917    1687.6563   -10607.119    2.1325502    111.84703   0.16912326 
  187600   -940.18621    48.749368   -891.43684    1746.0256    12486.752    2.1920035    81.046944   0.16717977 
  187700   -946.59932    48.544392   -898.05493    1738.6841    6477.8559    2.1955038    101.99647   0.17764641 
  187800   -938.81566     44.46108   -894.35458    1592.4346   -7510.8401    2.1417011    117.23206   0.16640807 
  187900   -940.62354    51.084796   -889.53874    1829.6721   -4514.0875    2.1490873    96.551887   0.16841067 
  188000   -943.08925    45.770952    -897.3183    1639.3495     11678.51    2.1992023    96.274375   0.14808856 
  188100   -945.45218    48.986836   -896.46534    1754.5308   -1581.1894    2.1673058    100.32869   0.16617433 
  188200   -938.04905    47.818696   -890.23036    1712.6923   -8590.3381    2.1339161    99.687896   0.18181388 
  188300   -945.60063    45.479344   -900.12129    1628.9052    5563.0048    2.1886174    94.652251   0.17644521 
  188400   -942.11338    45.769675   -896.34371    1639.3038    3388.9546    2.1791772    106.22089   0.16866277 
  188500   -938.95922    46.310386   -892.64884    1658.6701   -2493.0096    2.1506621    96.098408   0.18747459 
  188600   -945.45883    43.614807   -901.84402    1562.1242    2881.1911    2.1792263    95.130109   0.16874827 
  188700   -944.60705    47.506786   -897.10026    1701.5208    1355.7985    2.1763937    103.81668   0.16273836 
  188800   -943.44034    50.685286   -892.75506    1815.3631   -3790.4774    2.1595671    106.68961   0.17431779 
  188900   -945.82485    45.095155   -900.72969    1615.1449   -1690.5309     2.170682    96.731301   0.16451508 
  189000   -946.75658    48.685582     -898.071     1743.741    -3432.708    2.1716084     102.5283   0.15593721 
  189100   -939.94971    47.987841   -891.96187    1718.7504    1381.8396    2.1670764    97.711456   0.19505952 
  189200   -947.13555    47.848798   -899.28676    1713.7704   -925.90495    2.1742402    96.099914   0.16794024 
  189300   -939.95707    42.057757   -897.89931    1506.3563    1061.0069    2.1654772    93.297252   0.16311663 
  189400     -941.167    49.580192    -891.5868    1775.7827   -1801.3501    2.1599636     106.1675   0.15499841 
  189500   -941.29165    44.012303   -897.27935    1576.3611     4147.505    2.1754879     95.52113   0.13855052 
  189600   -944.70096    46.839144   -897.86182    1677.6083    852.47604    2.1740282    85.322283   0.15280844 
  189700   -939.34233    50.150451   -889.19188    1796.2073   -7125.2972     2.143356    90.829333   0.17295729 
  189800   -946.13675    48.377897   -897.75885    1732.7208   -581.30747    2.1753542    100.45998   0.15403245 
  189900   -940.86681    44.376936   -896.48987    1589.4209     6999.623    2.1819289    99.551329   0.16604238 
  190000   -939.94461    50.419875   -889.52474    1805.8571   -5387.7146    2.1472758    99.590125   0.18381072 
  190100   -943.77422    46.869334   -896.90488    1678.6896   -4333.2543    2.1572011    98.904941   0.16579949 
  190200   -942.24503    44.746279   -897.49875    1602.6494    2289.6551    2.1779444    105.98471   0.17560944 
  190300   -941.66509    49.266064   -892.39902    1764.5318    3566.5196    2.1761145    95.300705   0.17167891 
  190400   -942.72305    48.229865   -894.49319    1727.4188   -9569.5083    2.1464677    103.94231   0.15079472 
  190500   -944.38334    43.288876   -901.09446    1550.4506    -2176.995    2.1704893    101.34089   0.16614449 
  190600   -943.09041    49.319771   -893.77064    1766.4553    7907.6511    2.1866523    101.17873   0.15837722 
  190700   -941.16218    45.745755   -895.41642    1638.4471    1148.8552    2.1621887    101.46632    0.1717941 
  190800   -946.21328    42.572614   -903.64066    1524.7967   -6710.5886    2.1619594    111.93499   0.18509708 
  190900   -941.60632    46.334441   -895.27188    1659.5316    5709.1384    2.1759696    99.433469   0.15357433 
  191000   -941.51057     48.18654   -893.32403    1725.8671    8903.0388    2.1844384     109.6088   0.17280569 
  191100   -949.28476    48.309277   -900.97548    1730.2631   -9404.6921     2.156821    100.88802    0.1636946 
  191200   -942.35169    45.763336   -896.58835    1639.0767   -6336.1903    2.1477339    101.20935   0.16346913 
  191300    -942.1683    50.957891   -891.21041    1825.1268    12573.583    2.1958488    105.61085   0.17368749 
  191400   -945.31458    48.732236   -896.58234     1745.412    3220.0607    2.1782154    99.966916   0.16062392 
  191500   -944.21394     44.64413   -899.56981    1598.9908   -13029.266     2.136761    107.01325   0.15840163 
  191600   -941.54809    51.011192    -890.5369    1827.0359   -567.66129    2.1689485    81.888041   0.17596381 
  191700    -942.3481    50.486058   -891.86205    1808.2275    11603.064     2.192263    101.96948   0.17973684 
  191800   -945.33118    47.222139   -898.10904    1691.3258   -6226.7096    2.1534072    98.054845   0.17340521 
  191900   -943.64708    50.469786    -893.1773    1807.6447   -4453.0532    2.1540655    102.98067   0.16547985 
  192000   -939.57674     53.35398   -886.22276    1910.9461    3913.7567    2.1629209    99.150519   0.19200357 
  192100   -943.80423    47.130975   -896.67325    1688.0606    3030.1344    2.1753338    99.510943   0.17014873 
  192200   -943.11413    46.869653   -896.24448     1678.701     -6947.56    2.1491339    114.77502   0.15291435 
  192300   -942.12906     49.31224   -892.81682    1766.1856   -4616.7026    2.1560895    106.56541   0.16462649 
  192400   -938.41505    54.074612   -884.34044    1936.7565    7680.2309    2.1710714    91.429507   0.17721608 
  192500   -942.58694    50.064655   -892.52229    1793.1344   -2084.9426     2.163051    90.144034   0.14855368 
  192600    -940.2516    45.130726   -895.12088    1616.4189    -8198.216    2.1368889    83.473736   0.17346911 
  192700   -945.47445    49.900606   -895.57384    1787.2587     2979.469    2.1792334    77.577164   0.16443174 
  192800   -949.91796    48.054317   -901.86365    1721.1314    5300.4764    2.1967274    77.894908   0.14409731 
  192900   -939.58598    45.563392   -894.02259    1631.9155   -4955.3499    2.1497525    107.32299   0.16669237 
  193000   -938.33407    46.306006   -892.02806    1658.5132   -374.10788     2.153693    100.63054   0.17604492 
  193100   -942.56992     47.11439   -895.45553    1687.4666     5044.917    2.1772572    81.240068   0.16174797 
  193200   -944.97628    46.665808   -898.31048       1671.4    2229.5755    2.1735803    75.124199   0.12731497 
  193300   -941.04745    53.200969   -887.84648    1905.4658   -6266.4354    2.1412909     77.05692   0.15446837 
  193400   -945.23996    51.906513   -893.33344    1859.1031    2421.3069    2.1746743    77.193338   0.15211261 
  193500   -945.64232    48.494545   -897.14777    1736.8987    389.90239    2.1762241    76.132547   0.14573588 
  193600   -943.70621    50.254986   -893.45122    1799.9513   -4987.6689    2.1566386    76.522268   0.18025987 
  193700   -939.50781    51.793899   -887.71391    1855.0696   -5888.8655    2.1478739    77.823485   0.17048072 
  193800   -942.28373    45.882553   -896.40118    1643.3466    5061.8492    2.1820158     68.80394   0.16970503 
  193900   -943.37359    47.100941   -896.27265    1686.9849    1241.2176    2.1714886    71.640147   0.17996534 
  194000   -937.43432    48.412475   -889.02184    1733.9593   -1759.8954    2.1499554    76.449866   0.17544335 
  194100   -943.30441    46.961811    -896.3426    1682.0018   -1215.8648    2.1671138    75.509589   0.14317068 
  194200   -946.13662    48.177708   -897.95891    1725.5508   -3040.6746    2.1701813    70.808186   0.17688673 
  194300   -940.69295    46.157878   -894.53507    1653.2078    829.81631    2.1685065    83.259448   0.16148523 
  194400   -942.12244     50.93418   -891.18826    1824.2776   -3625.5578    2.1588583    77.685968   0.17652142 
  194500   -947.70425    47.670461   -900.03378     1707.383   -2855.5763    2.1678771    76.326589   0.16267381 
  194600   -944.02205     44.83344   -899.18861    1605.7712    286.45951    2.1709996    79.191105   0.15433726 
  194700   -944.92124    49.435338    -895.4859    1770.5945   -473.95004    2.1737347    77.590973   0.19081322 
  194800   -941.01689    47.838995    -893.1779    1713.4193   -2740.5899    2.1568396    77.895342   0.17316064 
  194900   -946.44362    43.142484   -903.30114    1545.2073   -971.00564    2.1759538    65.941065   0.17699315 
  195000    -945.1116    47.040999    -898.0706     1684.838   -3166.4939    2.1652889    77.214354   0.16861015 
  195100   -944.46393     50.83442   -893.62951    1820.7046    48.430817    2.1709497    80.458975   0.16503611 
  195200   -944.77835    46.173219   -898.60513    1653.7572    741.13571    2.1719135    82.224113   0.16038869 
  195300   -943.34529    41.414939   -901.93035    1483.3329    33.283049    2.1713823    71.929502   0.16963581 
  195400   -940.13253    47.056354   -893.07618     1685.388    1770.1659    2.1623085    72.390815    0.1711436 
  195500   -945.01545    49.205923   -895.80953    1762.3777    2264.9577    2.1722367    73.899328    0.1550535 
  195600   -947.26243    45.431795   -901.83064    1627.2021    2712.7928     2.179016    72.676633   0.15982232 
  195700   -940.22205    48.881425   -891.34062    1750.7554   -4809.0812    2.1467598    85.982002   0.16309984 
  195800   -938.48312    44.787663   -893.69546    1604.1317    5226.2627    2.1730211    71.455975   0.16987062 
  195900   -945.47286    47.075837   -898.39702    1686.0858    3766.4731     2.177065    78.104018   0.17248515 
  196000   -939.99767    47.292771    -892.7049    1693.8555   -2510.3489    2.1465536    70.069428   0.16022091 
  196100   -940.05364    49.458753   -890.59489    1771.4332   -1612.4741    2.1552231    79.073961   0.17182571 
  196200    -939.6758    42.772164   -896.90363    1531.9438    9031.8723    2.1829757    81.990748   0.15334786 
  196300   -941.91644    46.653977   -895.26246    1670.9763    1621.2211    2.1667907    72.863183   0.13679123 
  196400    -938.4954    50.100211   -888.39519    1794.4079    -7353.989    2.1319032     77.44841   0.17003619 
  196500   -946.57292    48.094202   -898.47872    1722.5599    7803.1855    2.1859327    79.227007   0.14394571 
  196600   -942.54261    46.623756   -895.91885    1669.8938    5744.7417    2.1766145    78.057517   0.15110027 
  196700   -940.62152    47.478194   -893.14332    1700.4967   -8876.5725    2.1363372    79.430729   0.15151827 
  196800   -945.49974    48.162431   -897.33731    1725.0036   -5359.6959    2.1557385    76.924389    0.1454589 
  196900   -947.10346    46.739823   -900.36364     1674.051    11946.701    2.2047713    70.333906   0.16172268 
  197000   -942.40475    47.694839   -894.70991    1708.2562     2267.377    2.1664232    86.764337   0.16558093 
  197100   -939.87344    45.006878   -894.86656    1611.9832   -11833.456    2.1284833    81.452207     0.163722 
  197200    -946.3142    44.143332   -902.17087    1581.0541    5429.7481    2.1884686    79.840702   0.14894572 
  197300   -947.46334    52.088013   -895.37533    1865.6037    10185.469    2.1970855    79.979052   0.13200216 
  197400   -942.17889    49.286653   -892.89224    1765.2692   -5705.5751    2.1483831    62.884124   0.15657288 
  197500   -944.88999    45.478962   -899.41103    1628.8915   -6535.8096    2.1571854    73.759242   0.17554913 
  197600   -945.33118    48.165877   -897.16531     1725.127    4267.1198    2.1794304     86.06915   0.16441455 
  197700   -941.35671    51.452899   -889.90381    1842.8563   -2174.8454    2.1563726    81.901622   0.17211797 
  197800   -942.55978    44.278438   -898.28134    1585.8931     -1867.38    2.1628846    73.044278   0.15974464 
  197900   -940.30079    43.610974   -896.68982    1561.9869    3076.6737    2.1700942    83.029763   0.17375557 
  198000   -941.49154    52.007936   -889.48361    1862.7357    674.60736    2.1626753    112.94874    0.1207689 
  198100   -948.38586    49.392676   -898.99319    1769.0665   -1383.4902    2.1724851    112.31902   0.14176005 
  198200   -945.72908    48.113736   -897.61534    1723.2596   -3239.6974    2.1645209    121.31125   0.13389324 
  198300   -942.02347    51.216516   -890.80696    1834.3899    537.45423    2.1651454    115.45163   0.14014934 
  198400   -947.81937    47.688492   -900.13088    1708.0288    2337.4297    2.1854405    120.01724   0.14839993 
  198500   -945.33468    46.740984    -898.5937    1674.0925   -6737.2257    2.1563857    117.96889   0.15161867 
  198600   -944.77719    51.432031   -893.34516    1842.1088   -3584.1654    2.1612735    117.92951   0.15323579 
  198700   -943.43272    42.879428   -900.55329    1535.7856    12936.908    2.2046156    115.32799   0.15819772 
  198800   -943.99103    43.402097   -900.58893    1554.5057   -1829.1658    2.1680373    110.16195   0.14490147 
  198900   -937.19761    42.358622   -894.83898    1517.1322   -8767.4639    2.1355439    110.22155   0.14737363 
  199000   -945.64003    48.898705   -896.74133    1751.3743    6395.7143     2.187854    112.86438   0.14447696 
  199100   -946.62855    44.845029   -901.78353    1606.1863    14087.634    2.2124212    117.94145   0.14289371 
  199200   -938.68638    46.224974   -892.46141    1655.6109   -11359.869    2.1340052    116.98525   0.17521392 
  199300   -939.24743    43.200537    -896.0469    1547.2866   -4098.6397     2.153809     117.9327   0.16566589 
  199400   -947.45262    48.624703   -898.82792    1741.5605    8896.6587    2.1991871    118.40585   0.15518997 
  199500   -940.22156    50.127068   -890.09449    1795.3698      939.727    2.1646955    117.06509    0.1679702 
  199600   -941.77727    47.601534   -894.17573    1704.9143   -6499.2049    2.1524702     115.9857   0.16782024 
  199700   -943.52373    44.303565   -899.22016     1586.793   -106.83187    2.1725204    116.24746   0.15914939 
  199800   -940.44358    46.614238   -893.82935    1669.5529    6640.5408    2.1819053    123.13137   0.15398702 
  199900   -941.53801    49.858801   -891.67921    1785.7614   -2132.6396    2.1573357    117.36168    0.1546148 
  200000   -948.03416    47.657551   -900.37661    1706.9206   -4888.4189    2.1704516    116.97093   0.14557289 
  200100   -938.93843    43.466253   -895.47218    1556.8035    6065.7594    2.1763523    119.33672   0.16122455 
  200200   -939.13295    47.615827   -891.51712    1705.4263    4362.3207    2.1668566    118.94338   0.17004239 
  200300   -942.55295    40.893706   -901.65924    1464.6643    1267.8828    2.1760914    113.49275   0.15511615 
  200400   -942.93194     45.25008   -897.68186    1620.6938   -2478.3662    2.1659028    117.42705   0.16220861 
  200500   -939.56795    46.924344    -892.6436    1680.6598    2983.8327    2.1695223    114.18911   0.16743341 
  200600   -945.36977    43.834101   -901.53567    1569.9785    4777.3738    2.1874044    116.96422   0.14812525 
  200700   -941.62162    42.639686   -898.98193    1527.1989   -6273.8552    2.1489026    117.04394   0.16428593 
  200800   -942.40087    48.199729   -894.20114    1726.3395   -1215.9447    2.1638977     117.0707   0.16013308 
  200900   -944.74721    46.706873   -898.04033    1672.8708    11752.104    2.2000505    113.10273   0.14201935 
  201000   -946.57088    42.667658   -903.90322    1528.2008   -3617.8739    2.1699945    116.98071   0.14023988 
  201100   -939.16082    44.154724   -895.00609    1581.4621   -9402.8424     2.135119     122.6035   0.15759912 
  201200   -945.22723    50.392459   -894.83477    1804.8751    8197.2187    2.1867438    117.76874   0.15101196 
  201300   -947.88434    46.453644    -901.4307    1663.8011    7917.1641    2.1972102    114.47872   0.13412987 
  201400   -935.71525    43.537696   -892.17755    1559.3624   -5696.0652    2.1377051    116.31183   0.16043314 
  201500   -940.83205    45.983635   -894.84842     1646.967   -93.959761    2.1627479    116.60468   0.16234961 
  201600   -943.95259    47.345003   -896.60759    1695.7263    10978.003    2.1908029    126.47417   0.14745497 
  201700   -942.81209    53.459782    -889.3523    1914.7355   -3018.4869     2.152931    134.98535   0.16751656 
  201800   -939.19983    47.123122   -892.07671    1687.7793   -5860.4154     2.143393    137.30913   0.16294224 
  201900   -942.31389    45.021256   -897.29263    1612.4981     2120.357    2.1735262    140.32543   0.16492073 
  202000   -944.21024    50.725626   -893.48461     1816.808    6077.4071    2.1819419    141.18284    0.1416359 
  202100    -940.2412    51.650793    -888.5904    1849.9441   -6618.8848    2.1459233    145.78759   0.17721615 
  202200   -947.39633    47.971843   -899.42449    1718.1774   -2046.0611    2.1711116    127.24131   0.14784412 
  202300   -941.16355    44.904626   -896.25893    1608.3208    6038.7564    2.1760955    144.45268   0.17346414 
  202400   -942.49039    49.707554   -892.78284    1780.3443   -12.438746    2.1598577    129.41253   0.16256756 
  202500   -940.52831    49.325306   -891.20301    1766.6536   -4793.5822    2.1481068    159.16103   0.14058469 
  202600   -945.41438    44.520115   -900.89426    1594.5491    6401.9328    2.1931713     159.7764    0.1450226 
  202700   -947.29198    52.216323   -895.07565    1870.1993    6607.0983    2.1884024    160.86445   0.12988342 
  202800   -942.02488    45.920201   -896.10467    1644.6951   -12677.258    2.1393166    172.65018   0.13586365 
  202900   -946.20407    42.816616   -903.38745    1533.5359   -5829.4466    2.1624039    160.71335   0.13805585 
  203000   -946.60047    47.122775   -899.47769    1687.7669    15061.649    2.2096472    173.41494   0.13241045 
  203100   -941.63993     47.49103    -894.1489    1700.9565    3585.0984    2.1717807    171.14497   0.14594922 
  203200   -943.17289    44.676001   -898.49689    1600.1323   -12685.846    2.1369875    167.23813   0.15396598 
Loop time of 142.073 on 1 procs for 200000 steps with 217 atoms

Performance: 364.884 ns/day, 0.066 hours/ns, 1407.730 timesteps/s
100.0% CPU use with 1 MPI tasks x no OpenMP threads

MPI task timing breakdown:
Section |  min time  |  avg time  |  max time  |%varavg| %total
---------------------------------------------------------------
Pair    | 136.17     | 136.17     | 136.17     |   0.0 | 95.85
Neigh   | 2.7341     | 2.7341     | 2.7341     |   0.0 |  1.92
Comm    | 0.92728    | 0.92728    | 0.92728    |   0.0 |  0.65
Output  | 0.072333   | 0.072333   | 0.072333   |   0.0 |  0.05
Modify  | 1.8546     | 1.8546     | 1.8546     |   0.0 |  1.31
Other   |            | 0.3145     |            |       |  0.22

Nlocal:    217 ave 217 max 217 min
Histogram: 1 0 0 0 0 0 0 0 0 0
Nghost:    957 ave 957 max 957 min
Histogram: 1 0 0 0 0 0 0 0 0 0
Neighs:    4095 ave 4095 max 4095 min
Histogram: 1 0 0 0 0 0 0 0 0 0
FullNghs:  8190 ave 8190 max 8190 min
Histogram: 1 0 0 0 0 0 0 0 0 0

Total # of neighbors = 8190
Ave neighs/atom = 37.7419
Neighbor list builds = 4615
Dangerous builds = 82
Total wall time: 0:02:24
