LAMMPS (3 Mar 2020)

# ---------- 1. Initialize simulation ----------
units metal
atom_style atomic
dimension 3
boundary p p p
read_data /home/modeler/RemLabs/Project/arrhenius_3/T1425.0/n3_T1425.0_timestep3.000000e-03_eqsteps3200_time600_rseed3329/20201205-085811/lammps.data
  orthogonal box = (0 0 0) to (17.469 17.469 17.469)
  1 by 1 by 1 MPI processor grid
  reading atoms ...
  217 atoms
  read_data CPU = 0.00101812 secs

pair_style meam/c
pair_coeff * * library.meam Li Si LiSi.meam Li Si
Reading potential file library.meam with DATE: 2012-06-29
Reading potential file LiSi.meam with DATE: 2020-11-07

group Li type 1
1 atoms in group Li
group Si type 2
216 atoms in group Si

velocity all create 1425.0 3329 dist gaussian

# ---------- 2. Specify equilibration ensemble  ----------
fix 1 all npt temp 1425.0 1425.0 0.15 tchain 2 iso 1.0 1.0 1.0 pchain 2
# fix 1 all nvt temp 1425.0 1425.0 0.15

# ---------- 3. Run equilibration -------------
timestep 0.003
run 3200
Neighbor list info ...
  update every 1 steps, delay 10 steps, check yes
  max neighbors/atom: 2000, page size: 100000
  master list distance cutoff = 6
  ghost atom cutoff = 6
  binsize = 3, bins = 6 6 6
  2 neighbor lists, perpetual/occasional/extra = 2 0 0
  (1) pair meam/c, perpetual
      attributes: full, newton on
      pair build: full/bin/atomonly
      stencil: full/bin/3d
      bin: standard
  (2) pair meam/c, perpetual, half/full from (1)
      attributes: half, newton on
      pair build: halffull/newton
      stencil: none
      bin: none
Per MPI rank memory allocation (min/avg/max) = 8.895 | 8.895 | 8.895 Mbytes
Step Temp E_pair E_mol TotEng Press Volume 
       0         1425   -951.04357            0   -911.25729   -116259.55    5330.9442 
    3200    1325.0953   -950.61825            0   -913.62134    11023.776    4543.8568 
Loop time of 2.32334 on 1 procs for 3200 steps with 217 atoms

Performance: 357.004 ns/day, 0.067 hours/ns, 1377.329 timesteps/s
100.0% CPU use with 1 MPI tasks x no OpenMP threads

MPI task timing breakdown:
Section |  min time  |  avg time  |  max time  |%varavg| %total
---------------------------------------------------------------
Pair    | 2.2617     | 2.2617     | 2.2617     |   0.0 | 97.35
Neigh   | 0.013069   | 0.013069   | 0.013069   |   0.0 |  0.56
Comm    | 0.013805   | 0.013805   | 0.013805   |   0.0 |  0.59
Output  | 2.5282e-05 | 2.5282e-05 | 2.5282e-05 |   0.0 |  0.00
Modify  | 0.029986   | 0.029986   | 0.029986   |   0.0 |  1.29
Other   |            | 0.004739   |            |       |  0.20

Nlocal:    217 ave 217 max 217 min
Histogram: 1 0 0 0 0 0 0 0 0 0
Nghost:    957 ave 957 max 957 min
Histogram: 1 0 0 0 0 0 0 0 0 0
Neighs:    4270 ave 4270 max 4270 min
Histogram: 1 0 0 0 0 0 0 0 0 0
FullNghs:  8540 ave 8540 max 8540 min
Histogram: 1 0 0 0 0 0 0 0 0 0

Total # of neighbors = 8540
Ave neighs/atom = 39.3548
Neighbor list builds = 22
Dangerous builds = 0

# ---------- 4. Describe computed properties----------
compute msdli Li msd
compute msdsi Si msd
thermo_style custom step pe ke etotal temp press density c_msdli[4] c_msdsi[4]
thermo 100

# ---------- 3. Run production -------------
timestep 0.003
run 200000
Per MPI rank memory allocation (min/avg/max) = 9.666 | 9.666 | 9.666 Mbytes
Step PotEng KinEng TotEng Temp Press Density c_msdli[4] c_msdsi[4] 
    3200   -950.61825    36.996914   -913.62134    1325.0953    11023.776     2.219548            0 4.655044e-32 
    3300   -959.92017    39.151346   -920.76882    1402.2592   -4978.2412    2.1968917   0.06877971   0.10629157 
    3400   -953.68228    39.629571   -914.05271    1419.3875   -11849.265    2.1650681  0.072522248   0.10117287 
    3500   -954.33745    41.716396   -912.62105      1494.13   -3842.1908    2.1847745   0.17816269  0.098328919 
    3600   -957.41187    39.775201   -917.63666    1424.6035    9157.4185    2.2244003  0.068285754   0.10640618 
    3700   -958.25801    40.334306   -917.92371    1444.6286    6896.1651    2.2224612  0.077099834  0.086582392 
    3800   -950.55906    38.096898   -912.46217    1364.4927   -3883.8835    2.1790278     1.011675     0.139394 
    3900   -949.64831    37.390191   -912.25812    1339.1811   -10549.718    2.1601347   0.64795202    0.1254581 
    4000   -957.32136    40.647449   -916.67391    1455.8442   -2101.2044    2.1974854   0.13934212    0.1124755 
    4100   -954.78101    35.851372   -918.92964    1284.0661    15067.047    2.2338306   0.02659493  0.088900297 
    4200   -957.53522    44.572064   -912.96316    1596.4097    3264.7098    2.2090842  0.010569567   0.10245442 
    4300   -953.13432    39.535687   -913.59864    1416.0249    -8409.696    2.1738075 0.0058188369   0.10587425 
    4400   -957.03872     37.36508   -919.67364    1338.2817   -10649.827    2.1785359   0.14632649  0.085489051 
    4500   -953.44169    36.984777   -916.45691    1324.6606    2648.7441    2.2050861  0.076340706   0.11249946 
    4600   -953.21745     41.31003   -911.90742    1479.5754    11950.442    2.2231936   0.12301731  0.098862392 
    4700   -956.73836    41.560575   -915.17779    1488.5491    2756.9456    2.2050994  0.090899491   0.10482897 
    4800   -958.31091    38.609523   -919.70138    1382.8531   -13337.276    2.1752159  0.027726568    0.1091885 
    4900   -953.26951    35.658356   -917.61116     1277.153   -5991.8729     2.182057    0.2116786   0.12073242 
    5000   -952.82189    39.692019   -913.12987    1421.6242    6557.4717    2.2101786  0.027502857   0.10410916 
    5100   -953.86461    40.631345   -913.23326    1455.2674    8636.5445    2.2145495  0.067004349   0.10242424 
    5200   -954.65966    39.318817   -915.34084    1408.2574    -3142.748    2.1880946   0.12804131   0.12742435 
    5300   -952.42753    43.695635   -908.73189    1565.0192   -10535.739    2.1638924  0.033909683   0.10520905 
    5400   -951.25964    42.111853   -909.14779    1508.2939   -2782.9962    2.1832467  0.046550273   0.11078031 
    5500   -952.60998    39.224731   -913.38525    1404.8876    7425.4457    2.2112408  0.018642831   0.10557886 
    5600   -954.30823    39.327146   -914.98108    1408.5558     3362.101    2.2083229   0.12106504   0.11050159 
    5700   -948.75044    41.493927   -907.25651     1486.162    -4505.067    2.1737153  0.030852398   0.12465393 
    5800   -949.32655    37.993287   -911.33326    1360.7817   -4140.5964    2.1775484   0.06753993   0.13099001 
    5900   -952.35574    37.563635   -914.79211    1345.3932    2009.5369    2.1992814  0.056399997   0.10528846 
    6000   -951.68131    38.952677   -912.72864    1395.1436    7298.1384    2.2104089  0.065969152   0.10965314 
    6100    -948.2716    42.680646   -905.59095    1528.6659    1872.0099    2.1859474 0.0065689943   0.13412768 
    6200   -954.11635    39.835061   -914.28129    1426.7474   -4973.1053    2.1871397  0.051427658   0.11316403 
    6300   -953.88712     39.36923   -914.51789     1410.063   -4981.7748     2.183188  0.051309303   0.12231717 
    6400   -951.56353    40.442703   -911.12083     1448.511    1658.0971    2.1927132  0.032425774     0.113579 
    6500   -949.97434    45.079443    -904.8949    1614.5822    4326.3781    2.1945284  0.032057935   0.10192544 
    6600   -954.49639    40.392371   -914.10402    1446.7082    4529.8371     2.207791  0.041396229   0.11009321 
    6700   -954.81797    40.759115   -914.05885    1459.8437   -7471.2073    2.1782652  0.035450833   0.10437933 
    6800   -954.09473    40.736858   -913.35787    1459.0465   -7908.7195    2.1743029 0.0044991891   0.10430803 
    6900     -954.944    35.564012   -919.37999     1273.774    3823.2729     2.207637  0.031031887   0.10274505 
    7000   -956.42066    37.763997   -918.65666    1352.5694    8971.1935    2.2232754    0.1038622   0.10175292 
    7100   -953.29806    39.779456   -913.51861    1424.7559    3498.0582     2.200218  0.044346174   0.10131197 
    7200   -954.73605    41.324709   -913.41134    1480.1012   -9586.7236    2.1724978  0.015656922   0.11154853 
    7300   -954.37773    35.414518   -918.96321    1268.4196   -7137.6065    2.1795913  0.074319256   0.11665103 
    7400   -956.56383    38.671429    -917.8924    1385.0703    2136.9837    2.2063917 0.0056319626   0.10253073 
    7500   -955.42938     43.17948    -912.2499    1546.5324    8066.1175    2.2188689   0.11637212   0.11526945 
    7600   -955.61983    41.465323   -914.15451    1485.1375    470.63326    2.1997416   0.09538229   0.10963329 
    7700   -957.17277    36.776509   -920.39626    1317.2012   -8354.7178    2.1842233  0.044075302   0.11683243 
    7800   -954.78869     38.62855   -916.16014    1383.5346   -4332.5236    2.1890085   0.10035211   0.10560484 
    7900   -951.25009    38.506382   -912.74371    1379.1589    6543.6369    2.2068138   0.18245494   0.10073058 
    8000   -953.59044    39.394933    -914.1955    1410.9836    4744.5164    2.2058025   0.08780982   0.10532503 
    8100   -957.25058    37.177978    -920.0726    1331.5803   -2254.1898    2.1990715  0.057718785   0.10925935 
    8200   -958.52291    40.519048   -918.00386    1451.2453   -4962.3315    2.1950312   0.30051939   0.10401581 
    8300   -956.13494     42.54635   -913.58859    1523.8559    132.14951    2.1996469  0.033042746  0.092870672 
    8400   -953.57739    39.936809   -913.64058    1430.3917    797.52905    2.2001692   0.21613705   0.11071152 
    8500    -951.1993    38.192718   -913.00658    1367.9247   -1250.4309     2.188799   0.36406129   0.12803537 
    8600   -951.39219    45.847782   -905.54441    1642.1013   -9183.6148    2.1665067    1.0539747   0.14037675 
    8700   -951.99039    39.728611   -912.26178    1422.9348    135.90276    2.1897831   0.82098435   0.12923313 
    8800    -955.6074    41.505998    -914.1014    1486.5943    6609.0783     2.213474  0.062045677  0.097389873 
    8900    -957.2265    39.277017   -917.94948    1406.7603    1863.4283    2.2080546   0.11143294   0.10246261 
    9000   -959.31354    37.094275   -922.21927    1328.5824   -6830.1581    2.1899819   0.13458675  0.097136326 
    9100   -950.66691    36.640557   -914.02635    1312.3319   -8740.6343    2.1681288  0.037380879   0.11481001 
    9200   -951.90824    38.120956   -913.78728    1365.3544    9366.1829    2.2140012  0.033120322   0.12215742 
    9300   -953.90309    41.014898   -912.88819    1469.0049    14931.469    2.2321247   0.13398145   0.10113542 
    9400   -952.89111     37.37508   -915.51603    1338.6398   -726.58647     2.193877  0.071361581   0.11211637 
    9500   -953.22669    42.007061   -911.21963    1504.5406   -12834.059    2.1598853  0.054466948   0.11352103 
    9600   -950.58366    42.041447   -908.54222    1505.7722   -3775.3418    2.1779075  0.080894138   0.12803215 
    9700    -953.6154    40.649998   -912.96541    1455.9355    2958.7492    2.2022421    0.1181121   0.11498903 
    9800   -956.51471    41.377232   -915.13747    1481.9824    1181.0396    2.2042475  0.091480387   0.10460068 
    9900   -952.18243    42.235706   -909.94673    1512.7298   -1057.1453     2.188376    0.2038679   0.11368664 
   10000   -945.54484     36.33076   -909.21408    1301.2361    552.69593    2.1795824    0.1019674   0.10643289 
   10100   -954.39003    39.332673   -915.05736    1408.7537   -2517.8452    2.1899592  0.027545283   0.11158931 
   10200   -955.17054     41.65913   -913.51141     1492.079    1092.6398    2.2010334  0.059240915   0.11051589 
   10300   -949.16159    43.071148   -906.09045    1542.6523     4340.329    2.1892597  0.037981107   0.11346357 
   10400   -955.62619    41.164184     -914.462    1474.3518    1219.4276    2.2005581  0.027786795   0.10651239 
   10500   -952.13641    37.535879   -914.60053    1344.3991    -3098.742    2.1852556 0.0064121893   0.11317518 
   10600   -951.76575    41.495628   -910.27012    1486.2229    -4855.632    2.1773263  0.081845178   0.12342391 
   10700   -950.72416     42.62691   -908.09725    1526.7413    2355.4366     2.193316  0.085908625   0.11317855 
   10800   -955.27367    39.580549   -915.69312    1417.6317    10249.816    2.2231614  0.081760102   0.11277484 
   10900   -952.72904    39.148441    -913.5806    1402.1552    3000.1347     2.200689  0.040534246   0.10225945 
   11000   -951.90554    38.959468   -912.94607    1395.3868   -10643.404    2.1638687  0.079356759   0.11574495 
   11100   -959.19513    37.880166   -921.31496    1356.7302   -10404.073    2.1822094   0.10877801   0.10127997 
   11200   -954.67195    38.339748    -916.3322    1373.1907    6459.1566     2.210562  0.084764257   0.10480918 
   11300   -953.00401    41.166742   -911.83727    1474.4434     11681.34    2.2240069   0.18565457   0.12440807 
   11400    -952.9324    37.876758   -915.05565    1356.6081     1063.568    2.1979596  0.083068322   0.10571873 
   11500   -958.57863    37.186932    -921.3917    1331.9011   -8788.4618    2.1854801   0.11813907   0.10462308 
   11600   -953.71783    40.050254   -913.66757    1434.4548   -6237.1271    2.1814096  0.010627504    0.1133115 
   11700   -950.30196    37.366595   -912.93536    1338.3359    5772.6802    2.2021793  0.096070352   0.11456969 
   11800    -954.5126    37.470102    -917.0425    1342.0432    6248.8669    2.2093548  0.016634355   0.11240686 
   11900    -956.9674    36.390765   -920.57663    1303.3852   -1187.3558    2.2021249  0.020197478  0.095784324 
   12000   -952.47636    40.453752   -912.02261    1448.9067   -6672.9402     2.172043 0.0090215399   0.11292979 
   12100   -953.69018    40.008035   -913.68214    1432.9427   -2647.0315     2.187654  0.013416381   0.10923295 
   12200   -957.38507    42.233635   -915.15143    1512.6557    4516.6377    2.2105049  0.023380501  0.098004312 
   12300   -959.52564    39.487301   -920.03833    1414.2919    2516.6926    2.2137663     0.259673  0.098705991 
   12400   -958.32576    36.727995   -921.59776    1315.4636   -2128.3799    2.1990915   0.08238142  0.093505944 
   12500   -954.57651     38.50827   -916.06824    1379.2266   -3718.2945    2.1881811  0.030094305   0.11360138 
   12600   -952.74549    39.094236   -913.65126    1400.2137    248.60321    2.1944334  0.041063104    0.1012982 
   12700   -952.50631    40.986372   -911.51994    1467.9832    6383.8573    2.2059081  0.077397981   0.10851455 
   12800   -956.83659    38.598185   -918.23841     1382.447    188.32827    2.2059365   0.10317106   0.10139108 
   12900   -956.57626    38.713798   -917.86246    1386.5879   -10744.222     2.174135  0.098898215   0.10518812 
   13000   -952.95674    38.851898   -914.10484    1391.5341   -5995.3738    2.1786635   0.14028814   0.11159025 
   13100    -955.7539    44.670707   -911.08319    1599.9427    9628.2221    2.2212965   0.07673463  0.098363699 
   13200   -955.04011    36.514735   -918.52537    1307.8254    14802.638    2.2401289 0.0063571137   0.11320126 
   13300   -954.04717      38.2261   -915.82107    1369.1203   -6346.5561    2.1839413  0.053910389    0.1188561 
   13400   -950.20216    37.547379   -912.65478     1344.811   -9462.8502    2.1648051  0.086874023   0.11903352 
   13500   -951.57896    36.833016   -914.74595    1319.2251    196.74958    2.1905852   0.01344768   0.12067145 
   13600   -957.35319    37.858321   -919.49487    1355.9478    8236.2299    2.2240254  0.061788767   0.10592767 
   13700   -954.31486    43.414771   -910.90009    1554.9596   -8.3748888    2.1959128   0.12180655   0.11453812 
   13800   -955.63811    42.654401   -912.98371     1527.726    -5596.006    2.1853436  0.044486926   0.10980497 
   13900   -951.00836    34.737507   -916.27085    1244.1715   -545.11111    2.1898228  0.010464074   0.11757855 
   14000   -956.79799    42.135623   -914.66237    1509.1452    1361.0474    2.2027634  0.021402224   0.11409242 
   14100   -948.25654    39.126374   -909.13017    1401.3648    5431.8111    2.1970899    0.1111737   0.11537305 
   14200   -953.78227    39.523723   -914.25854    1415.5964   -2100.1006    2.1904983  0.061365696   0.11360377 
   14300    -954.8277    39.333219   -915.49449    1408.7733   -4959.7439    2.1834669  0.030301821   0.11156041 
   14400   -950.77921    43.509504   -907.26971    1558.3526   -2881.6655    2.1806879   0.12413046   0.12985614 
   14500   -952.59208    39.542227   -913.04985    1416.2592    8657.2548     2.215096  0.084621497    0.1121537 
   14600   -953.18761    38.065755   -915.12186    1363.3773    4964.4263    2.2095358  0.047140763   0.11039874 
   14700   -950.26022    39.369038   -910.89118    1410.0562    -8323.464    2.1668322   0.07153486   0.11525367 
   14800   -952.99431    43.669537   -909.32478    1564.0844   -15579.045    2.1535223  0.055385603   0.12173089 
   14900   -955.93777    39.613571   -916.32419    1418.8145    5154.9737    2.2134526  0.037897945   0.10903636 
   15000   -953.77218    42.022103   -911.75008    1505.0793    16094.887    2.2348078  0.066739352   0.11064852 
   15100   -953.93148    42.480073    -911.4514    1521.4822    302.73283    2.1971179  0.034237269   0.11213203 
   15200   -957.79585    38.726322   -919.06953    1387.0364    -8380.795    2.1842862  0.041384949    0.1033868 
   15300     -952.544    38.204718   -914.33929    1368.3545    -5663.696    2.1817777  0.034087506   0.13031606 
   15400    -954.4074    43.086968   -911.32043    1543.2189    984.02219    2.1974764  0.014208091   0.11592194 
   15500   -959.01248    40.269681    -918.7428    1442.3139     4751.567    2.2191021   0.13762704   0.10244807 
   15600   -955.53711    40.081047   -915.45606    1435.5578   -1727.5152    2.1983212   0.13682659   0.12046546 
   15700   -952.12969    39.997586    -912.1321    1432.5685   -5122.3245    2.1800356  0.078549749   0.12181512 
   15800   -955.71142    38.862857   -916.84857    1391.9266   -2364.4751    2.1907448  0.054798492   0.11584089 
   15900   -955.65011    38.307672   -917.34244    1372.0419    2448.5986    2.2088469  0.021102292   0.10820293 
   16000   -951.83472    41.112544   -910.72217    1472.5022    3635.0741    2.2004296  0.097904211   0.10462701 
   16100   -955.93966    40.930497   -915.00916     1465.982   -2828.1924    2.1887128  0.030743479   0.10563178 
   16200   -953.84196    36.483465    -917.3585    1306.7054   -7338.0468    2.1822534  0.061407855   0.12361659 
   16300   -949.99916    41.089701   -908.90946    1471.6841   -4209.6775    2.1780185 0.0076519493    0.1288682 
   16400   -955.67267    42.925617   -912.74705    1537.4399    11293.454    2.2266727  0.077477473   0.11071411 
   16500   -953.09272    38.039557   -915.05316     1362.439    12655.148     2.227155  0.093300148   0.12296625 
   16600   -949.16053    40.186737    -908.9738    1439.3432   -8386.0639    2.1670091  0.010347149   0.13587276 
   16700   -949.19394    38.274754   -910.91919    1370.8629   -12795.002    2.1535301   0.17550506    0.1322478 
   16800   -952.56635    37.116511   -915.44984    1329.3788    415.08287    2.1965925   0.12825679     0.133256 
   16900   -955.70044    43.382959   -912.31748    1553.8203     8734.867    2.2183207   0.10588524   0.10495188 
   17000   -952.36853    44.749125   -907.61941    1602.7514    1209.7183    2.1913697  0.015263904   0.11146168 
   17100   -955.50565    39.529537   -915.97611    1415.8047   -3340.8845    2.1901468  0.039077678  0.098849593 
   17200   -953.34654     39.16096   -914.18558    1402.6036   -3049.7303    2.1862935   0.23401377   0.10673182 
   17300   -950.74466    41.147037   -909.59763    1473.7376    1927.7028    2.1906074  0.082465163   0.12089739 
   17400    -954.2416    37.883366   -916.35823    1356.8448    3807.8106     2.207623  0.040746087   0.10701636 
   17500   -955.02061    38.664177   -916.35643    1384.8106   -1016.2059    2.1947311   0.12550463   0.10327235 
   17600   -953.86385    41.206355    -912.6575    1475.8622   -4100.1345    2.1845204  0.030557353   0.11545005 
   17700   -949.58793    37.229629    -912.3583    1333.4303   -238.09054    2.1908502  0.070212723   0.12275381 
   17800   -958.36332    38.886121    -919.4772    1392.7598    6748.8113    2.2189499  0.024358217   0.10273548 
   17900   -952.20188    39.251793   -912.95009    1405.8569    4387.6699    2.2029346   0.12845016   0.10970534 
   18000   -953.49628     40.67859   -912.81769    1456.9596   -5466.7027    2.1791913   0.21073306    0.1033987 
   18100   -953.74564    34.201364   -919.54427    1224.9688   -8449.0863    2.1792334  0.054670032   0.11064007 
   18200   -953.38753    38.214536   -915.17299    1368.7061    2014.2771    2.1987324   0.28197074   0.10321907 
   18300   -954.02413    42.875499   -911.14863    1535.6449    12328.356    2.2245345   0.35413563    0.1053691 
   18400   -955.19933    39.300342   -915.89899    1407.5957    3897.2659    2.2098962  0.079298542   0.10823989 
   18500   -957.12158    39.392496   -917.72909    1410.8964   -12931.748    2.1718482   0.15255628     0.104102 
   18600    -952.1513    42.436075   -909.71522    1519.9063   -11730.864    2.1587374  0.083641641    0.1220584 
   18700   -953.71697    40.080054   -913.63692    1435.5222    4576.1415    2.2045884  0.018849247   0.10743576 
   18800   -953.60884     38.25595   -915.35289    1370.1894    9197.7837    2.2194339   0.02135562   0.10574517 
   18900    -946.3741    39.097531   -907.27657    1400.3318    2504.1662    2.1851322  0.025703309   0.11671097 
   19000   -951.75191    38.635213   -913.11669    1383.7732   -3484.2262     2.184813  0.043537501   0.12058468 
   19100   -953.59122    38.093349   -915.49788    1364.3656   -3993.3679    2.1901697  0.067262183   0.11525529 
   19200   -952.99103     43.22965   -909.76138    1548.3293    1011.8169    2.1928345 0.0039335014   0.11587072 
   19300   -952.30009    41.247823   -911.05227    1477.3474    2207.1809    2.1980342   0.18350919   0.11982169 
   19400   -955.58975    39.578417   -916.01133    1417.5554   -899.44333    2.1976814   0.16947008   0.11268883 
   19500   -954.91167    42.252557   -912.65911    1513.3334   -2783.9926    2.1882931  0.050899979   0.11281449 
   19600   -951.20178    41.801271   -909.40051    1497.1699    -2637.465    2.1850324  0.053190805   0.11513035 
   19700   -955.56485    37.513529   -918.05132    1343.5986    7493.8047    2.2163185  0.053907107   0.10686566 
   19800   -955.83004    41.682206   -914.14783    1492.9054    1111.9818    2.2002537  0.068123949  0.092993052 
   19900   -953.02612    41.254958   -911.77116     1477.603   -5894.5768    2.1747735  0.020018883   0.10559367 
   20000   -954.30686    35.980081   -918.32678     1288.676    -8351.249    2.1800897   0.20672808   0.11599568 
   20100   -956.97639    40.056365   -916.92002    1434.6737    565.76416    2.2051642  0.023321999   0.11518364 
   20200   -952.20432    41.115847   -911.08847    1472.6205    13740.987    2.2246885   0.15410061   0.11878448 
   20300   -955.93505    40.637944    -915.2971    1455.5038    2366.8128    2.2058418  0.083821879   0.10616924 
   20400    -954.8159    34.752764   -920.06314     1244.718   -9609.1488    2.1760803   0.14380297   0.10561142 
   20500    -951.9836    39.820744   -912.16286    1426.2346    -9959.879    2.1665988  0.073783914   0.11111159 
   20600   -956.33572    43.227494   -913.10823    1548.2521    2700.0066     2.207031  0.068725949   0.12010991 
   20700   -957.02471    39.743999   -917.28071    1423.4859    7645.4977    2.2234682  0.036917332   0.11493188 
   20800   -950.31001    41.045042   -909.26497    1470.0845   -503.85733    2.1907571  0.063647972   0.12046063 
   20900   -953.20079    41.249161   -911.95163    1477.3954   -4610.7326    2.1835852   0.12349698   0.11928745 
   21000   -956.03909    40.058344   -915.98075    1434.7446   -2396.7881    2.1920411  0.071768819     0.102353 
   21100   -952.79764    40.907098   -911.89054    1465.1439    2584.7305    2.2003033  0.061772429   0.10811402 
   21200   -947.38709     38.18686   -909.20023    1367.7148    6472.9928    2.1969971     0.043089   0.13255527 
   21300   -957.28638    41.664734   -915.62164    1492.2797   -2963.9696    2.1957395  0.049201261   0.11523416 
   21400   -952.48027    39.165366   -913.31491    1402.7614   -4267.2983    2.1860895  0.093091803   0.12580626 
   21500   -950.72253    43.124611   -907.59792    1544.5672    -2926.783    2.1807412  0.020265723   0.12692611 
   21600   -956.95903    40.696082   -916.26295    1457.5861    4595.3867    2.2145756  0.076023317   0.11732179 
   21700   -952.87853    39.134106   -913.74443    1401.6418    5671.5137    2.2065366  0.043848529   0.11616728 
   21800   -952.27789    42.000319   -910.27757    1504.2991   -8102.3119     2.171719  0.030489262   0.12814115 
   21900   -957.28385    39.420194   -917.86366    1411.8884   -13426.749    2.1707273   0.12561602   0.11956757 
   22000   -955.87627    39.701469    -916.1748    1421.9626   -343.80471    2.2004621  0.040065402   0.11139419 
   22100   -952.67329    41.685964   -910.98733    1493.0401    14764.868    2.2302635  0.087617429   0.11897639 
   22200   -955.59517    39.886151   -915.70902    1428.5773    4749.3421    2.2121457  0.060195046   0.11153941 
   22300   -957.89917    38.251136   -919.64803     1370.017    -11174.26    2.1777966  0.022634641   0.11791209 
   22400   -955.80425    42.897115   -912.90714    1536.4191   -11305.515    2.1705264  0.054516368   0.12665056 
   22500   -953.86929    40.571314   -913.29798    1453.1174    2677.8004    2.2018363    0.1508024   0.12038307 
   22600   -956.91093    37.715663   -919.19527    1350.8383    8138.0461    2.2245314  0.030468807   0.11993481 
   22700    -950.6552    38.708927   -911.94627    1386.4134    1985.1197    2.1935618  0.090843825   0.11152327 
   22800   -954.10503    41.670706   -912.43433    1492.4936   -5521.3782     2.181949  0.015084033   0.11792744 
   22900   -954.27241    38.524541   -915.74787    1379.8093    -2656.846    2.1905375  0.062552734   0.12401611 
   23000   -955.74195    38.906726   -916.83523    1393.4978    1981.6337    2.2049058  0.019664258   0.11147742 
   23100   -952.71302    44.029356   -908.68367    1576.9718   -1751.1522    2.1856514  0.035950171   0.12631438 
   23200   -952.55233    39.193874   -913.35845    1403.7824   -622.86943    2.1907665  0.086241537   0.11180656 
   23300   -955.55399     40.03864   -915.51535    1434.0389   -1367.2329    2.1960136  0.087647432   0.12527961 
   23400   -951.66736    43.179695   -908.48766    1546.5401    1943.9627     2.193056   0.15423741   0.12045786 
   23500   -953.18035     42.62515    -910.5552    1526.6783    3154.0776    2.2010723  0.059290196   0.11881264 
   23600   -955.91723    40.751884   -915.16535    1459.5847   -3788.0307    2.1914384 0.0054664518   0.11494698 
   23700   -951.85719    38.973495    -912.8837    1395.8892   -7053.5397    2.1745626   0.03739243   0.12065995 
   23800   -947.98762    40.910304   -907.07731    1465.2587    -788.3794    2.1801284  0.067539203   0.14163928 
   23900   -956.24996    41.107995   -915.14196    1472.3393    11964.021    2.2283324  0.098012115  0.097534156 
   24000   -953.70746    39.971273   -913.73619    1431.6261    7620.0327    2.2140652   0.05949257   0.12335123 
   24100    -950.7461    40.681092     -910.065    1457.0492   -8275.2398    2.1685223  0.089156954   0.12365024 
   24200   -954.41391    38.435915   -915.97799    1376.6351   -11977.017     2.167772  0.062980009   0.12083661 
   24300   -953.78406    37.302018   -916.48204     1336.023    1598.9299    2.1971061  0.084463658   0.11761899 
   24400   -954.72286    42.930412   -911.79245    1537.6117    9840.9558    2.2164171   0.17293418   0.10372536 
   24500   -951.70124    37.632277   -914.06896    1347.8517    7261.2469    2.2056832  0.027374318   0.10838369 
   24600   -957.72293    37.964361   -919.75857    1359.7457   -3825.9683    2.1923693  0.054483913   0.10918211 
   24700   -951.21777    38.006392   -913.21138    1361.2511   -5636.7068     2.176113  0.015947821   0.12608725 
   24800   -953.09789    40.544955   -912.55293    1452.1733    1033.7849    2.1934989    0.1051999   0.10260766 
   24900   -958.81937    39.321436   -919.49793    1408.3512    3915.2686    2.2174363   0.12851069   0.11026495 
   25000   -952.58549    39.356797    -913.2287    1409.6177    2737.9189    2.1988687    0.2584335    0.1046438 
   25100   -954.53011    42.200216   -912.32989    1511.4587   -3246.3246    2.1859626  0.032335954   0.10487328 
   25200   -954.63187    38.072213   -916.55965    1363.6086   -3627.6805    2.1905359   0.11383712   0.12559268 
   25300   -957.84732    40.474305   -917.37302    1449.6428   -519.06241    2.2007962   0.28118379   0.10778956 
   25400   -951.09729    40.946349   -910.15094    1466.5497    1197.9931    2.1930805    0.2424561    0.1151074 
   25500   -956.50206    42.326709   -914.17535    1515.9892   -199.91308     2.196351    0.1586374   0.10843317 
   25600   -954.95003     38.48691   -916.46312    1378.4615   -2806.5538    2.1938092   0.15273792   0.10889117 
   25700   -947.97536    40.318437   -907.65692    1444.0602   -1592.3267    2.1766627  0.074218098   0.11245861 
   25800   -954.52146    41.452228   -913.06923    1484.6685    5569.3428    2.2080011  0.095877675   0.11036168 
   25900   -954.49374    39.479635   -915.01411    1414.0174    7866.3522    2.2166609  0.052671595   0.11440917 
   26000   -951.42038    41.740735   -909.67964    1495.0017   -2989.2077    2.1816111   0.10257274   0.10867057 
   26100   -952.61155    41.703246   -910.90831    1493.6591    -11280.28    2.1627381    0.0161946   0.11711062 
   26200   -955.61498    39.584576   -916.03041     1417.776   -3261.1925    2.1901257   0.25760035   0.10492899 
   26300   -950.48326    39.166202   -911.31705    1402.7913    10539.338     2.217139   0.10683318   0.11282585 
   26400   -953.42369    43.144729   -910.27896    1545.2877    6036.9594    2.2081654  0.069457143   0.11835978 
   26500   -955.16557    37.309947   -917.85562     1336.307   -2505.3646    2.1919236  0.046429301   0.11280619 
   26600   -954.09154    39.968449   -914.12309    1431.5249   -8717.8157    2.1747041  0.011913789   0.11655556 
   26700   -952.71889    41.670511   -911.04837    1492.4866   -1362.4483    2.1876806   0.58171001   0.10139894 
   26800   -960.10691    40.963465   -919.14345    1467.1628    6104.1477    2.2223059  0.091280155  0.095335691 
   26900   -952.72685    37.731916   -914.99494    1351.4204    4550.6136    2.2036973  0.012944601   0.10316343 
   27000   -954.10328    41.801294   -912.30199    1497.1707   -5895.6992    2.1790738  0.021025507    0.1070033 
   27100   -954.01304     37.22296   -916.79008    1333.1914   -4906.6061    2.1838579  0.095505583   0.11311523 
   27200   -956.38025    38.602442   -917.77781    1382.5995    2339.0189     2.207001  0.089650309   0.10058433 
   27300   -953.54404    42.508948   -911.03509    1522.5164    6396.3896    2.2077205   0.10882139   0.10269322 
   27400   -957.37998    42.731626   -914.64835    1530.4919   -1198.6575    2.1956554  0.044370383   0.10637005 
   27500   -955.05769    36.415941   -918.64175    1304.2869    -9552.417    2.1756184   0.10102055   0.10766656 
   27600   -950.51822    40.159943   -910.35828    1438.3835   -7424.0093    2.1680123   0.15860734   0.10966077 
   27700   -953.93988    41.997344   -911.94254    1504.1926    14654.792    2.2283724   0.12194119    0.1100343 
   27800   -951.82695    37.476211   -914.35074     1342.262    18910.499    2.2375088  0.075778847   0.10399377 
   27900   -952.69751    40.848864   -911.84865    1463.0582   -5774.4273    2.1755073  0.013363449   0.10632655 
   28000   -951.13056    42.424271   -908.70629    1519.4835   -14015.705    2.1505103  0.058333235    0.1241814 
   28100   -955.52354    39.737705   -915.78583    1423.2605   -1647.9136    2.1941827   0.22217915   0.10288875 
   28200   -956.27938    43.308892   -912.97048    1551.1674    5695.5346    2.2132097  0.037667497    0.1123483 
   28300   -951.15941    43.091306   -908.06811    1543.3743    3500.6746    2.1939059   0.22462246   0.10865301 
   28400    -954.4067    37.842725   -916.56398    1355.3892   -836.01042    2.1940465  0.036706934   0.11375243 
   28500   -954.06333    39.543309   -914.52002    1416.2979   -6928.6875     2.179044  0.036449086   0.10729627 
   28600   -954.65426     44.12066    -910.5336     1580.242   -3668.1274    2.1876763 0.0083074456   0.11721734 
   28700   -956.08239    37.626308   -918.45608    1347.6379    7912.2358    2.2204425  0.037946727   0.11098304 
   28800   -953.01405     37.53688   -915.47717    1344.4349    3195.9841    2.2042999   0.10583065   0.12556282 
   28900     -955.299    43.462215   -911.83678    1556.6589   -6605.9449    2.1802183  0.013381866   0.11638938 
   29000   -956.19467    39.599315   -916.59536    1418.3038   -7230.2061    2.1818223  0.075189942   0.10135948 
   29100   -958.88622    41.508291   -917.37793    1486.6765    1056.1813    2.2081765 0.0092777487  0.094870508 
   29200   -951.37089    40.725601   -910.64529    1458.6433    9409.4833    2.2157016  0.097143945   0.10765728 
   29300   -951.00708    36.180486    -914.8266    1295.8538    2070.3689    2.1993618  0.099710174   0.12650676 
   29400   -958.07357    39.221706   -918.85187    1404.7793   -11268.122    2.1761423  0.029563052  0.096758539 
   29500   -951.18922      40.6276   -910.56162    1455.1333   -10833.397     2.166232  0.081739844   0.11724399 
   29600   -954.07014    41.295768   -912.77437    1479.0647    9165.8408    2.2190079   0.09815524   0.10367399 
   29700   -958.14169    42.373732   -915.76796    1517.6734    11206.808    2.2309898  0.019640614   0.10276649 
   29800   -953.13689    44.520115   -908.61677    1594.5491   -4154.6099    2.1820395  0.014194069   0.13055042 
   29900   -951.15081    38.855933   -912.29488    1391.6786   -6477.1975    2.1733336   0.12444088    0.1209655 
   30000   -954.35934    38.605802   -915.75354    1382.7198   -1626.2388    2.1933383  0.087597303   0.11139605 
   30100   -951.23346    40.923887   -910.30957    1465.7452    4237.0632    2.2006599   0.29931781    0.1126332 
   30200   -952.37099    41.949599   -910.42139    1502.4825    822.05682    2.1942923   0.45977092   0.11382013 
   30300   -956.28563    40.157627     -916.128    1438.3006    -4067.765    2.1903341   0.15576351   0.10484937 
   30400   -951.34429     38.92614   -912.41815    1394.1932    34.214608    2.1899482  0.016852977    0.1234413 
   30500   -951.78503    42.974878   -908.81015    1539.2043    1006.0792    2.1934742   0.40998953  0.099954829 
   30600   -955.11398    37.602387    -917.5116    1346.7811    5586.2575    2.2142223   0.05283612   0.10404504 
   30700   -953.49604    39.195582   -914.30046    1403.8436   -3605.2138    2.1913547  0.031424075   0.12113592 
   30800   -953.20943    41.395419   -911.81401    1482.6338   -8369.6598    2.1758694   0.11869572   0.11262374 
   30900   -958.73167    39.091385   -919.64029    1400.1117   -1474.6752    2.2015515   0.12030256   0.11186093 
   31000   -952.32226    36.464473   -915.85779    1306.0252    7379.3272    2.2120827  0.067233216      0.10483 
   31100   -950.33341    38.633002   -911.70041     1383.694    7501.2614    2.2063755   0.28508332   0.11078222 
   31200   -957.37881    41.029471   -916.34934    1469.5268   -5990.1828    2.1855986  0.055495393   0.10744601 
   31300   -954.45318    35.049743   -919.40344    1255.3547   -9711.9602    2.1775954   0.11650326   0.11473508 
   31400   -953.58544    41.339913   -912.24552    1480.6458   -1020.1843     2.191706   0.30538334   0.10845187 
   31500   -954.68482    41.698896   -912.98593    1493.5032    12368.844    2.2267669  0.050168078   0.10715153 
   31600   -956.92014    39.127676   -917.79246    1401.4115      6937.84    2.2178833  0.011574814  0.099658875 
   31700   -951.71023    42.395827   -909.31441    1518.4648   -9887.8215    2.1619222  0.045791761   0.12287461 
   31800    -952.3186    40.589585   -911.72901    1453.7717   -7535.8678     2.171975  0.046380896   0.12222701 
   31900   -951.50865    36.593827   -914.91482    1310.6582    6158.4187    2.2075255  0.045013677   0.10413827 
   32000   -954.84425    39.649667   -915.19458    1420.1073    7888.8063    2.2160778  0.026843379   0.10381372 
   32100   -950.73963    43.253469   -907.48616    1549.1824   -2859.6478    2.1779481  0.087544838   0.11620974 
   32200   -952.91602    38.531464   -914.38456    1380.0573   -4701.6303    2.1827519  0.056589022   0.11356704 
   32300   -955.45576    40.454159    -915.0016    1448.9213   -891.58756     2.194766  0.089148529   0.10982889 
   32400   -953.37365     45.70416   -907.66949    1636.9573    1930.1517    2.1939095  0.089511857   0.10937938 
   32500    -953.9647    40.573204    -913.3915     1453.185    4162.7605     2.204199   0.10056343   0.10323382 
   32600   -956.57904    41.046876   -915.53216    1470.1503   -3563.3158    2.1918217  0.012955253   0.11312683 
   32700   -953.89831    42.646379   -911.25193    1527.4386   -6138.8675    2.1809675  0.029008624   0.11724902 
   32800   -951.58849    41.802265   -909.78623    1497.2055   -82.531037    2.1887327   0.04630188   0.10518642 
   32900   -957.42093    40.577244   -916.84369    1453.3297    5249.2099    2.2159764 0.0082888865   0.09422923 
   33000   -954.75428    41.751836   -913.00244    1495.3994    2956.1537     2.205417   0.46038931   0.10745013 
   33100   -953.73207    41.988355   -911.74371    1503.8706   -4767.9581    2.1820427  0.076138005   0.10900435 
   33200   -957.16495    37.245557   -919.91939    1334.0008   -4352.3595    2.1933246   0.12030933   0.10686979 
   33300   -957.55243    43.030942   -914.52148    1541.2123   -327.20044     2.201801   0.21281932   0.10790759 
   33400   -952.63774    41.593577   -911.04417    1489.7311    11272.396    2.2198532  0.014693192   0.10720119 
   33500   -953.85356    36.079969   -917.77359    1292.2536    3759.1348    2.2079253  0.063122526    0.1168867 
   33600   -952.94289     37.28128   -915.66161    1335.2802   -12468.398     2.161769   0.26928592   0.10787508 
   33700   -952.60813    40.621737   -911.98639    1454.9233   -9395.1282    2.1672332   0.01967836   0.11488307 
   33800    -952.8769     38.39356   -914.48334    1375.1181    8428.6353    2.2140152   0.32834703   0.10090492 
   33900   -958.69744    41.080552   -917.61689    1471.3564     10362.18    2.2294957   0.06349681  0.096185595 
   34000   -950.94919    42.076915   -908.87227    1507.0425   -4233.3118    2.1781042  0.092932574   0.11171757 
   34100     -951.294      37.7051    -913.5889    1350.4599    -8029.996    2.1721835   0.16067783   0.11210702 
   34200    -955.3717    39.628391   -915.74331    1419.3453   -2319.0345    2.1929101  0.051957954   0.11309509 
   34300   -948.75455    39.976145    -908.7784    1431.8006    9308.8252    2.2039341   0.11781898   0.10503278 
   34400   -952.83413    41.896031    -910.9381    1500.5639     4235.495    2.2022878   0.13462982   0.12031506 
   34500    -954.8399    39.180025   -915.65987    1403.2864    -2880.383    2.1866404  0.040671412  0.093227133 
   34600   -952.96052    40.725002   -912.23552    1458.6219   -6873.6449    2.1785563   0.10581661   0.11162987 
   34700   -948.65247    40.922743   -907.72973    1465.7042    492.17446    2.1864647  0.088116284   0.11252006 
   34800   -955.94063    40.175732    -915.7649     1438.949    6748.3116    2.2165631  0.034673932  0.094877335 
   34900   -954.35422    41.127159   -913.22707    1473.0257    1858.9962    2.1997964  0.055600366   0.10848922 
   35000   -951.83365    41.495861   -910.33779    1486.2312   -7298.4846    2.1731095   0.12473674   0.11708469 
   35100   -956.47552    37.561262   -918.91426    1345.3082   -2775.0097    2.1957586  0.070229325   0.11493762 
   35200   -956.98254    42.469132   -914.51341    1521.0903    1962.1759      2.20491   0.27283987   0.10869625 
   35300   -949.80692     38.65012    -911.1568    1384.3071    6055.6658    2.2047259   0.11741742   0.12708549 
   35400   -955.70882    37.520134   -918.18868    1343.8351   -1087.4161    2.1984572   0.10681174   0.11096005 
   35500   -953.06144    37.354018   -915.70743    1337.8854    -5110.499     2.185616  0.054160346    0.1262354 
   35600   -952.59452    40.848962   -911.74556    1463.0617   -881.13522    2.1911183  0.074245524   0.12715223 
   35700   -956.41304     39.91295   -916.50009    1429.5371    2328.3761    2.2076214  0.061608833   0.10332925 
   35800   -957.15675    39.263221   -917.89352    1406.2662    302.31397    2.2045455  0.094316579   0.10802256 
   35900   -952.64888    41.741109   -910.90778    1495.0151   -1663.0072    2.1865457  0.043972194   0.11187612 
   36000   -954.47758    39.549165   -914.92841    1416.5077   -1765.9324    2.1931042   0.15161397   0.12180192 
   36100   -953.31071    36.344735   -916.96597    1301.7366    1560.6958    2.2023124  0.085838284   0.10923697 
   36200   -949.06261    40.477384   -908.58523    1449.7531    -681.6035    2.1871967   0.18288141   0.10850663 
   36300   -955.38901    41.385784   -914.00322    1482.2887    741.36554    2.1975645  0.050404815   0.11070889 
   36400   -956.04806    40.204134   -915.84392    1439.9663   -599.30199    2.2020908  0.091776514   0.11054332 
   36500   -950.39053    42.608811   -907.78172    1526.0931   -2080.5061    2.1839693   0.33393489   0.13479094 
   36600   -956.87167    43.457254   -913.41441    1556.4812   -1371.2669    2.1967534  0.031239402   0.11102823 
   36700   -950.08752    34.614263   -915.47325    1239.7574    1911.5339    2.1988975  0.082282032   0.12037853 
   36800    -948.5087    38.880664   -909.62804    1392.5644    878.31685    2.1884104  0.033815606   0.11927948 
   36900   -955.43658    43.485879    -911.9507    1557.5065    -3858.738    2.1864515   0.15113512   0.11373896 
   37000   -956.91276    40.607667   -916.30509    1454.4194   -1682.9779    2.1965996 0.0074786657   0.11071108 
   37100   -953.15658    41.419855   -911.73672     1483.509    2914.2166    2.1996689  0.045911997   0.10470719 
   37200   -951.73742    39.978934   -911.75848    1431.9004    1266.4621    2.1953305   0.20046574   0.10942035 
   37300   -954.62096    36.070763   -918.55019    1291.9239    813.26168    2.1985275  0.069161803  0.099607549 
   37400    -952.4812    39.117933   -913.36326    1401.0625     -2001.88    2.1869487   0.18540581   0.11441423 
   37500   -951.32428    39.609477   -911.71481    1418.6678    136.35691    2.1897579  0.046730674   0.10557902 
   37600   -956.48678    36.861029   -919.62575    1320.2284    5033.3721    2.2135186  0.086715615  0.097906775 
   37700   -954.27353    40.627937   -913.64559    1455.1453   -1110.2965    2.1944948  0.067025327   0.10731609 
   37800   -956.27419    43.713276   -912.56091     1565.651   -6898.4482    2.1798169   0.06990178   0.11489515 
   37900   -955.80435    37.647148    -918.1572    1348.3843   -3788.6013     2.190329  0.020433576   0.11076462 
   38000   -955.22417    39.741383   -915.48279    1423.3922    3244.4136    2.2042901  0.028180435   0.10764358 
   38100   -952.58544    41.655644    -910.9298    1491.9541    6164.0234     2.205648   0.46356616   0.10424581 
   38200   -956.21229    40.234004   -915.97829    1441.0361   -2172.3396    2.1931942  0.024998649   0.09682735 
   38300   -954.30609    38.360712   -915.94537    1373.9416   -10471.616    2.1754296  0.014369771   0.12403726 
   38400   -950.85221    41.538972   -909.31324    1487.7753   -6390.9012    2.1731015  0.077280634   0.12748046 
   38500   -951.43312    36.931711   -914.50141    1322.7599    8512.9081    2.2154295  0.028280791   0.11184551 
   38600   -951.67775    36.768582   -914.90917    1316.9173    12181.644    2.2251792   0.10922091   0.10307742 
   38700   -950.84577    43.284246   -907.56152    1550.2847   -2126.0629     2.179539 0.0085388844   0.11228894 
   38800   -953.88733    39.652987   -914.23435    1420.2262   -10720.153     2.170231   0.20299156   0.11470926 
   38900   -955.44131    40.121631   -915.31967    1437.0113   -4868.0234    2.1881125  0.094868164   0.12478901 
   39000   -950.38782    41.207373   -909.18044    1475.8987    7900.5049    2.2093655  0.015172471   0.13032836 
   39100   -955.94136    41.691498   -914.24987    1493.2383    4262.7583    2.2110358  0.068814919    0.1073164 
   39200   -956.70799    40.089828   -916.61816    1435.8723   -6942.9715    2.1893888   0.04808055    0.1221628 
   39300   -951.27712    39.285881   -911.99124    1407.0778   -4856.8857    2.1813537  0.087870815    0.1198893 
   39400   -951.95722    39.881694   -912.07553    1428.4177     48.91961     2.194212   0.10008483    0.1063729 
   39500   -959.06112    40.370908   -918.69021    1445.9395    2838.3117    2.2145906  0.078986776   0.10155965 
   39600   -955.00291    42.235311    -912.7676    1512.7157    764.07043    2.1979564  0.074533513   0.10946124 
   39700   -951.32501    38.634917   -912.69009    1383.7626   -2159.1433     2.187159 0.0078756515   0.11101266 
   39800   -954.64899     34.82234   -919.82665    1247.2099    480.01137    2.2005117  0.044626929   0.10550508 
   39900   -954.51647    41.406986   -913.10948    1483.0481   -1553.5156    2.1947428  0.078335328   0.11789303 
   40000   -954.75568    42.385632   -912.37004    1518.0996    1019.7339    2.1978425   0.19727213   0.10503196 
   40100   -958.36703    40.188657   -918.17838     1439.412    188.88701    2.2037351   0.13573912   0.11522456 
   40200   -954.59339    41.236938   -913.35645    1476.9576   -1040.5264    2.1887412  0.087827858   0.11858829 
   40300   -950.98521    39.474903   -911.51031    1413.8479   -344.11497    2.1869985   0.06561036   0.11480464 
   40400   -954.04024     38.17623   -915.86401    1367.3341   -613.61655    2.1934426  0.034943017   0.10355307 
   40500   -953.71657     38.70652   -915.01005    1386.3272    2136.8641    2.1990914   0.15834691  0.098973405 
   40600   -948.33299     39.34637   -908.98662    1409.2443    1719.2382    2.1885443  0.069805578   0.12693252 
   40700   -953.78181    38.888565   -914.89325    1392.8474   -3331.0917    2.1872138   0.05013638   0.10909594 
   40800   -954.62622    39.494385   -915.13184    1414.5457   -2772.1161    2.1881083 0.0051603682    0.1095543 
   40900   -953.68074    46.327749   -907.35299     1659.292   -4018.3801    2.1843567   0.15044189   0.11109706 
   41000   -954.23188     39.79672   -914.43516    1425.3742    6395.4457    2.2123975  0.058852968    0.1120377 
   41100   -957.23642    42.309071   -914.92735    1515.3575    126.11917    2.1980947  0.026542994   0.11090174 
   41200   -949.57771    39.941798   -909.63591    1430.5704   -6554.9165    2.1713275  0.061065624   0.12735262 
   41300    -950.1043    36.380111   -913.72419    1303.0036   -3740.8861    2.1778089  0.056069008   0.12455674 
   41400   -955.04147    38.843373   -916.19809    1391.2288    3310.2284    2.2056291  0.071669076   0.11133828 
   41500   -951.34853    39.933122   -911.41541    1430.2596    11529.437    2.2192567   0.11553406   0.11966357 
   41600   -952.70056    38.966321   -913.73424    1395.6323    2376.0994    2.1983537  0.018765943   0.11090875 
   41700   -954.74152    35.429277   -919.31224    1268.9482   -6151.6538     2.180187   0.13455429   0.11300264 
   41800   -951.58271    38.019713     -913.563    1361.7283   -6026.2227    2.1772068   0.13519655   0.11310029 
   41900   -953.22409    41.318039   -911.90606    1479.8623    5081.6754    2.2058231  0.079760101   0.10677935 
   42000   -954.77375     35.68494   -919.08881    1278.1052    11136.724    2.2259957  0.040691463   0.10951661 
   42100    -952.0087    38.671382   -913.33732    1385.0686   -465.02177    2.1901904  0.034220479   0.10946519 
   42200   -952.85581    40.443698   -912.41211    1448.5466   -6306.2729    2.1762295  0.071837311   0.12215695 
   42300   -952.12459     35.87448   -916.25011    1284.8938   -20.142982    2.1947407  0.039398904   0.12055705 
   42400   -958.09038    39.852209   -918.23817    1427.3616    2158.3596    2.2111161   0.11180643   0.11154176 
   42500    -952.2021      41.7553    -910.4468    1495.5234    88.268763    2.1909732  0.056818527    0.1281241 
   42600   -954.14392    39.929869   -914.21405    1430.1431   -2253.1949    2.1886796   0.03233162    0.1187997 
   42700   -952.90799    36.718179   -916.18981     1315.112    242.86633    2.1963772 0.0077326683   0.11971273 
   42800   -949.13501    41.614439   -907.52057    1490.4783    1208.2798    2.1877237   0.07726364   0.11943088 
   42900   -951.97412    40.139383   -911.83474    1437.6471     5318.497    2.2021339 0.0050226221   0.11246108 
   43000   -955.16325    39.878241   -915.28501     1428.294   -967.84543    2.1968189  0.051152505   0.11353163 
   43100   -949.79153    38.483796   -911.30774      1378.35   -2601.2242    2.1809977  0.078137119   0.11209142 
   43200   -949.39864    40.762462   -908.63618    1459.9636   -2850.0127    2.1790937  0.095526653   0.11624739 
   43300    -952.0015    36.735844   -915.26565    1315.7447    4347.8268    2.2039093  0.028796554   0.10336505 
   43400   -950.32563    37.083687   -913.24195    1328.2032    8959.2249    2.2110582  0.010262395   0.11873394 
   43500   -951.82948    44.134528   -907.69495    1580.7387   -2160.5913     2.180143   0.33076862   0.12859248 
   43600    -956.3451    40.838953   -915.50615    1462.7032   -12889.039     2.169405   0.28480595    0.1272522 
   43700   -955.73461    40.360692   -915.37392    1445.5736   -9724.8358     2.175811  0.010642896   0.11922926 
   43800   -954.68856    43.671989   -911.01657    1564.1723    8629.4597    2.2149442    0.2148118   0.11911892 
   43900   -955.58526    40.018465    -915.5668    1433.3163    12745.827    2.2296029  0.092210876   0.12281716 
   44000   -954.84552    36.603421    -918.2421    1311.0018    -1708.931    2.1947034   0.23350216   0.11773361 
   44100   -951.78599     38.34007   -913.44592    1373.2023   -9283.1913    2.1695258  0.042111194   0.12591322 
   44200   -951.72413    39.450465   -912.27367    1412.9726   -2505.4088    2.1825036   0.21895331   0.11415076 
   44300   -959.84324    39.896285   -919.94695    1428.9403    5521.8551    2.2192877   0.12820579  0.093612701 
   44400   -951.27752    37.783329   -913.49419    1353.2618    6179.4958    2.2046391  0.054279278   0.11891654 
   44500    -951.8257    39.208609   -912.61709    1404.3102    -2139.485    2.1862021   0.12334518   0.11421505 
   44600   -955.26526    37.869325   -917.39594    1356.3419   -5910.1956    2.1837727     0.108185   0.12072882 
   44700   -952.34034    34.971113   -917.36923    1252.5384    1981.6174     2.200937  0.045615461   0.12552849 
   44800   -954.35871    43.240286   -911.11843    1548.7102    2082.4365    2.1986549     0.003524   0.13337468 
   44900    -957.1797    42.661978   -914.51773    1527.9973    -1125.958     2.195566   0.05710218    0.1131639 
   45000   -953.92095     36.35998   -917.56097    1302.2826   -2040.7309    2.1914914   0.08839079   0.10787166 
   45100    -952.0391    43.074988   -908.96412    1542.7898   -2996.0924    2.1808503  0.083200372    0.1180887 
   45200   -955.86893    43.795708   -912.07322    1568.6034    3387.5213    2.2056205  0.042519836   0.11188129 
   45300   -951.43007    36.172766    -915.2573    1295.5773    8117.6103    2.2112532  0.023132071   0.13140849 
   45400   -950.82582    39.367577   -911.45824    1410.0038    -3166.347    2.1802755   0.11038565   0.12699711 
   45500   -951.95587    42.631682   -909.32418    1526.9122   -14676.606    2.1529788   0.09355218   0.12133356 
   45600   -955.46952     39.44711   -916.02241    1412.8524    -4799.291     2.189479  0.071499719   0.13051264 
   45700   -951.72477     39.22193   -912.50284    1404.7873    19896.964    2.2412599   0.14101136   0.13165403 
   45800   -952.31546    44.577424   -907.73803    1596.6017    9584.5379    2.2129227    0.1281427   0.13059022 
   45900   -954.21817    40.036115   -914.18205    1433.9485   -9256.6954    2.1705017  0.052770607   0.12995028 
   46000   -951.98647     36.49314   -915.49333    1307.0519   -10774.213    2.1674983  0.017660813   0.12264172 
   46100    -952.6452    41.872568   -910.77263    1499.7235    801.40772    2.1942047 0.0089463895   0.12468934 
   46200   -954.03046    38.493514   -915.53695    1378.6981    8934.0288    2.2189986  0.052048598   0.11508831 
   46300   -953.24238    35.903659   -917.33872    1285.9389    3751.2877    2.2050706 0.0059143839     0.114401 
   46400   -954.66765    42.349579   -912.31807    1516.8083   -5559.7535    2.1773176   0.17559001   0.10641466 
   46500    -954.6051    41.128213   -913.47689    1473.0634   -7248.6872    2.1774954 0.0039911613   0.11775665 
   46600    -957.1944    38.072069   -919.12233    1363.6034    3964.8368     2.211759  0.030000146   0.11611996 
   46700   -951.32014    39.845564   -911.47458    1427.1236    5829.5949    2.2054265  0.019572935   0.11121382 
   46800   -951.11486    37.740113   -913.37475     1351.714    772.48948    2.1926145  0.057741427   0.12337239 
   46900   -955.73115     36.67629   -919.05486    1313.6117   -5398.5946    2.1857949 0.0091023487    0.1097677 
   47000   -950.96859    39.505265   -911.46332    1414.9353   -3501.6384    2.1794286   0.18263744   0.12422882 
   47100   -953.67511    41.445969   -912.22914    1484.4443    6703.0306    2.2115068  0.047451688   0.12117773 
   47200   -957.09329    40.671237   -916.42205    1456.6962     7708.524    2.2203247   0.11439908   0.11468596 
   47300   -953.94233    44.436315   -909.50601    1591.5476     -7525.04    2.1771361   0.01283133   0.12187194 
   47400   -952.86899    41.363736   -911.50525     1481.499   -12654.508     2.162991   0.04349163   0.10545581 
   47500   -954.73817    38.676971    -916.0612    1385.2688   -938.97343    2.1927335   0.12348827   0.10865754 
   47600   -954.64791    43.060331   -911.58758    1542.2649    11870.598    2.2232531  0.035372809   0.10554992 
   47700     -950.878    41.645772   -909.23223    1491.6005     8507.895    2.2053478  0.034344442   0.10989178 
   47800   -953.02981    36.342967   -916.68685    1301.6733   -8309.3305    2.1734354  0.033632184   0.11362247 
   47900   -950.84623    36.982982   -913.86325    1324.5963   -10620.985    2.1639532   0.19393532   0.10418774 
   48000   -950.55819    41.026302   -909.53189    1469.4133    2153.8389    2.1917539  0.080693228   0.10819423 
   48100   -955.63185    37.981406   -917.65045    1360.3562    8856.1687    2.2206598   0.04144615   0.11125252 
   48200    -952.1056    37.737059   -914.36854    1351.6046    2086.5527    2.1968752  0.095341734   0.11231311 
   48300   -950.69104    39.614442    -911.0766    1418.8457   -3345.9582    2.1794848   0.30191448   0.11064065 
   48400   -956.13829    38.001049   -918.13724    1361.0598    -3229.611     2.193176  0.055193312   0.10779895 
   48500   -954.09999    39.619151   -914.48084    1419.0143    316.76102    2.1968796  0.034612118  0.097918448 
   48600   -952.32917    41.414506   -910.91467    1483.3174    1614.5188    2.1978507  0.094536771   0.10385475 
   48700   -954.52427    37.243789   -917.28048    1333.9375   -110.89229    2.2001584  0.052229255   0.10481967 
   48800   -950.37414    36.696685   -913.67745    1314.3422   -1721.4325    2.1843203   0.22150122    0.1095775 
   48900   -950.74234    40.867648    -909.8747    1463.7309    -2071.757    2.1841613   0.12028184   0.10471139 
   49000   -952.00059    36.090758   -915.90983    1292.6401    2742.4399     2.200011  0.015671962   0.10373836 
   49100   -955.41363    41.535771   -913.87786    1487.6607    1247.3408    2.1996105  0.015998092   0.10686816 
   49200   -950.72359    41.927567   -908.79602    1501.6934   -241.11615    2.1824786  0.031229893   0.10340326 
   49300   -954.25772    37.806774   -916.45095    1354.1016   -1325.2309    2.1921951   0.08768388   0.10381385 
   49400   -950.20354    36.597518   -913.60603    1310.7904    3386.6106    2.1943738  0.018363141    0.1166438 
   49500   -950.26169     41.76408   -908.49761    1495.8379    3647.6521    2.1936849  0.088518988   0.11866201 
   49600   -958.31253    41.558691   -916.75384    1488.4816    2318.3027    2.2083766  0.014490732  0.099233072 
   49700   -951.87724    38.068554   -913.80868    1363.4776   -1095.6358     2.188056   0.16579915  0.098581656 
   49800   -952.38404    41.623189   -910.76085    1490.7917   -7341.5205    2.1720436   0.15691186   0.10200391 
   49900   -955.77297    36.850754   -918.92222    1319.8604    1801.0113      2.20419  0.028135766   0.10173606 
   50000   -955.38631    41.225858   -914.16045    1476.5607     7556.589    2.2162467  0.019626072  0.097978885 
   50100   -953.33869     42.16774   -911.17095    1510.2955    3340.3233    2.2010698  0.042288491   0.10252738 
   50200   -956.63055    38.795284   -917.83527    1389.5064    -6827.436    2.1855348  0.036177001   0.10602082 
   50300    -955.2041    39.831172   -915.37293    1426.6081   -9926.6642    2.1767935  0.061819105   0.11525443 
   50400   -951.93461    41.006674   -910.92794    1468.7104    3688.8083    2.1994502  0.069070421   0.11930076 
   50500   -956.69995    41.079735   -915.62022    1471.3271    9577.1819    2.2247883  0.071535328   0.11852871 
   50600   -952.76958    35.617847   -917.15173    1275.7021    4472.2162    2.2086204  0.016372665   0.11642848 
   50700   -950.83973    40.903301   -909.93643    1465.0079   -11769.796    2.1614253  0.093860199   0.11425879 
   50800   -955.82324    40.440659   -915.38258    1448.4377   -8991.8509     2.179198  0.078369268   0.11949476 
   50900   -952.58091    37.361036   -915.21987    1338.1368    7089.4378    2.2130366   0.17280505   0.10945593 
   51000   -950.04548     42.38344   -907.66204    1518.0211    9253.3666    2.2083602  0.027725443   0.11560898 
   51100   -953.52176    39.072949   -914.44881    1399.4513    1435.6069    2.1970739   0.19342214   0.10211559 
   51200   -953.72812    38.334233   -915.39389    1372.9932   -3705.9795    2.1853648    0.2791288    0.1046701 
   51300   -952.30228    44.347077    -907.9552    1588.3515   -2906.7706    2.1809336  0.038918976   0.11943205 
   51400   -953.21713    38.225251   -914.99187    1369.0899    3639.6652    2.2040248  0.042052186   0.12069952 
   51500   -952.94003    37.825019   -915.11501     1354.755    2896.5573    2.1992829   0.08795434   0.11574995 
   51600   -948.63424    38.703486   -909.93076    1386.2185    367.42002    2.1838682  0.017619911   0.12344551 
   51700   -955.83975    40.087461   -915.75229    1435.7875   -4750.9521    2.1883519  0.044793558   0.11906327 
   51800   -955.03565    38.620527   -916.41513    1383.2472   -666.83761    2.1929938  0.063641689   0.11238833 
   51900   -954.49904    43.374277   -911.12476    1553.5093    3357.8199    2.2006092  0.066474421   0.11223764 
   52000   -956.14452    40.421718    -915.7228    1447.7594    1093.7047    2.2038663  0.066148855     0.115639 
   52100   -952.84164    34.693256   -918.14839    1242.5866   -729.09386    2.1948275   0.05919181   0.10835594 
   52200   -951.24992    39.451638   -911.79828    1413.0146   -5390.8248    2.1781386   0.10698018   0.11709421 
   52300   -950.92382    36.132467   -914.79136    1294.1339    996.28786    2.1973312  0.098767672   0.12791053 
   52400   -956.03349    38.441527   -917.59196    1376.8361    11346.242    2.2293021  0.014070848   0.11791446 
   52500   -952.75894    43.042819   -909.71612    1541.6377    3080.1615     2.200116   0.22590064   0.10437898 
   52600   -954.02645    39.972459   -914.05399    1431.6685   -9824.6119    2.1706526   0.15273509   0.10763583 
   52700   -955.39582    38.257353   -917.13846    1370.2396   -9959.2941    2.1726235 0.0036725679   0.12077666 
   52800   -951.27841     41.53824   -909.74017    1487.7491    6501.1801    2.2026297  0.015893813   0.12182657 
   52900   -950.23504    38.974561   -911.26048    1395.9274    16052.557    2.2265833  0.048594446    0.1337094 
   53000   -954.32871    38.019621   -916.30909    1361.7249     1577.729    2.2016752  0.025271352   0.12526512 
   53100   -947.54016    36.625403   -910.91475    1311.7891   -5144.3572    2.1696287  0.072392204   0.11599125 
   53200   -952.80149    42.285039   -910.51645    1514.4967   -5618.7481    2.1782953  0.056200014   0.12257127 
   53300   -955.43901    39.097771   -916.34124    1400.3404    5716.3293     2.210417  0.027343178    0.1178565 
   53400   -952.59296    40.872396   -911.72057     1463.901    4928.1743    2.2062878   0.07265818   0.10494936 
   53500   -952.06109    40.801118   -911.25998    1461.3481   -1853.3134    2.1861873   0.12518857   0.11525334 
   53600   -956.83982    38.776249   -918.06358    1388.8246   -4934.6541    2.1896604   0.29868917   0.10179654 
   53700   -950.14766    37.511404   -912.63625    1343.5224    2708.1507    2.1920109   0.29275511   0.10625915 
   53800   -950.96398    39.443911   -911.52007    1412.7378    3238.1584    2.1987378  0.040960075   0.12701554 
   53900   -956.47161    37.660821   -918.81079     1348.874    4576.7118    2.2095389  0.060410356   0.10718871 
   54000   -951.42072    38.852985   -912.56774     1391.573   -2828.3605    2.1862748   0.05833552   0.12265117 
   54100   -955.19266    42.575816   -912.61684    1524.9113   -6221.9806    2.1818386  0.093721778     0.120523 
   54200   -957.51101    38.631601   -918.87941    1383.6439    1783.4003     2.205417  0.075717952   0.12005778 
   54300   -952.43588    40.276651   -912.15923    1442.5636      5550.85    2.2081931   0.05526448   0.11979098 
   54400   -954.64376    42.705956   -911.93781    1529.5725    1832.8833    2.1998893   0.14134574   0.11622892 
   54500   -957.89471    40.139784   -917.75493    1437.6615   -8587.4719    2.1832499   0.20583126    0.1242421 
   54600   -953.78166    41.890506   -911.89115     1500.366   -9000.2903    2.1707304  0.029093509   0.11552934 
   54700   -952.50464    41.564808   -910.93983    1488.7007    4569.3654    2.2033165  0.019521574   0.12809593 
   54800   -955.79725    40.717601   -915.07965    1458.3568    11356.108     2.226784   0.16341503   0.12227418 
   54900   -955.86688     42.25699   -913.60989    1513.4921    322.89461    2.1968316 0.0094024246   0.11022066 
   55000   -951.77341    43.018051   -908.75536    1540.7506   -12694.165    2.1556076   0.16046486   0.13495426 
   55100   -953.29224    36.747045    -916.5452    1316.1459   -5362.6745    2.1843968   0.17252595   0.11474103 
   55200   -952.77913    39.113607   -913.66552    1400.9075    7833.5171       2.2131  0.083353029   0.11712096 
   55300   -952.27083    44.122107   -908.14872    1580.2938    6919.5206    2.2052717 0.0070208982   0.11817286 
   55400   -954.49246    38.514335   -915.97812    1379.4438   -2943.3824    2.1919264  0.033246938   0.11578027 
   55500   -957.22387     41.94993   -915.27394    1502.4944   -8532.8853    2.1774605   0.04644663   0.10712633 
   55600    -953.1239    43.018753   -910.10515    1540.7757   -3752.4327    2.1841866   0.17541119   0.10995651 
   55700   -955.70334    38.592406   -917.11093      1382.24    5567.2474    2.2148449  0.037280424   0.11723794 
   55800   -955.89886    39.828215   -916.07064    1426.5022     500.1917      2.20558  0.066647688   0.12629507 
   55900    -954.3739    42.994765   -911.37913    1539.9166   -4636.0903    2.1851401   0.18182536   0.11845575 
   56000   -956.65283    40.031912   -916.62092    1433.7979   -5257.5369    2.1903082  0.021735657   0.10576869 
   56100   -956.34215    39.208295   -917.13386    1404.2989   -529.37626    2.2018966   0.14623254   0.10603568 
   56200   -952.36544    41.534987   -910.83045    1487.6326    4693.2849    2.2010653   0.06783972   0.10991725 
   56300   -954.33652     38.80154   -915.53498    1389.7305    1991.3424    2.2040601  0.031466331   0.12815614 
   56400   -954.99981    36.726433   -918.27338    1315.4076   -3654.2161    2.1943522   0.10985926   0.11651926 
   56500    -951.3507    40.996849   -910.35385    1468.3585   -7019.3782    2.1738159     0.152322   0.10791009 
   56600   -955.26063     40.67706   -914.58357    1456.9048    359.06234    2.1987149  0.049225584   0.10510771 
   56700   -954.62093    38.797863   -915.82307    1389.5988    12602.927    2.2309155   0.27483204   0.12179634 
   56800   -951.20262    43.577202   -907.62542    1560.7774    2718.2754    2.1964843   0.46057007   0.12951876 
   56900   -950.12517     37.65525   -912.46992    1348.6745   -14492.207    2.1557087    3.8910262   0.14699047 
   57000   -949.12166    33.934455    -915.1872    1215.4091   -8827.8017    2.1621183    6.0286619     0.137919 
   57100   -950.85482    39.838129   -911.01669    1426.8573    6944.8043    2.2039858     6.234194   0.13247443 
   57200   -948.70545    41.435237   -907.27021    1484.0599    12004.772    2.2121151    5.2088274   0.13511746 
   57300   -951.59283      38.0134   -913.57943    1361.5021    1336.1403    2.1968846    4.6791373    0.1219047 
   57400   -953.41306    40.748626   -912.66443     1459.468   -7027.7808    2.1766358    5.3293227    0.1214196 
   57500   -948.31059    41.827092    -906.4835    1498.0947   -591.24922    2.1798571    4.7051634   0.13468482 
   57600   -952.82964    45.137722   -907.69192    1616.6695    32.004108    2.1913898    5.8531654   0.14134546 
   57700   -952.72206    40.187063     -912.535    1439.3548   -756.47424    2.1927137    6.0295856   0.13399864 
   57800   -951.01396    37.810976   -913.20299    1354.2521    110.24643    2.1901277    7.2182875   0.13238014 
   57900   -956.50434    42.378999   -914.12534     1517.862    -1552.214    2.1924672    5.5725576   0.11101775 
   58000   -948.55966    42.960482   -905.59918    1538.6887    4332.1741    2.1907774    4.5813996    0.1256871 
   58100   -947.84617    39.760612   -908.08556    1424.0809    7336.6801     2.202782    5.2471234   0.14975999 
   58200   -953.74007     41.60985   -912.13022    1490.3139   -2354.8551    2.1873501    3.8735974   0.13183171 
   58300   -952.13576    37.100835   -915.03492    1328.8174   -9507.7412    2.1728846    5.3907643   0.13219998 
   58400   -951.38998     42.24951   -909.14047    1513.2242   -1334.7236    2.1844678    5.1019534   0.13844222 
   58500   -952.53402    44.052164   -908.48185    1577.7887    12491.158    2.2186756    5.7248064   0.10770031 
   58600   -952.03985    38.754892   -913.28496    1388.0597    4812.3324    2.2064946    5.7797081   0.13451181 
   58700   -952.69163    39.245204   -913.44643    1405.6209    -10363.14    2.1691027    4.1380857   0.13733271 
   58800   -947.46194    41.591781   -905.87016    1489.6668   -10473.318    2.1535233    5.2097341   0.13698418 
   58900   -952.39768    40.290676     -912.107    1443.0659    1466.8313    2.1975525    5.4286389   0.14081588 
   59000     -953.269    39.815675   -913.45332    1426.0531    6352.2365    2.2104059    5.0610029    0.1128223 
   59100   -955.08725    42.311633   -912.77562    1515.4493    1082.7526    2.1971266    4.4537221   0.12911351 
   59200   -948.63053    41.473439   -907.15709    1485.4282   -1321.1103    2.1769907    4.6409635   0.15113663 
   59300   -950.21231    42.950256   -907.26205    1538.3224   -3489.1241    2.1763413    4.8051727   0.13519787 
   59400   -952.49381    39.866785   -912.62702    1427.8837    141.91519    2.1968087    7.1866351   0.14363526 
   59500   -949.14247    36.432494   -912.70997    1304.8798    6426.5606    2.2030812     14.48048   0.14582087 
   59600   -950.61784     40.14437   -910.47347    1437.8258    3733.5022    2.1977339    16.393589   0.15130969 
   59700   -947.86935     43.20838   -904.66097    1547.5675   -5777.7507    2.1701003    17.136109   0.15166688 
   59800   -950.37124    37.082882   -913.28836    1328.1743   -2490.5971    2.1855755    13.700371   0.12799764 
   59900   -952.38103    38.309744   -914.07128    1372.1161    2376.6579    2.2032527    14.373213   0.12843021 
   60000   -952.89667    39.777714   -913.11896    1424.6935    5969.3709    2.2105233    15.335545   0.12195663 
   60100   -949.21187    44.808117   -904.40376    1604.8643   -3053.3998    2.1769116       15.725    0.1394397 
   60200   -954.69224    42.581769   -912.11047    1525.1246   -5996.0212    2.1838491    16.941002   0.13400296 
   60300   -952.84021    39.327163   -913.51304    1408.5564    57.588814    2.1948484    19.484231   0.13660682 
   60400   -949.49693    40.677746   -908.81918    1456.9293    8226.1327    2.2089033    30.045942    0.1334453 
   60500   -950.13907    43.621927   -906.51714    1562.3792    4585.6138    2.1985874    30.429345   0.13767725 
   60600   -954.56032    40.469594   -914.09073    1449.4741   -10536.124    2.1722483    32.930648   0.12281933 
   60700    -952.1405    37.922106   -914.21839    1358.2323   -6507.3247    2.1757015    32.233398   0.11688653 
   60800   -953.82969    42.978717   -910.85097    1539.3418    4690.8987    2.2088936    34.077792   0.12790812 
   60900   -947.75304    43.004201   -904.74884    1540.2545    11196.584    2.2132864    28.709886    0.1187191 
   61000   -954.22198    40.213229   -914.00875     1440.292    1802.1068    2.2048016    32.592837   0.12938718 
   61100   -953.12503    38.957351   -914.16768     1395.311   -10784.399    2.1696507    32.002334   0.12231845 
   61200   -956.57765    43.377776   -913.19988    1553.6346   -9144.6224    2.1780333    32.653232   0.11509067 
   61300   -956.02601    36.420553   -919.60546    1304.4521    6034.1365    2.2182209    33.789289   0.12375026 
   61400   -953.88178    35.593211   -918.28857    1274.8197    9731.0192    2.2233123    31.265025    0.1163781 
   61500   -954.50106    40.889458    -913.6116    1464.5121   -957.83167    2.1955555    33.424441   0.12491597 
   61600    -952.3175    38.918584   -913.39892    1393.9225   -6520.7624    2.1761733    35.215387   0.12291802 
   61700   -956.60858       36.627   -919.98158    1311.8463   -3843.1172    2.1945001    32.570451   0.10757121 
   61800   -957.85721    40.614283   -917.24293    1454.6563    3573.8722    2.2128897    32.149329   0.11069174 
   61900   -956.84434    44.283413   -912.56092    1586.0713    5122.2591    2.2096016    32.402892    0.1092226 
   62000   -954.35256    39.954636   -914.39792    1431.0301   -2769.3744    2.1917505    32.715934   0.12664278 
   62100   -956.07171    34.802582   -921.26913    1246.5023   -5535.6165    2.1873479    31.309891   0.11396676 
   62200   -953.46449    38.278576   -915.18592    1370.9998   -3683.0091    2.1865579    30.929989   0.11458213 
   62300   -953.02532    40.275453   -912.74986    1442.5207    7592.5012    2.2136986    29.509142   0.11398949 
   62400   -955.57843    40.544782   -915.03365    1452.1671    7073.8286    2.2158753    32.572626   0.12232463 
   62500   -958.61465    37.774784   -920.83987    1352.9558   -5729.1305    2.1891737    31.644288   0.11443477 
   62600   -956.49698    39.153795   -917.34319    1402.3469   -14149.409    2.1668328    30.441752   0.11433466 
   62700   -954.03385    39.746207   -914.28764     1423.565    2529.7226    2.2024529     32.61281   0.11813879 
   62800    -955.5704    43.187783   -912.38262    1546.8298    20357.776    2.2473552    31.497741   0.11074406 
   62900   -955.51527    40.564344   -914.95093    1452.8677    5723.5754     2.214147    33.376475   0.11160715 
   63000    -952.1424    46.120965   -906.02143    1651.8857   -17456.405    2.1416178    33.204096   0.11973303 
   63100   -952.34272    42.626853   -909.71586    1526.7393   -8221.6783    2.1715918     31.93871   0.11886559 
   63200   -954.92324     41.50414    -913.4191    1486.5278    3817.5496    2.2046212    32.166276   0.11421708 
   63300   -956.44544    41.503221   -914.94221    1486.4949    4944.9531    2.2098141    29.579725   0.11644936 
   63400    -950.3257    41.979939   -908.34576    1503.5692    345.72898    2.1872807    32.841273   0.12820609 
   63500   -954.12474    44.155912   -909.96882    1581.5046   -7083.1653    2.1752582     31.70424   0.12135648 
   63600   -955.46246    40.530452     -914.932    1451.6538    -4517.904    2.1853425    34.083309   0.11461575 
   63700   -956.48619    43.238432   -913.24776    1548.6438    2927.7045    2.2028212    30.201583   0.11305256 
   63800   -949.89609    44.154466   -905.74162    1581.4528    5784.2735     2.195255    34.271737   0.12371179 
   63900   -955.46423    41.255834   -914.20839    1477.6344    743.89543    2.1998019    29.582133   0.11838288 
   64000   -956.37857    41.731928   -914.64664    1494.6863   -7892.6154     2.178338    33.248244   0.10797324 
   64100   -952.50607    42.251286   -910.25478    1513.2878   -5144.8112    2.1749107    34.220642   0.10663544 
   64200   -948.66327     41.70271   -906.96056    1493.6398    4595.3773     2.195127    33.322026   0.12114838 
   64300   -956.58031    41.379771   -915.20054    1482.0733    8974.2674    2.2242832    33.810514   0.12090771 
   64400   -954.06337    40.207783   -913.85558     1440.097    790.84375     2.198131    28.604522      0.12146 
   64500   -947.71151     35.12844   -912.58307    1258.1733   -7803.8593    2.1662729    31.493809   0.13029896 
   64600   -957.46228    37.670123   -919.79215    1349.2072   -8210.1468    2.1829388    32.093795   0.11322252 
   64700   -957.32965    39.450346    -917.8793    1412.9683    5204.4526    2.2139223    34.100371  0.099776162 
   64800   -950.28082     37.43128   -912.84954    1340.6527    12680.558    2.2207953    32.618223   0.12901818 
   64900    -953.6578    40.421723   -913.23608    1447.7595     720.9706    2.1961814    30.671834   0.12118464 
   65000   -955.82329    35.220247   -920.60305    1261.4615   -7661.1282    2.1862095    32.895969   0.11103042 
   65100   -952.91265    36.796269   -916.11638    1317.9089   -1251.0844    2.1909125    32.056047   0.11773548 
   65200   -949.73694    37.323317   -912.41363    1336.7858    6283.0935    2.2020594    30.831217   0.11925262 
   65300    -952.6674    37.174885   -915.49252    1331.4696    3391.1796    2.2048041    31.855947   0.12829267 
   65400   -958.03064    37.169925   -920.86071    1331.2919    875.96171    2.2067571    33.018734   0.11310159 
   65500   -952.42896    40.053894   -912.37506    1434.5852   -3632.5015    2.1829309    32.529084   0.11390245 
   65600   -951.43542     37.85955   -913.57587    1355.9918   -223.46021    2.1924638    31.033106   0.12236759 
   65700   -956.04475    39.076631   -916.96812    1399.5832    3267.3022    2.2089537    32.614763   0.12277126 
   65800   -958.13448    37.163667   -920.97082    1331.0678     3922.199    2.2163736    30.886508   0.11568122 
   65900   -953.85738    42.035966   -911.82141    1505.5759   -5598.6161    2.1794343    32.486601   0.11521527 
   66000   -953.53636     40.34615    -913.1902    1445.0528   -5024.5807    2.1817159    31.925561   0.11803003 
   66100   -954.31516     39.85835   -914.45681    1427.5816    3172.3888    2.2033235    33.129467   0.11306435 
   66200   -954.94507    36.350944   -918.59413     1301.959    9247.0559    2.2240569    31.286406   0.12738792 
   66300   -957.91648    35.024596   -922.89189     1254.454    3216.7926    2.2131845    29.461357   0.10861804 
   66400   -953.12735    38.543428   -914.58392    1380.4858   -12690.285     2.161241    31.278521   0.11125648 
   66500   -954.07051    39.772819    -914.2977    1424.5181   -12196.958    2.1688975    28.109935   0.11725286 
   66600   -954.18568    42.675218   -911.51046    1528.4716    8400.4114    2.2167447    30.839141   0.11767243 
   66700   -955.92158    39.900068   -916.02152    1429.0757    11311.744    2.2291978    29.848828   0.12689949 
   66800   -953.79179    35.142439   -918.64935    1258.6747   -770.22382    2.1983957    31.439824   0.12143608 
   66900    -953.6927    39.308382   -914.38432    1407.8837   -7471.9381    2.1788556    33.294465   0.11515488 
   67000   -952.21326    40.103111   -912.11015     1436.348   -1652.6722    2.1879305    30.274536   0.11420481 
   67100   -956.28323    36.969417   -919.31381    1324.1104    3285.4709     2.212944    32.394465   0.12668869 
   67200   -955.67867    38.921151   -916.75752    1394.0145    1173.9347    2.2061044    33.762168   0.11914956 
   67300   -954.24026    41.582878   -912.65738    1489.3479   -2042.7597    2.1904274    30.288742   0.10557573 
   67400   -955.42972    40.341022    -915.0887    1444.8691    -4407.219    2.1890944    29.336762   0.12454566 
   67500    -954.1345    33.517342   -920.61715    1200.4696    2922.0567    2.2070487    27.062516   0.11777716 
   67600   -952.87545    40.370917   -912.50453    1445.9398     1637.264    2.1991593    27.739008   0.12117449 
   67700   -952.91236    39.642143   -913.27022    1419.8378    2235.7539    2.1991796    29.314964   0.11918287 
   67800   -953.60522    36.090313   -917.51491    1292.6241    -1973.731    2.1936853    30.015066   0.11494619 
   67900    -957.4126    36.933165   -920.47944     1322.812    -4112.331    2.1952542    30.790952   0.12220292 
   68000   -951.79794    39.454988   -912.34295    1413.1346    251.50927    2.1890772    43.933592   0.14572827 
   68100   -950.48736    38.188996   -912.29837    1367.7913    7157.6726    2.2029266    67.358302   0.14080499 
   68200   -952.51562    38.978406   -913.53721    1396.0652    4882.9006    2.2033566    89.731525   0.12503247 
   68300   -947.40671    42.538803   -904.86791    1523.5857   -4405.5488    2.1662358    84.326063   0.14339165 
   68400    -950.0788    41.271065   -908.80773    1478.1799   -964.10179    2.1869137    96.068487   0.12717923 
   68500   -951.47167    38.652897   -912.81878    1384.4066    227.38871    2.1910491    91.296749   0.13114225 
   68600   -954.12373    40.601208   -913.52252     1454.188   -2032.0178     2.190094    85.732316   0.14609828 
   68700   -949.28026    44.711888   -904.56837    1601.4177    4136.2402    2.1904063    87.143714   0.13092967 
   68800   -952.65607    41.796662   -910.85941    1497.0048    8518.1618    2.2126817    99.228064   0.12377005 
   68900   -954.80148    40.410778   -914.39071    1447.3675   -5012.8767    2.1846063    101.93097   0.13196256 
   69000   -951.50914    37.335148   -914.17399    1337.2096   -9784.1145    2.1668782    103.69278   0.13768551 
   69100   -948.66165    41.575301   -907.08635    1489.0765    1829.4038    2.1846746    89.946955   0.13080297 
   69200     -954.227    44.891718   -909.33528    1607.8585     9927.639    2.2185047    101.71436   0.12543675 
   69300   -953.88253    40.204685   -913.67785     1439.986    1937.0123    2.2016854    102.22895   0.11889367 
   69400   -951.84986    37.214388   -914.63548    1332.8844   -5412.7017    2.1759036    100.47809   0.12795209 
   69500   -950.56629    41.157279   -909.40901    1474.1045   -4199.9484    2.1763439    101.53929    0.1213747 
   69600   -951.10027     43.14072   -907.95955    1545.1441    3292.3363    2.1912016    95.972553   0.12197712 
   69700   -955.28841    41.330934   -913.95748    1480.3242    2218.8618    2.2041728    102.55467   0.13151137 
   69800   -953.29618    39.125306   -914.17087    1401.3266    1891.7973    2.1957323    99.941329   0.12121252 
   69900   -953.79292    44.491875   -909.30104    1593.5376   -3568.3997    2.1816241    102.39253   0.13554354 
   70000   -949.02164    40.472145    -908.5495    1449.5654   -1473.8466     2.179719    95.207619    0.1319574 
   70100   -951.61325    37.260791   -914.35246    1334.5464     276.7554    2.1925724    95.143414    0.1240082 
   70200   -953.50604    39.626992   -913.87905    1419.2951    3021.5448    2.1993381    91.801225    0.1185503 
   70300   -951.39836    42.357173   -909.04119    1517.0803    2111.1452    2.1901323    101.99646   0.11160824 
[...]
  186800   -954.61964    36.645111   -917.97453     1312.495   -11332.049     2.170481    102.84066   0.12408483 
  186900    -955.0787    40.120592   -914.95811    1436.9741   -7733.1193    2.1796574    99.263471   0.12370045 
  187000   -954.48869    44.333148   -910.15554    1587.8526     8341.481    2.2165118     94.79237   0.10395473 
  187100   -953.01289    36.050022   -916.96287     1291.181    14537.247     2.232214    95.739822   0.11997022 
  187200   -952.61896    36.047425   -916.57154     1291.088   -2292.0498    2.1905023    99.412898   0.11579636 
  187300   -951.31405    39.373409   -911.94064    1410.2127   -9092.8977    2.1707239    96.383061   0.11717487 
  187400   -954.58537    38.802176    -915.7832    1389.7532   -1592.2007    2.1937596    97.778722   0.11591781 
  187500     -957.783    39.814418   -917.96859    1426.0081    4473.1992    2.2144255    102.09497  0.090840489 
  187600    -956.7548    46.338189   -910.41661    1659.6659   -2884.7074    2.1939765    103.57307   0.10863725 
  187700   -955.26388    40.795827   -914.46806    1461.1586   -3481.9022    2.1897764    99.591546    0.1235627 
  187800   -954.51563    37.254543   -917.26109    1334.3226   -3988.6388     2.192425    98.794609   0.11249925 
  187900   -954.15419    45.417734   -908.73645    1626.6985   -2632.2285    2.1866478     102.3317   0.10366286 
  188000   -951.10948     38.44177   -912.66771    1376.8448    8384.6906    2.2085686    94.932892   0.10884503 
  188100   -954.20936    38.234918   -915.97445    1369.4361    2358.9784    2.2038818    100.01068   0.11516605 
  188200   -948.46709    39.443898    -909.0232    1412.7374   -4716.3282    2.1718258      94.7117   0.13470609 
  188300    -952.7323    41.086061   -911.64624    1471.5537   -4200.3493    2.1794265    99.580419   0.11227938 
  188400   -956.26248    40.648597   -915.61388    1455.8853    2079.8916    2.2057871    95.845732   0.10539323 
  188500   -952.89157    42.317711   -910.57386     1515.667    9421.8622     2.214728    98.874484   0.12198984 
  188600     -954.676    43.423612   -911.25239    1555.2763   -2348.6483     2.189931    103.84729   0.11500867 
  188700   -956.69668    39.294537   -917.40215    1407.3878   -12903.182    2.1698452    99.463958   0.11769399 
  188800   -954.33694    41.094146   -913.24279    1471.8433   -5485.9555    2.1819383    98.355562   0.11374582 
  188900   -953.20402    43.424438   -909.77958    1555.3059    10315.192    2.2187653    100.03466   0.10101227 
  189000   -957.63011    39.680148   -917.94996     1421.199    11379.127    2.2312277    103.85522   0.10717777 
  189100   -953.72424    39.709595   -914.01465    1422.2537   -6235.1162    2.1781102    98.804332   0.11854903 
  189200   -950.28675    38.180132   -912.10662    1367.4739   -9175.6858    2.1654953    97.757863   0.12631921 
  189300   -954.87297    37.371693   -917.50127    1338.5185    237.90611    2.2015697     93.54811   0.11522957 
  189400   -954.78275    38.737887   -916.04487    1387.4506    8442.3041    2.2169772    101.02654   0.11095731 
  189500    -954.3802    43.308653   -911.07155    1551.1589    1377.8008    2.1963339    101.82793   0.11896443 
  189600   -957.23068    41.134851   -916.09583    1473.3012   -6861.6404    2.1859428    99.235793   0.11609488 
  189700   -954.85354    39.108067   -915.74547    1400.7091   -4005.6734    2.1883681    100.20979   0.12183527 
  189800   -950.59685    41.270898   -909.32595    1478.1739    425.45602    2.1892257    98.972171   0.11962765 
  189900   -956.34577     41.88965   -914.45612    1500.3354    1252.9138    2.2029952    100.01113   0.11518581 
  190000    -955.2201    38.970633   -916.24947    1395.7867    267.11838    2.1993365    96.659122   0.10353941 
  190100   -948.91582    41.016797   -907.89902    1469.0729    -4896.874    2.1734067    100.79127     0.122013 
  190200   -953.20727    39.073257   -914.13401    1399.4624    -988.9435    2.1921103    100.03216   0.10934916 
  190300   -954.82367     39.59908   -915.22459    1418.2955    3237.0238    2.2046019     101.0563   0.11572148 
  190400   -951.70506    43.324368   -908.38069    1551.7218    2998.0075    2.1942359    95.880537    0.1278619 
  190500   -952.40311    38.529546   -913.87356    1379.9886   -2768.7819    2.1895034    106.45939   0.11747567 
  190600   -954.61424    38.659405   -915.95483    1384.6397   -7836.9174     2.176023    101.50447   0.13257561 
  190700   -954.35159    43.722651   -910.62894    1565.9868   -2941.5045     2.185413    101.13142   0.10788907 
  190800   -955.79065    41.318979   -914.47167     1479.896    9417.3049    2.2231815    98.356808   0.11319988 
  190900   -958.84823    41.787659   -917.06057    1496.6824    4734.0228    2.2175316    100.96239   0.10835475 
  191000   -954.14026    41.642449   -912.49781    1491.4815   -5939.0281    2.1785381     103.0378   0.10691076 
  191100   -953.06662    40.540989   -912.52563    1452.0312   -9573.7336    2.1671965    99.052772   0.11138496 
  191200   -955.51823    35.959553   -919.55868    1287.9408    2946.8137    2.2088847    97.940476  0.097222905 
  191300   -955.90693     43.66016   -912.24677    1563.7486    6744.0368    2.2143176    99.309517   0.10601757 
  191400   -951.93039    39.174484   -912.75591     1403.088    5051.5542    2.2001619    97.941897     0.102559 
  191500   -954.10697    34.947208   -919.15976    1251.6822   -4619.8534     2.186115    101.29458   0.11745042 
  191600   -951.04056    38.320236   -912.72032    1372.4919   -3725.9094    2.1753116      106.255   0.11236411 
  191700   -955.39217    43.530537   -911.86163     1559.106    2298.3645    2.2002465    97.217389   0.11318011 
  191800   -954.86635    38.610594   -916.25575    1382.8915    6356.1479    2.2137415    100.64154   0.11870301 
  191900   -953.93496    40.226058    -913.7089    1440.7515    779.24559     2.196058    100.86623   0.11587868 
  192000   -952.05315     42.18557   -909.86758    1510.9341   -5354.8683     2.174132    97.784704   0.13433246 
  192100    -951.9123    36.649972   -915.26233    1312.6691    433.74913      2.19042    100.21896   0.10496277 
  192200   -957.41319    42.633772   -914.77942    1526.9871   -418.92636    2.2015627    95.375553   0.10825934 
  192300   -950.23923    42.572522   -907.66671    1524.7934    1060.7063    2.1874866    100.18727   0.10760885 
  192400   -953.43183    38.238244   -915.19358    1369.5552    366.60196     2.198155    97.799129    0.1081904 
  192500   -956.65858    42.006028   -914.65255    1504.5036   -1805.2911    2.1954027    100.71245    0.1086707 
  192600   -953.00811    45.354169   -907.65394    1624.4219   -4315.1131    2.1808872    102.23683  0.097568478 
  192700   -957.15023    41.899875   -915.25036    1500.7016   -1828.2418    2.1987472     98.33904   0.10745793 
  192800   -955.25881    40.205293   -915.05352    1440.0078   -256.46745    2.1971444    97.587744   0.11063261 
  192900   -949.33088    39.105133   -910.22574    1400.6041    256.96239    2.1862131    108.22523    0.1213104 
  193000   -952.72798     38.00177   -914.72621    1361.0856   -746.22401    2.1923753    97.467429   0.11836556 
  193100   -956.52827    39.615016   -916.91325    1418.8662   -1208.3426    2.1985101    101.10291   0.10579192 
  193200    -954.3168    42.413164   -911.90364    1519.0857    3747.6328    2.2039834    102.11396   0.12448486 
  193300   -948.86072     35.41478   -913.44594     1268.429    5477.7276    2.2016078    97.377309   0.11412752 
  193400   -957.45903    38.046848   -919.41218    1362.7001    -4880.167     2.191739    96.441971   0.10663639 
  193500   -951.53908     38.55129   -912.98779    1380.7674   -6416.4878    2.1770488    107.09814    0.1187619 
  193600   -952.76753    39.954309   -912.81322    1431.0184    1318.6632    2.1962546    98.956927    0.1145215 
  193700    -957.3991    38.343694   -919.05541    1373.3321    8931.8104    2.2258524    100.11901   0.11167167 
  193800   -953.15698     41.39149   -911.76549    1482.4931    1192.4282    2.1952801    101.33452   0.10979111 
  193900   -951.33455    38.725944    -912.6086    1387.0229   -6348.2585    2.1747354    93.913092    0.1208905 
  194000   -953.46479    36.505721   -916.95907    1307.5025   -5838.6051    2.1838778    95.850237     0.110943 
  194100   -954.56525    39.682119   -914.88313    1421.2696    6313.1028    2.2126291    97.544213    0.1219458 
  194200   -951.95485     42.24413   -909.71072    1513.0315    8286.1797    2.2120111    96.191318   0.10562416 
  194300   -949.82174    35.024154   -914.79758    1254.4382   -928.41959    2.1869026    97.760075   0.11404266 
  194400   -953.53426    38.375654   -915.15861    1374.4768   -9391.6292    2.1725965     96.69892   0.12259019 
  194500   -950.70996    43.464752   -907.24521    1556.7498   -4080.7705    2.1770914    100.51799    0.1188494 
  194600   -955.47149    41.485552   -913.98594     1485.862    7530.0126     2.218143    100.49944   0.11508641 
  194700   -954.82755      39.7085   -915.11905    1422.2145    3700.9092    2.2090712    100.42167   0.10548715 
  194800   -950.71243     41.39845   -909.31399    1482.7423   -3644.6383    2.1793088     92.74297   0.12527553 
  194900   -952.37516    40.033401   -912.34176    1433.8513   -5224.6164    2.1793746    99.280821   0.10827935 
  195000   -957.24718    41.223466   -916.02372    1476.4751   -2320.7178    2.1965012    97.163372   0.10942881 
  195100   -955.12751    43.476225   -911.65128    1557.1607    2577.6781     2.202398    100.65281    0.1070321 
  195200   -953.87537    41.691626   -912.18374    1493.2429    -651.1233    2.1953089    100.00302   0.10447695 
  195300   -955.07591    36.483131   -918.59278    1306.6934   -575.64217    2.1986487    96.630939   0.12257693 
  195400   -952.36984    39.032864   -913.33698    1398.0156   -1966.0627    2.1894283    100.26881   0.12095288 
  195500   -948.84242    36.960143   -911.88228    1323.7783     1755.405    2.1901115    96.003317    0.1291347 
  195600   -959.12424    39.457119   -919.66712    1413.2109    2324.0135    2.2111736    103.80769   0.11033875 
  195700   -954.69025    41.099789   -913.59047    1472.0454   -14.145451    2.1954302    98.155353   0.11347819 
  195800   -953.02222    40.610809   -912.41141    1454.5319   -3530.0595    2.1867041    99.017954   0.11903598 
  195900   -954.57303     36.04735   -918.52568    1291.0854   -1206.3107    2.1961743    97.937087   0.11726665 
  196000   -951.40412    36.922544   -914.48158    1322.4316    4318.8059    2.2045478    96.691932   0.12038558 
  196100   -950.99511    39.753002   -911.24211    1423.8084    6601.7625    2.2064384    97.881174   0.11414672 
  196200   -952.95175    36.612967   -916.33878    1311.3437    171.79761    2.1926268    93.297504   0.11271729 
  196300   -951.34659    37.431503   -913.91509    1340.6607   -8292.0335    2.1708515    102.36135   0.11639097 
  196400   -947.93748    38.210676    -909.7268    1368.5678   -722.07126    2.1805837    94.927594    0.1304775 
  196500   -954.58606    39.905679   -914.68038    1429.2767    5787.8127    2.2150288    108.57745   0.12495615 
  196600   -954.43727     38.90982   -915.52745    1393.6087    5326.0001    2.2137756    96.043344    0.1237392 
  196700   -949.87508    42.156766   -907.71831    1509.9025   -6900.6918    2.1674111    97.165678   0.14473172 
  196800   -954.45371    39.558592   -914.89512    1416.8453   -7111.9581    2.1782837    97.676828   0.12409896 
  196900    -954.7846    39.717849   -915.06676    1422.5493     1171.895    2.2024124    95.271391   0.10590833 
  197000   -951.06664    42.233705   -908.83293    1512.6582    9749.3834    2.2124727    99.826242   0.12397183 
  197100   -954.10131    40.417268   -913.68404       1447.6    2183.2285     2.201456    98.954224   0.12978785 
  197200   -955.29425    38.805684   -916.48856    1389.8789   -8779.6726    2.1769263    100.86674   0.11223554 
  197300   -950.10043     38.24521   -911.85522    1369.8047   -5999.6404    2.1763128    100.95091   0.12570249 
  197400   -952.68085    40.572916   -912.10794    1453.1747    3450.2721    2.2027827    102.46428   0.11596073 
  197500    -955.9023    38.037018   -917.86528    1362.3481    8577.6456    2.2218609    98.998627    0.1064267 
  197600   -952.09838    39.580265   -912.51811    1417.6216   -288.50945    2.1935912    102.78201   0.12111149 
  197700   -951.76825    39.027752    -912.7405    1397.8326   -4599.9891    2.1793673    94.230678    0.1254216 
  197800   -955.68204    36.007131   -919.67491    1289.6448     41.13583    2.1998402    98.182338   0.11152126 
  197900   -951.57285    39.146364   -912.42648    1402.0808    2752.1905    2.1940698    96.910255   0.11714334 
  198000   -955.83922    43.135644   -912.70357    1544.9623    421.36545    2.1970198    99.418003   0.11218141 
  198100   -955.64653    37.130693   -918.51584    1329.8868    956.29466    2.2001953    96.051622   0.10270816 
  198200   -953.49683    41.069785   -912.42705    1470.9708   -1552.0931    2.1881166    94.819602   0.11472797 
  198300   -949.85934     38.27182   -911.58752    1370.7578     4507.637     2.197058    98.433102   0.11625748 
  198400   -953.87137    37.900314   -915.97105    1357.4518     3634.093    2.2053398    100.77063   0.10705708 
  198500    -951.9862     38.41834   -913.56786    1376.0056     209.7269    2.1931514    96.673046    0.1114552 
  198600   -952.03415    42.695221   -909.33893     1529.188   -4727.4985     2.177481    103.17971   0.12627814 
  198700   -957.67002    42.237283   -915.43274    1512.7863   -5083.9264    2.1898948    98.476651   0.11415451 
  198800   -955.93053    42.287418   -913.64311    1514.5819    5149.1468    2.2092992    97.734992   0.10805495 
  198900   -949.94102    42.963778   -906.97725    1538.8067    7638.8172    2.2043982    98.879119   0.12515013 
  199000   -954.35592    39.368548   -914.98737    1410.0386   -814.36315      2.19288    97.938148   0.11330553 
  199100   -956.21343    41.608599   -914.60483    1490.2691    -12272.67     2.168093    100.04713    0.1119592 
  199200   -950.92768    41.808174   -909.11951    1497.4172   -4510.6499    2.1786011    103.67858   0.12318128 
  199300   -955.26277    38.267228   -916.99554    1370.5933    12123.432    2.2280707    96.007182   0.10119942 
  199400   -956.17791    40.626966   -915.55095    1455.1106    6803.4663    2.2147352    94.195534   0.10086751 
  199500     -949.576    37.689741   -911.88626    1349.9098    -5172.524    2.1759255     101.5103   0.12707631 
  199600   -950.18764    36.598461   -913.58918    1310.8242    -7844.036    2.1687699     93.11991   0.11872283 
  199700   -955.60405    37.256996   -918.34706    1334.4105    3955.9477    2.2075312    97.587692   0.10456697 
  199800   -953.49988    42.063696   -911.43618    1506.5691    7326.9038    2.2127332      103.725   0.11443876 
  199900   -954.04304    40.032839    -914.0102    1433.8311    330.42847    2.1993765    100.51448   0.11304706 
  200000   -957.44312    37.689198   -919.75392    1349.8904   -4915.9585    2.1922849    100.34874   0.11570503 
  200100   -949.90844    38.204262   -911.70417    1368.3381   -2623.2726    2.1810172    108.06553   0.11533014 
  200200    -953.4096    40.469459   -912.94014    1449.4693    3037.8042    2.2018844    95.847062   0.10482378 
  200300   -958.80914    41.469603   -917.33954    1485.2908    1884.2182    2.2092833    100.47248   0.10377141 
  200400   -948.70459    39.331636   -909.37295    1408.7166    1274.5019    2.1841808     96.56726    0.1216891 
  200500   -955.48578     43.58759   -911.89819    1561.1494   -5055.6674    2.1860966    97.902609    0.1148019 
  200600   -954.25248    38.048731   -916.20375    1362.7676   -1323.3786    2.1954338     99.55985   0.11220743 
  200700   -952.36913    41.495373   -910.87376    1486.2138     2343.736    2.1979374     99.53233   0.11441844 
  200800   -951.92942    41.645456   -910.28396    1491.5892    1986.4808    2.1952082    107.40946   0.10408593 
  200900   -955.35217     39.15149   -916.20067    1402.2644   -4503.0651    2.1874332    98.525481   0.11789423 
  201000   -949.21288    36.939834   -912.27305    1323.0509   -1073.8383    2.1781278    99.935657   0.12486818 
  201100   -953.92803    45.568834   -908.35919    1632.1104    1192.7127    2.1925245    101.72351   0.10287952 
  201200   -955.83278    39.790025   -916.04276    1425.1344    12522.338     2.227953    98.053298   0.10163642 
  201300   -953.10682    39.787131   -913.31969    1425.0308    253.03305    2.1936566    99.711816   0.11342695 
  201400   -951.37026    40.129833   -911.24042    1437.3051   -14350.402    2.1511379    97.947971   0.13184064 
  201500    -956.9933    37.370036   -919.62326    1338.4592   -7527.4347    2.1835326    99.808655   0.10816778 
  201600   -953.76181    39.599625   -914.16218     1418.315    7892.7612    2.2130091    98.042144    0.1182836 
  201700   -952.61224     41.35825   -911.25399    1481.3025    7891.7144    2.2102394     99.79779   0.11333915 
  201800   -955.78737    37.711398   -918.07598    1350.6855   -1432.3317    2.1930503    96.638473   0.10785017 
  201900   -953.53449    38.159273   -915.37522    1366.7268   -7851.2248    2.1753898    97.995713   0.11260227 
  202000   -953.80405    42.108043   -911.69601    1508.1574   -3357.6016    2.1860293    99.709586   0.11930558 
  202100   -956.70588    41.044756   -915.66113    1470.0743    3021.5507    2.2084298    101.53723   0.10792912 
  202200   -954.36572     36.44163   -917.92409     1305.207    5530.9759    2.2104328    93.694698    0.1139223 
  202300   -951.39546    41.648775   -909.74669    1491.7081   -4643.7606    2.1754702     103.4653   0.12839804 
  202400   -953.20964    38.811004   -914.39864    1390.0694   -3785.6201    2.1808421    93.190943   0.10641029 
  202500    -953.0856    37.611919   -915.47369    1347.1225    3474.2173    2.2024528    93.998756   0.12348498 
  202600   -951.79197    44.522627   -907.26934     1594.639    4252.8873    2.1997477    99.719682   0.12012226 
  202700   -955.22921    41.615821   -913.61339    1490.5278    1050.3296    2.2037974    101.31851   0.12462234 
  202800   -955.68782    39.980665   -915.70716    1431.9624   -6978.9394    2.1852312    101.73814   0.12854884 
  202900    -952.0179    43.057206    -908.9607     1542.153   -7566.8498    2.1721874    96.156833   0.12645734 
  203000   -957.91311    44.448619   -913.46449    1591.9883    1521.3597    2.2044838    101.14952   0.11331454 
  203100   -955.30615    40.030491   -915.27566     1433.747    10937.213    2.2260144     98.58686   0.12313148 
  203200   -953.75306    42.006697   -911.74637    1504.5275   -430.74653     2.195515    105.20468   0.11006891 
Loop time of 144.066 on 1 procs for 200000 steps with 217 atoms

Performance: 359.835 ns/day, 0.067 hours/ns, 1388.253 timesteps/s
100.0% CPU use with 1 MPI tasks x no OpenMP threads

MPI task timing breakdown:
Section |  min time  |  avg time  |  max time  |%varavg| %total
---------------------------------------------------------------
Pair    | 140.61     | 140.61     | 140.61     |   0.0 | 97.60
Neigh   | 0.40827    | 0.40827    | 0.40827    |   0.0 |  0.28
Comm    | 0.84521    | 0.84521    | 0.84521    |   0.0 |  0.59
Output  | 0.066963   | 0.066963   | 0.066963   |   0.0 |  0.05
Modify  | 1.8488     | 1.8488     | 1.8488     |   0.0 |  1.28
Other   |            | 0.2909     |            |       |  0.20

Nlocal:    217 ave 217 max 217 min
Histogram: 1 0 0 0 0 0 0 0 0 0
Nghost:    953 ave 953 max 953 min
Histogram: 1 0 0 0 0 0 0 0 0 0
Neighs:    4232 ave 4232 max 4232 min
Histogram: 1 0 0 0 0 0 0 0 0 0
FullNghs:  8464 ave 8464 max 8464 min
Histogram: 1 0 0 0 0 0 0 0 0 0

Total # of neighbors = 8464
Ave neighs/atom = 39.0046
Neighbor list builds = 689
Dangerous builds = 5
Total wall time: 0:02:26
