LAMMPS (3 Mar 2020)
Reading data file ...
  orthogonal box = (0 0 0) to (17.469 17.469 17.469)
  1 by 1 by 1 MPI processor grid
  reading atoms ...
  217 atoms
  read_data CPU = 0.00101093 secs
Reading potential file library.meam with DATE: 2012-06-29
Reading potential file LiSi.meam with DATE: 2020-11-07
1 atoms in group Li
216 atoms in group Si
Neighbor list info ...
  update every 1 steps, delay 10 steps, check yes
  max neighbors/atom: 2000, page size: 100000
  master list distance cutoff = 6
  ghost atom cutoff = 6
  binsize = 3, bins = 6 6 6
  2 neighbor lists, perpetual/occasional/extra = 2 0 0
  (1) pair meam/c, perpetual
      attributes: full, newton on
      pair build: full/bin/atomonly
      stencil: full/bin/3d
      bin: standard
  (2) pair meam/c, perpetual, half/full from (1)
      attributes: half, newton on
      pair build: halffull/newton
      stencil: none
      bin: none
Setting up Verlet run ...
  Unit style    : metal
  Current step  : 0
  Time step     : 0.003
Per MPI rank memory allocation (min/avg/max) = 8.895 | 8.895 | 8.895 Mbytes
Step Temp E_pair E_mol TotEng Press Volume 
       0         1400   -951.04357            0    -911.9553   -116399.41    5330.9442 
    3200    1289.4811     -954.094            0   -918.09144    8404.6655      4545.41 
Loop time of 2.31228 on 1 procs for 3200 steps with 217 atoms

Performance: 358.712 ns/day, 0.067 hours/ns, 1383.918 timesteps/s
100.0% CPU use with 1 MPI tasks x no OpenMP threads

MPI task timing breakdown:
Section |  min time  |  avg time  |  max time  |%varavg| %total
---------------------------------------------------------------
Pair    | 2.2576     | 2.2576     | 2.2576     |   0.0 | 97.64
Neigh   | 0.007045   | 0.007045   | 0.007045   |   0.0 |  0.30
Comm    | 0.013481   | 0.013481   | 0.013481   |   0.0 |  0.58
Output  | 2.5335e-05 | 2.5335e-05 | 2.5335e-05 |   0.0 |  0.00
Modify  | 0.029277   | 0.029277   | 0.029277   |   0.0 |  1.27
Other   |            | 0.00481    |            |       |  0.21

Nlocal:    217 ave 217 max 217 min
Histogram: 1 0 0 0 0 0 0 0 0 0
Nghost:    957 ave 957 max 957 min
Histogram: 1 0 0 0 0 0 0 0 0 0
Neighs:    4192 ave 4192 max 4192 min
Histogram: 1 0 0 0 0 0 0 0 0 0
FullNghs:  8384 ave 8384 max 8384 min
Histogram: 1 0 0 0 0 0 0 0 0 0

Total # of neighbors = 8384
Ave neighs/atom = 38.6359
Neighbor list builds = 12
Dangerous builds = 0
Setting up Verlet run ...
  Unit style    : metal
  Current step  : 3200
  Time step     : 0.003
Per MPI rank memory allocation (min/avg/max) = 9.662 | 9.662 | 9.662 Mbytes
Step PotEng KinEng TotEng Temp Press Density c_msdli[4] c_msdsi[4] 
    3200     -954.094    36.002558   -918.09144    1289.4811    8404.6655    2.2187895            0 7.4183968e-32 
    3300   -958.34093    38.020897   -920.32003    1361.7707     6259.112    2.2251217   0.14316079  0.099660132 
    3400   -954.36023    39.866908   -914.49333     1427.888   -2180.1675     2.189441   0.07762571  0.084186382 
    3500   -954.31586    38.989634   -915.32623    1396.4673    -8405.201    2.1722147   0.55022692  0.094886528 
    3600   -957.23137    35.254025   -921.97735    1262.6713   -1492.7659    2.1977888   0.12152442  0.099666478 
    3700   -955.61933    39.599323   -916.02001    1418.3041    5767.3828    2.2134667   0.12657963  0.084847016 
    3800   -953.62254    39.809659   -913.81289    1425.8376    8256.9355    2.2138292   0.11181947   0.10710079 
    3900   -957.40971    39.726185   -917.68353    1422.8479   -3589.5535    2.1941321   0.12356709  0.093041504 
    4000   -958.06033    35.830048   -922.23028    1283.3024   -9829.8463    2.1824913  0.044156862   0.11466888 
    4100   -953.19218    39.132859   -914.05932    1401.5971   -5059.4385    2.1820504   0.21118053  0.095101281 
    4200   -955.59873    41.080968   -914.51776    1471.3713    9198.2556    2.2207502  0.057164426  0.094535258 
    4300   -956.04616    39.815977   -916.23018    1426.0639     8890.915    2.2235067   0.14855899  0.085383874 
    4400   -954.27585    41.528853     -912.747    1487.4129   -3406.0659    2.1859213   0.25067371  0.084434134 
    4500   -949.00417    38.885238   -910.11893    1392.7282   -11290.734    2.1588738   0.37804112   0.12517348 
    4600   -952.76176    36.920047   -915.84172    1322.3422   -4280.3347    2.1848219   0.12065928   0.09399148 
    4700   -952.92027     37.34177    -915.5785    1337.4468    9719.9016     2.217437   0.19313533  0.086085963 
    4800   -949.77909    41.493506   -908.28559    1486.1469     12619.82    2.2147071  0.066661982   0.10093249 
    4900   -952.60374     38.88202   -913.72172    1392.6129   -883.87666    2.1922928   0.41487263   0.10187193 
    5000   -954.52974    37.396521   -917.13322    1339.4078   -11945.612    2.1653382   0.16387099   0.10382112 
    5100   -950.70209    37.726282   -912.97581    1351.2186   -6470.5226    2.1741169  0.031072428  0.096263839 
    5200   -955.23822    45.914928   -909.32329    1644.5062    5038.9897    2.2064849   0.16349688   0.10301943 
    5300   -955.41987    38.392493   -917.02737    1375.0799    14299.367    2.2331435     0.232708  0.087911071 
    5400   -950.94788    36.062898   -914.88498    1291.6422    2509.8483    2.1949043   0.20658559  0.088405467 
    5500   -949.39633    36.307572   -913.08875    1300.4056   -11270.673     2.160551   0.13065234   0.10770402 
    5600   -958.04982    36.432406   -921.61742    1304.8767   -6402.8787    2.1928243  0.080767233  0.091455931 
    5700   -953.60315    37.306378   -916.29678    1336.1792    8104.3793    2.2169415    0.1372439   0.10029817 
    5800   -954.00834    40.925955   -913.08238    1465.8193    7693.3309    2.2188165   0.08504474  0.097808564 
    5900   -957.92301    39.072234   -918.85077    1399.4257   -1891.3395    2.1965816   0.10711269  0.097547114 
    6000   -957.50384    38.687491   -918.81635    1385.6456   -10090.524     2.177888   0.31460352  0.090766263 
    6100   -951.91754    38.335516   -913.58203    1373.0392   -3486.6014    2.1834352   0.13068213  0.099621722 
    6200   -953.08634    37.266306   -915.82003    1334.7439     7323.917    2.2142753   0.23235059   0.10454661 
    6300   -958.31801    38.024952   -920.29305    1361.9159    8541.1001    2.2274416   0.22471397  0.088216115 
    6400   -952.35395    40.676849    -911.6771    1456.8972   -3611.4794    2.1851353   0.26522926   0.10582854 
    6500   -955.16097    40.760081   -914.40089    1459.8783   -8814.7508    2.1788098   0.11851192  0.095978431 
    6600   -956.10529     38.73691   -917.36838    1387.4156   -1562.6501    2.1974832   0.12050003  0.088655154 
    6700   -952.99258    38.492376   -914.50021    1378.6573    7516.4058    2.2164433  0.070299823   0.10588268 
    6800   -953.05807    42.666382   -910.39169    1528.1551    4056.9486    2.2027694   0.14077524   0.10586446 
    6900   -955.22567     38.97649   -916.24918    1395.9965   -4098.7691    2.1886445   0.11750633   0.10120451 
    7000   -951.09814    34.919238    -916.1789    1250.6805   -4971.1419     2.181891   0.22901147   0.10909407 
    7100   -951.17982    42.612618    -908.5672    1526.2294    275.06824    2.1885671    0.2970166   0.10522676 
    7200   -955.31198    39.658179    -915.6538    1420.4121    10351.528    2.2227966   0.12514475   0.10315541 
    7300    -955.2522     38.83071   -916.42149    1390.7752    4201.8226    2.2107913   0.34023852   0.10549492 
    7400   -949.30086    36.994853   -912.30601    1325.0215   -4222.5595    2.1780888   0.21332897   0.12160959 
    7500   -952.65345    41.219354    -911.4341    1476.3278   -9472.9311    2.1705902  0.037529627   0.11601872 
    7600   -955.11244    36.983084   -918.12936    1324.5999    3044.8219    2.2097887  0.020921546   0.10141967 
    7700   -954.61888    40.779103   -913.83978    1460.5596    10345.848     2.223389   0.14654256   0.10259505 
    7800   -954.35956     40.69865   -913.66091     1457.678    2003.7583     2.202701  0.015696228  0.098458596 
    7900   -955.65992    34.187378   -921.47255    1224.4679   -3570.3358    2.1973538   0.11408135   0.11025932 
    8000   -955.47476    39.489557    -915.9852    1414.3727   -4606.2332    2.1885869   0.49633517   0.10702732 
    8100   -951.03684    37.489492   -913.54735    1342.7377    367.95445    2.1960715   0.23385203   0.10505478 
    8200   -957.01151    36.826535   -920.18497    1318.9929    2673.3227    2.2108007   0.15123695   0.09135304 
    8300   -957.32024    39.915273   -917.40497    1429.6203    281.69404    2.2028516  0.073937111  0.091617286 
    8400   -952.34224    38.683581   -913.65866    1385.5056   -355.17174     2.190362   0.13695776  0.098416875 
    8500   -955.82636    38.448815   -917.37755    1377.0971   -2411.2639    2.1917459   0.29764935   0.10285713 
    8600   -957.05444    36.248503   -920.80594    1298.2899     844.4611    2.2050758   0.14705971   0.10145716 
    8700   -954.63548    41.982649   -912.65283    1503.6662   -2308.7426    2.1915928   0.28150501   0.10724769 
    8800   -953.47042    38.322377   -915.14804    1372.5686    1179.7559    2.1979931  0.068130031  0.092293264 
    8900    -954.0266    35.556001    -918.4706     1273.487    1479.2384    2.2027281  0.080381665   0.10066581 
    9000   -951.78959    41.250115   -910.53948    1477.4295   -1113.1377    2.1847268   0.25302142   0.10525073 
    9100   -952.39248    39.238267   -913.15421    1405.3724    1474.0795    2.1983483   0.54720024  0.098159775 
    9200   -956.93563    40.179669   -916.75596      1439.09    3083.9217    2.2065301   0.24909504  0.090537845 
    9300   -954.86023    41.116731    -913.7435    1472.6522   -1065.1572    2.1930488    0.1049073  0.096701127 
    9400   -950.01119    39.782678   -910.22851    1424.8712   -5882.7999    2.1713777   0.12984117   0.11471786 
    9500   -957.44639    40.067309   -917.37908    1435.0657   -3088.4395    2.1924166   0.21367377  0.099285349 
    9600   -954.12412    39.534683   -914.58944     1415.989    5792.8526    2.2110744   0.25462106   0.11109331 
    9700    -949.4754    40.391955   -909.08345    1446.6933     7774.986    2.2050291  0.089835048   0.10794523 
    9800   -954.52154    37.145172   -917.37637    1330.4053    592.17803    2.1976872   0.28008026   0.11210191 
    9900   -956.01951    39.846882   -916.17263    1427.1708    -10671.16    2.1714471   0.22636383   0.10509256 
   10000   -953.65023    41.404649   -912.24558    1482.9644   -5689.0862    2.1776478   0.14742207   0.10059071 
   10100   -959.53131    39.815295   -919.71602    1426.0395     5905.009    2.2206512  0.073354627  0.092506067 
   10200   -956.03108    38.446232   -917.58485    1377.0046     6566.404    2.2161863   0.11173215  0.085955809 
   10300   -953.42509    39.818576   -913.60651     1426.157   -1583.2459    2.1871881   0.19420695   0.10998444 
   10400   -954.15456    37.834152   -916.32041    1355.0821   -7536.6775    2.1769517  0.085583791   0.10000632 
   10500   -957.22082    36.650342   -920.57048    1312.6823   -3665.0385    2.1979146   0.33606455      0.10072 
   10600   -954.53152    41.232566   -913.29895     1476.801      6672.27     2.210327   0.22615253   0.10273387 
   10700   -956.18803    41.051498   -915.13653    1470.3158    5512.5786    2.2138343   0.43978968  0.093446749 
   10800   -955.34906    34.504166    -920.8449    1235.8141    362.97253     2.200364     0.390048   0.11456961 
   10900   -950.26726    37.444866    -912.8224    1341.1393   -7971.4387      2.16702   0.22431707   0.10997998 
   11000   -954.00376    39.628202   -914.37556    1419.3385   -1405.6465    2.1918826   0.23465712   0.10446692 
   11100   -957.11513    40.251034    -916.8641    1441.6461     12755.68    2.2339541   0.30268966  0.099133597 
   11200   -956.81625    42.868088   -913.94816    1535.3795    14279.269    2.2349349   0.18485601  0.095378241 
   11300   -951.31218    40.284781    -911.0274    1442.8548   -12153.743    2.1614338    0.3689534   0.12013577 
   11400   -951.71972    34.221557   -917.49817    1225.6921   -18559.725    2.1502208   0.55897469   0.12183584 
   11500   -952.75145    37.150757    -915.6007    1330.6054   -221.60428    2.1946379   0.30468357   0.11124398 
   11600    -950.0984    40.185013   -909.91339    1439.2814    10161.509    2.2144611   0.21249869   0.11176221 
   11700   -956.09744    39.127766   -916.96967    1401.4147    5125.4414    2.2124035     0.303384   0.10749921 
   11800   -956.05163    38.810669   -917.24096    1390.0574   -6638.2253    2.1843436   0.36412099  0.094984203 
   11900   -953.86182    40.545166   -913.31665    1452.1808   -7922.1763    2.1751481    0.2354981   0.11386055 
   12000   -957.60609    41.545637   -916.06045    1488.0141   -233.11616    2.2018059  0.053037935   0.10166673 
   12100   -955.41694    36.022441    -919.3945    1290.1932    10486.974    2.2255874   0.27955672  0.091606094 
   12200   -952.21838     38.59703   -913.62135    1382.4056    5360.8079    2.2050464   0.11153643   0.11287719 
   12300   -955.80428    40.634449   -915.16983    1455.3786   -5463.1438     2.182244   0.11908263  0.095505416 
   12400    -958.8524    37.212875   -921.63953    1332.8302   -6929.8756    2.1884829   0.16424189  0.098275196 
   12500   -953.53061    38.928238   -914.60237    1394.2683   -23.947404    2.1959948   0.19061558    0.1030513 
   12600   -950.57423    36.822794   -913.75144    1318.8589    11799.305    2.2168081   0.18904398   0.10698949 
   12700     -955.343     35.89894   -919.44406    1285.7698    5878.7543    2.2155326   0.23072758  0.098299189 
   12800   -950.81033     37.02419   -913.78614    1326.0722   -3965.3538    2.1798508   0.30446775   0.11827922 
   12900   -951.49029    38.477868   -913.01242    1378.1377   -5011.4354    2.1757923  0.071075679   0.11083366 
   13000   -955.61992    38.716243   -916.90368    1386.6754    421.49513    2.1997384   0.16918494   0.09459689 
   13100   -955.26784    38.177355   -917.09049    1367.3744    8042.2572    2.2162379   0.10437972   0.10381676 
   13200   -948.81098    39.237611   -909.57337    1405.3489     1676.992    2.1880797   0.40034876   0.11132274 
   13300   -953.89395    38.005883   -915.88807    1361.2329    -5352.644    2.1808023    0.1363892   0.10205895 
   13400   -955.10743    38.114811   -916.99262    1365.1343   -7217.4044    2.1838968  0.012330614  0.099041732 
   13500   -953.18724    43.722007   -909.46524    1565.9637    1809.4095    2.1964859  0.029009553   0.10029633 
   13600   -956.62195    41.800173   -914.82178    1497.1306    14704.855    2.2350788   0.13783375  0.087191262 
   13700     -953.962    37.066034   -916.89596    1327.5709    930.21274    2.1992509    0.2595505  0.099420394 
   13800   -949.10514    35.397048    -913.7081    1267.7939   -17876.859    2.1443445   0.49065414   0.13346622 
   13900   -950.24531    39.503666   -910.74165     1414.878   -10353.536    2.1603197   0.24116697   0.11081428 
   14000   -956.25485    37.374821   -918.88003    1338.6305    11634.473     2.230174   0.11396904   0.10090248 
   14100   -952.45574    38.199973   -914.25577    1368.1845    11547.405    2.2213959   0.24940371   0.10383788 
   14200   -952.89221    39.450317   -913.44189    1412.9673   -1359.1887    2.1883545   0.19886549   0.10442513 
   14300   -956.59941    35.742467   -920.85694    1280.1655   -6310.9299    2.1873006   0.17856109   0.11521572 
   14400   -951.17035     35.69139   -915.47896    1278.3362   -2536.4369    2.1861207    0.1720489   0.11603166 
   14500    -952.6765    39.582219   -913.09429    1417.6915    5614.3156    2.2058006   0.18259404   0.11161702 
   14600   -958.37036    39.017218   -919.35314    1397.4553    6915.5899    2.2204186   0.35719955   0.08949199 
   14700    -955.6133    40.800183   -914.81311    1461.3146   -945.80748    2.1952854   0.12160748    0.1021476 
   14800   -953.82554    40.682065   -913.14348     1457.084   -6017.4515     2.175053   0.56538282   0.10878674 
   14900   -955.82792    37.646451   -918.18147    1348.3593   -4611.8519    2.1895387   0.16294294  0.098714621 
   15000    -953.8967    37.854249   -916.04245    1355.8019    5643.3753     2.209035   0.13421825   0.10664423 
   15100   -951.41431    40.565239   -910.84907    1452.8998    7701.2918    2.2054554   0.14509518  0.092856388 
   15200   -955.11419    38.147031   -916.96716    1366.2883   -2984.5531    2.1918517   0.02892652   0.10523696 
   15300   -955.78462    39.885394   -915.89922    1428.5502    -8259.722    2.1735008   0.24499427  0.099122991 
   15400   -951.92659    42.053775   -909.87281    1506.2137   -5284.8917    2.1732876   0.21481904    0.1149717 
   15500   -957.08643    39.837347   -917.24908    1426.8293    7153.7091    2.2197035    0.1335654   0.10199112 
   15600   -956.80591    41.151455   -915.65445    1473.8959    9649.8364    2.2216033   0.14505499  0.088038194 
   15700   -950.30074    39.538543   -910.76219    1416.1272   -2781.2216    2.1779023   0.22510253   0.11257003 
   15800   -951.90686    34.246617   -917.66024    1226.5896    -9351.363    2.1676316   0.37194259  0.090935006 
   15900   -954.92491    37.797361   -917.12755    1353.7644   -5202.0884    2.1846963   0.25208083  0.096396391 
   16000   -950.96656    39.203984   -911.76257    1404.1446    9122.4317    2.2103693   0.13419647  0.097522789 
   16100   -956.63295    38.904482   -917.72847    1393.4174    5240.3946    2.2160559   0.39248779  0.095526878 
   16200   -956.30423     37.65546   -918.64877     1348.682    -1362.182    2.1956606  0.069915401   0.10325283 
   16300   -952.17822    38.756899   -913.42132    1388.1316   -4152.4157    2.1823999  0.023925015   0.10883103 
   16400   -955.48358    38.309048   -917.17453    1372.0912   -942.81536    2.1985563   0.35793942   0.11487048 
   16500   -958.28263    38.628574   -919.65406    1383.5355    3843.1613    2.2119066    0.4126085  0.094681831 
   16600   -954.14861     41.54151    -912.6071    1487.8663    587.55988    2.1967827  0.056004283   0.10694685 
   16700   -956.53803    40.021947   -916.51608     1433.441    -3020.629    2.1929895   0.13641647    0.1003822 
   16800   -956.56241    36.848036   -919.71437     1319.763   -3071.3474    2.1951726  0.083350411   0.10363191 
   16900   -949.35882    37.917106   -911.44172    1358.0532   -518.10621     2.186297   0.30021838   0.11196076 
   17000   -955.09748    40.063847   -915.03363    1434.9417    4988.6587     2.209554   0.32834121    0.0970891 
   17100   -956.90284    39.127036    -917.7758    1401.3885    4225.9372    2.2107463   0.16026192  0.092143251 
   17200   -949.67386    40.055575   -909.61829    1434.6454   -3495.6021    2.1749287   0.12571513  0.097920068 
   17300   -950.91293    36.806132   -914.10679    1318.2622    -4277.522    2.1782051 0.0096323439    0.1019444 
   17400   -956.19996    39.274994   -916.92496    1406.6879    235.22926    2.2003918   0.15516983   0.10088662 
   17500   -951.75609    39.900559   -911.85553    1429.0933    10239.775    2.2134259   0.37777099   0.10149867 
   17600   -953.84947    42.365032   -911.48444    1517.3618    4166.8742     2.200968   0.25330347   0.10580286 
   17700   -952.67497    35.022575    -917.6524    1254.3816   -6663.7053    2.1796156   0.16860555   0.10552411 
   17800   -953.74088    38.674308   -915.06657    1385.1735   -11297.051    2.1703456   0.18267201   0.10729743 
   17900   -951.01511    40.664552   -910.35056    1456.4568    2243.5083    2.1961604   0.30631396   0.10646924 
   18000   -956.55628    37.978166   -918.57811    1360.2402    15369.994    2.2380946  0.098711287  0.086509682 
   18100   -952.85123    36.783181   -916.06805    1317.4402    3271.7214     2.203807  0.065999546  0.095350694 
   18200   -949.81172    36.515497   -913.29622    1307.8527   -8269.0518    2.1670504   0.08747451  0.096811232 
   18300   -956.83924    37.837625   -919.00162    1355.2065   -7273.7615    2.1841962   0.20933268    0.1018414 
   18400   -957.57655    39.129675   -918.44688    1401.4831     2141.779    2.2092024   0.15968042  0.081950531 
   18500   -956.49629    43.673002   -912.82329    1564.2086    3101.9346     2.204213    0.1253227  0.092846438 
   18600    -955.7244    38.507321   -917.21708    1379.1926    117.12983    2.1999366   0.10631928   0.10457876 
   18700   -957.13036    37.194142   -919.93622    1332.1593   -3269.2599    2.1952342   0.19363358  0.098907863 
   18800   -955.62986    42.915786   -912.71407    1537.0878    -5450.027    2.1831007   0.27371786   0.11150173 
   18900   -954.75666    38.667318   -916.08934    1384.9231    1140.8206    2.2000545   0.46712007   0.09390958 
   19000   -954.60971    35.744477   -918.86523    1280.2375    5967.5629    2.2130478   0.21305595  0.098004989 
   19100   -953.28263    42.794481   -910.48815    1532.7431   -1377.4934    2.1874019   0.22668686  0.098415836 
   19200   -953.38265    38.050686   -915.33196    1362.8376   -2512.9901    2.1892468  0.071884295  0.099697567 
   19300   -952.79742    35.109263   -917.68815    1257.4865   -91.961024    2.1950725   0.12037378  0.099503894 
   19400   -952.33753    42.348556   -909.98897    1516.7717    2112.8862    2.1949995   0.17702796  0.097589192 
   19500   -957.19374     42.34516   -914.84858    1516.6501    5532.0085    2.2144364  0.045572987  0.092963683 
   19600   -953.97532    36.536765   -917.43856    1308.6144   -371.47152    2.1978017   0.21303371   0.10029515 
   19700   -952.18899    40.473544   -911.71545    1449.6156   -8907.7988    2.1682205   0.10963605   0.11513715 
   19800   -954.29118    40.857594   -913.43358    1463.3708   -7498.8679    2.1777909   0.34115476   0.11068235 
   19900   -952.33411    34.567225   -917.76688    1238.0726    10792.937    2.2229431   0.22663001   0.10554917 
   20000   -956.42091    43.821479   -912.59943    1569.5265    10532.215     2.226503  0.098718497   0.10126708 
   20100   -955.49504    40.540648   -914.95439     1452.019   -2649.9552    2.1933729   0.15978291   0.10140297 
   20200   -955.10469    34.526529   -920.57816     1236.615   -9810.9991    2.1786443   0.15990258   0.10989597 
   20300   -952.66212    38.398656   -914.26346    1375.3006   -5318.0892    2.1823993  0.021468556    0.1024405 
   20400   -956.06515    42.236026   -913.82913    1512.7413    4771.7849     2.209067   0.23336944  0.096627651 
   20500   -957.47496    37.133251   -920.34171    1329.9784    6801.8845    2.2243918  0.046792889   0.10340529 
   20600   -954.17483    41.149809   -913.02502    1473.8369   -3003.9508    2.1896981   0.42172808   0.10033325 
   20700   -952.79014    38.595263   -914.19488    1382.3424   -5433.7196    2.1831997    0.2220558    0.1082716 
   20800   -955.84811    36.652249   -919.19587    1312.7506   -1704.4005    2.1981931   0.30844752  0.097159259 
   20900   -953.81173    39.979236   -913.83249    1431.9112    4602.2743    2.2051782  0.017688009   0.10102594 
   21000   -953.29936    40.832343   -912.46702    1462.4664    5096.9847    2.2055757    0.2468931   0.11635716 
   21100   -957.02075    39.201649    -917.8191    1404.0609   -2289.4484    2.1972345   0.30584007  0.093072473 
   21200   -955.16735    41.300919   -913.86644    1479.2491   -6071.3698    2.1832351   0.30679126   0.10432171 
   21300   -956.00594    44.617219   -911.38872     1598.027   -4402.2336    2.1873933   0.38746003  0.099246039 
   21400   -955.24419    38.166119   -917.07807     1366.972    2531.1587     2.207483   0.11371836  0.097695348 
   21500   -955.48073    40.869169   -914.61156    1463.7854    2484.2195    2.2037765   0.15814626   0.10735689 
   21600    -951.8039    41.946876   -909.85703     1502.385   -1099.6587    2.1836525   0.19914355    0.1113521 
   21700   -955.67019    37.939846   -917.73035    1358.8677   -4983.2388    2.1896437   0.11630902   0.10994463 
   21800   -954.57728    39.235288   -915.34199    1405.2657    336.23201    2.1982706   0.13097232   0.11404954 
   21900   -951.49731    41.919461   -909.57785    1501.4031    8519.5216     2.210679   0.17842182   0.10904577 
   22000   -956.60366     39.06355   -917.54011    1399.1147    5672.8983    2.2175545   0.13304092   0.10491014 
   22100   -955.41085    39.032304   -916.37855    1397.9956   -8657.5128    2.1780204   0.32794458   0.11400372 
   22200   -950.91772    38.341333   -912.57639    1373.2475   -10131.283    2.1649187  0.016626201   0.11912272 
   22300   -958.77792    38.671427   -920.10649    1385.0703    430.25233    2.2092017   0.13697123   0.10361457 
   22400   -956.82633    39.578465   -917.24787    1417.5571    10481.279    2.2277585  0.056432589  0.097326881 
   22500   -954.16207    41.400337   -912.76173    1482.8099    5367.3755    2.2083541  0.021910685   0.10757891 
   22600   -954.70957    37.109348   -917.60022    1329.1223   -6019.8166    2.1856963   0.52567969  0.097124994 
   22700   -954.15677    34.705898   -919.45087    1243.0394   -5635.0205    2.1839763   0.12161323  0.094912116 
   22800   -951.71048    38.794594   -912.91588    1389.4817   -1097.2042    2.1927983   0.34084443   0.10914878 
   22900   -955.84588    39.785883      -916.06     1424.986    6332.4054    2.2162123   0.23734031  0.095744071 
   23000   -959.03681    39.591721   -919.44509    1418.0319    3753.7931    2.2194775   0.29473148  0.095196584 
   23100   -953.68111    42.770629   -910.91048    1531.8888   -6723.6337    2.1775222   0.48647253   0.10753121 
   23200   -955.23146    39.823404   -915.40806    1426.3299   -8793.4091    2.1779711   0.21279371   0.10645004 
   23300   -954.50935    36.980747    -917.5286    1324.5163    2301.9184    2.2022955   0.14041313   0.10249629 
   23400   -953.36691    43.578461   -909.78845    1560.8224    5179.4929    2.2062496  0.052353219   0.10169776 
   23500   -952.96618    38.906844   -914.05934    1393.5021    5301.7285    2.2084817   0.15429806    0.1037548 
   23600   -956.09052     38.27683   -917.81369    1370.9372   -3726.1431    2.1911582   0.17510377  0.097867275 
   23700   -951.11011    39.407461   -911.70265    1411.4323   -4283.2417    2.1803641   0.18876414   0.10697925 
   23800   -951.49352    38.087602   -913.40592    1364.1598    440.19815    2.1913993   0.10549309   0.10182969 
   23900   -955.73874    37.890149   -917.84859    1357.0877    2235.1957    2.2084572   0.10062791   0.09818648 
   24000   -953.71637    40.774322   -912.94204    1460.3884    1844.3655    2.1996367   0.56802974  0.090832902 
   24100   -956.59752    43.329465   -913.26805    1551.9043   -2769.9978    2.1920899   0.37645044  0.096144743 
   24200   -955.64924    36.365367   -919.28387    1302.4756   -110.80017    2.2008143   0.34499802   0.10911032 
   24300   -956.08439    42.207456   -913.87694     1511.718   -2063.7069    2.1942468    0.1076381   0.10994709 
   24400   -953.97914    39.926794   -914.05234     1430.033    -847.3707     2.194021   0.20080918   0.10451116 
   24500   -957.55644    37.007181   -920.54926     1325.463    1585.2271    2.2094021   0.23403573  0.096750039 
   24600   -953.35318    39.684457   -913.66872    1421.3533   -316.26575    2.1938707  0.053734928   0.10260413 
   24700   -955.50099    41.093494   -914.40749    1471.8199   -103.87193    2.1946552   0.12389387   0.09057547 
   24800   -957.32644    37.187438     -920.139    1331.9192   -45.039534    2.2036158  0.028335814  0.093439027 
   24900   -952.24295    39.543274   -912.69967    1416.2967   -1091.4286    2.1888895   0.26532696   0.10904808 
   25000   -955.24542    40.770669   -914.47475    1460.2575    858.53317    2.1991867     0.160547    0.1004841 
   25100   -958.37343    39.469186   -918.90424    1413.6431    3783.6363    2.2111243   0.17515956    0.0888254 
   25200   -950.75444    39.451475   -911.30297    1413.0088   -114.57184    2.1889545   0.13257541   0.11073148 
   25300   -954.06594    39.554808   -914.51113    1416.7098   -3572.0393    2.1871121    0.1462585   0.10149415 
   25400   -956.42776    38.119548   -918.30821     1365.304   -2906.2403    2.1967373   0.36669204   0.10289749 
   25500   -951.81476    40.784705   -911.03005    1460.7602    3880.7889    2.2001964   0.21873054   0.12135679 
   25600    -952.4465    38.376131   -914.07037    1374.4938     6571.036    2.2119334   0.45497232   0.11125461 
   25700   -958.95999    41.120425   -917.83957    1472.7845   -3054.8572    2.1987892   0.33092353  0.096905977 
   25800   -951.51565    39.477929   -912.03772    1413.9563   -5743.6814    2.1767145  0.012789369   0.10702553 
   25900   -952.55016    38.678795   -913.87137    1385.3342   -3455.3081    2.1849553  0.071366137   0.10825562 
   26000   -955.05288     36.98313   -918.06975    1324.6016    5448.8265    2.2143025    0.3941931    0.1074699 
   26100   -953.28382    41.157418    -912.1264    1474.1094    8122.1475    2.2130396   0.15397855   0.10701378 
   26200   -953.65741    38.822014    -914.8354    1390.4637    685.36873    2.1966285  0.099470547  0.097952052 
   26300   -954.59426    34.920945   -919.67331    1250.7416   -7754.6149    2.1817948   0.26712124   0.10718953 
   26400   -953.51615    40.078681   -913.43747     1435.473   -7048.1923    2.1774839   0.19307774    0.1114907 
   26500   -953.00463    38.916346   -914.08828    1393.8424    6469.0046    2.2116035   0.40514638   0.10677499 
   26600   -956.95886    37.549992   -919.40887    1344.9045     11212.88    2.2339951  0.028428303   0.10280051 
   26700   -955.56649    43.164695    -912.4018    1546.0028   -1988.6785    2.1923365   0.17179281   0.10082734 
   26800   -955.10318    40.476294   -914.62689    1449.7141   -10711.224    2.1716959   0.51730168   0.12247039 
   26900   -957.06382    37.473856   -919.58996    1342.1776   -6769.3376    2.1880895   0.23762335   0.11104049 
   27000   -953.71287     40.96649   -912.74638    1467.2711    5078.3514    2.2072129    0.6406099   0.10349789 
   27100    -955.6453     42.47198   -913.17332    1521.1923    8869.7923    2.2195558   0.28788161   0.10897946 
   27200   -955.95066    37.340979   -918.60968    1337.4184   -676.78065    2.2031636    0.0768762   0.10279345 
   27300   -952.40784    40.202869   -912.20497     1439.921   -3979.0856    2.1829219   0.27591484   0.12234981 
   27400   -954.22638    40.800551   -913.42583    1461.3278   -2698.1994     2.190677   0.17149024   0.11317734 
   27500   -955.28144    37.239389   -918.04205    1333.7799    2095.0331    2.2047739   0.38076496   0.10010084 
   27600   -950.20265    38.006802   -912.19585    1361.2658    3590.6711    2.1984986   0.42438562   0.11585045 
   27700   -951.68772    38.110346   -913.57737    1364.9744    624.84392     2.194161  0.094382045    0.1134399 
   27800   -955.57234    36.917425   -918.65491    1322.2483   -1731.6902    2.1984429   0.47011262   0.12087362 
   27900   -953.32004    40.515275   -912.80476    1451.1102   -1247.4871    2.1919603   0.27663079   0.11825133 
   28000   -954.61042    40.175763   -914.43466    1438.9501    713.26866     2.199037   0.10151205   0.10235882 
   28100   -956.97946    37.706481   -919.27298    1350.5094    1326.0504    2.2092001  0.063439505   0.10048998 
   28200   -952.76181    39.947039   -912.81477    1430.7581    1319.7849    2.1935975   0.58031058   0.10189272 
   28300     -955.101    39.857908   -915.24309    1427.5657   -3629.4143    2.1915066  0.093126171   0.11541851 
   28400   -956.07912    36.408478   -919.67064    1304.0197   -344.05112    2.2005869   0.33561328  0.090734497 
   28500   -951.54596    39.148813   -912.39715    1402.1685    2956.6077    2.1977418  0.050735176   0.10631223 
   28600   -955.94422    40.525963   -915.41826     1451.493    2325.5955    2.2063236   0.32786841   0.10418438 
   28700   -956.15724    36.419258   -919.73798    1304.4057    -937.0735    2.2008546    0.2506539    0.1042841 
   28800   -953.49566    41.485201   -912.01045    1485.8495   -8006.1677    2.1746233   0.25336945   0.11440158 
   28900   -954.03835    38.506224   -915.53213    1379.1533   -2314.2542    2.1924609   0.19817958  0.093722104 
   29000    -956.8818    38.715347   -918.16645    1386.6433    5581.0142    2.2166956   0.16006715   0.10303266 
   29100   -954.17008    43.726265   -910.44382    1566.1162    4629.0817    2.2038028   0.15272731   0.09012025 
   29200   -956.47551    41.074403   -915.40111    1471.1362   -3387.3965    2.1910776  0.085492822   0.10095786 
   29300   -956.95234    38.497898   -918.45444    1378.8551   -10486.639    2.1761811   0.53080391  0.096285202 
   29400    -952.6319    41.344001   -911.28789    1480.7922   -4926.3463    2.1769786   0.43668644  0.090504444 
   29500   -955.01319    39.554695   -915.45849    1416.7057    10096.499    2.2186757   0.14473819  0.084705658 
   29600   -954.78273    37.379072   -917.40366    1338.7828    8273.5069    2.2209702   0.13514949  0.096504058 
   29700   -954.72356    42.373541   -912.35002    1517.6666   -4314.1436    2.1814211   0.11613895   0.10655897 
   29800   -954.63952    39.830976   -914.80855    1426.6011   -9647.4899    2.1675506   0.19560773   0.10639026 
   29900   -958.58543    39.752097   -918.83333     1423.776   -3172.3148    2.1956483  0.029079819  0.090118089 
   30000   -950.29967    38.298696   -912.00097    1371.7204    9885.2043    2.2100294   0.14765206  0.098248061 
   30100    -954.4244    38.883841   -915.54056    1392.6782    4274.5964    2.2062836   0.25501622  0.099481693 
   30200   -959.75276    39.843066    -919.9097    1427.0341   -3202.9675    2.1961442    0.3517314  0.091104412 
   30300   -950.87797    38.145818   -912.73216    1366.2449   -1547.8575    2.1787998  0.070680148   0.10482658 
   30400   -953.57914    38.022142     -915.557    1361.8152     234.8861    2.1916685   0.21679845  0.093810511 
   30500   -959.62474    40.238053   -919.38668    1441.1811     1869.745    2.2066795   0.16124139  0.089530391 
   30600   -953.46797    41.736578   -911.73139    1494.8529    302.86085    2.1892675   0.54956077  0.093028491 
   30700    -954.5688     38.70594   -915.86286    1386.3064   -1154.2443    2.1901745   0.33808172  0.095194227 
   30800   -955.69858    37.003274    -918.6953    1325.3231   -1567.4001    2.1935034   0.22941843  0.099096775 
   30900   -955.18393    44.073516   -911.11042    1578.5535   -4170.3482    2.1856685  0.064310548  0.094598899 
   31000   -955.23186    39.259741   -915.97212    1406.1416     2045.337    2.2040695   0.10647117   0.10376579 
   31100   -955.17203    37.424901   -917.74713    1340.4242    2923.9597    2.2058731   0.13482425  0.096993358 
   31200   -956.61185    45.906239   -910.70561     1644.195   -7431.3593    2.1776999   0.16465228   0.10158781 
   31300   -955.74623    39.183471   -916.56276    1403.4098   -6027.5358    2.1839713   0.13142081  0.095232554 
   31400   -954.72584    37.452398   -917.27344    1341.4091   -489.74703    2.1964979   0.27196074  0.098311979 
   31500   -952.78613    42.070805   -910.71533    1506.8237    7341.6735    2.2083861    0.4592029   0.09924837 
   31600   -956.87088     40.07785   -916.79303    1435.4432      5252.99     2.212503   0.55790482  0.091157439 
   31700   -956.74242    38.905802   -917.83662    1393.4647   -7885.2156    2.1801344    0.1149913     0.100491 
   31800   -951.69862    39.334153   -912.36447    1408.8067     -9827.88    2.1608011   0.41263135   0.10487545 
   31900   -956.59868    38.770025   -917.82865    1388.6017   -571.22901    2.1981931  0.040730888   0.11203405 
   32000   -956.80726    39.262562    -917.5447    1406.2426    10559.625    2.2257798   0.12748245  0.087178838 
   32100   -950.98322    39.394286   -911.58894    1410.9605    6141.8744    2.2040844   0.15024781   0.10112948 
   32200   -954.96218    37.919295   -917.04288    1358.1316    -5717.047    2.1851162   0.40305944   0.10767732 
   32300   -957.60984    39.512233    -918.0976    1415.1849   -8294.9745     2.181641   0.19265482  0.098364003 
   32400   -951.85572    40.423277   -911.43245    1447.8152   -1247.0226    2.1875584   0.15446994   0.11555905 
   32500   -959.32104    42.492157   -916.82888     1521.915    2721.1898    2.2122376     0.212824  0.097574561 
   32600   -959.41638    41.635408   -917.78097    1491.2293    1527.9661    2.2107602  0.092099948  0.095179574 
   32700   -953.87162    43.057385   -910.81423    1542.1594   -4743.4188    2.1825307   0.51051406  0.096563255 
   32800   -955.24738    38.062459   -917.18492    1363.2593   -3941.2795     2.189662  0.058224022   0.10726478 
   32900    -957.0727    40.421722   -916.65098    1447.7595   -815.56603    2.1976972   0.20224501  0.099558523 
   33000   -951.17928    40.781644   -910.39764    1460.6506    2316.9814    2.1950654   0.26448763   0.11884838 
   33100   -956.47763    39.038382   -917.43925    1398.2133    3076.3683    2.2079634   0.35844583    0.1015923 
   33200   -953.42472    37.129999   -916.29472    1329.8619    1540.1831    2.1956952  0.079917068    0.1049034 
   33300    -950.1478    39.000354   -911.14745    1396.8513   -1810.6674    2.1850981   0.49788774   0.11366673 
   33400    -957.0211    38.445108   -918.57599    1376.9644    1153.7091    2.2048197   0.15165099  0.093335091 
   33500   -955.88986    39.845935   -916.04393    1427.1369    448.45104    2.2020434   0.36269871  0.091018486 
   33600   -955.80227    44.066198   -911.73608    1578.2914    -1618.536    2.1943719   0.32232719   0.11358431 
   33700   -957.71362     38.69722    -919.0164    1385.9941   -486.79985    2.2014992   0.10619714   0.10842357 
   33800   -956.80843    41.220767   -915.58766    1476.3784   -2125.8054    2.1952678   0.29998538   0.10218485 
   33900   -953.00822    40.881249   -912.12697    1464.2181   -992.26526    2.1916884   0.28626469   0.11500975 
   34000   -956.79672    37.762167   -919.03455    1352.5039    2066.6952    2.2053663    0.1034057  0.093504603 
   34100   -955.01001    40.489347   -914.52066    1450.1816    344.58589    2.1966777   0.14304987   0.11243327 
   34200    -952.2112    39.613904    -912.5973    1418.8264    -328.7196    2.1886874   0.11366212   0.10586258 
   34300   -959.12305    39.828393   -919.29465    1426.5086   -2267.6851    2.2001033   0.40503215  0.099681029 
   34400   -956.68552     42.81765   -913.86787    1533.5729   -2377.7621    2.1926589   0.25809523   0.09432996 
   34500   -954.12663    41.399456   -912.72717    1482.7784    1960.2945    2.1946009   0.18281779  0.093579986 
   34600   -957.69344    38.674357   -919.01908    1385.1752    1201.3568    2.2032663   0.10256557  0.093537116 
   34700   -953.57035     40.32269   -913.24766    1444.2125   -1103.0408    2.1908693    0.3562609   0.10289171 
   34800   -951.40257    38.301692   -913.10088    1371.8277    1237.4276    2.1900054  0.076870057   0.11005845 
   34900   -957.86162    38.885852   -918.97576    1392.7502    480.97963    2.2026608   0.22401661   0.10134033 
   35000   -952.70062    40.113167   -912.58745    1436.7082    1278.4709    2.1949105   0.22744102   0.11557164 
   35100   -954.68733    40.892612   -913.79472    1464.6251    807.90616    2.1962786   0.25914468   0.10255067 
   35200   -954.61363     35.68827   -918.92536    1278.2244    225.14844    2.1968397   0.15538155   0.10526143 
   35300    -950.3248    37.913329   -912.41147     1357.918   -624.94872    2.1836342   0.31252745   0.10720032 
   35400   -955.42076    41.211008   -914.20976    1476.0289    1857.7523    2.2008538   0.67273401   0.10637795 
   35500   -956.49255    37.987116   -918.50544    1360.5607    5645.1722    2.2142549   0.20426385     0.103362 
   35600   -953.17402    41.223107   -911.95092    1476.4622    1023.6475    2.1938139  0.067754315  0.099818963 
   35700   -956.89615    41.769095   -915.12705    1496.0175   -6940.4147    2.1827489   0.15176577    0.1048746 
   35800   -953.51643    34.422025   -919.09441    1232.8721     -2604.95     2.191826   0.27183268   0.10194171 
   35900   -952.54746    40.691393   -911.85607    1457.4181    3458.9152    2.1990269    0.2086712   0.11508685 
   36000   -954.78761    39.280561   -915.50705    1406.8872    7966.0077    2.2168244  0.052319631   0.10623191 
   36100   -957.49141    38.760482   -918.73093    1388.2599    421.66325    2.2063251   0.17130164  0.099826688 
   36200   -951.72549    39.825799   -911.89969    1426.4157   -7823.8657    2.1738441   0.88805749   0.12317651 
   36300   -955.18197    38.962719   -916.21926    1395.5033   -6098.6076    2.1824771   0.15976758    0.1066444 
   36400   -954.59075    36.741547    -917.8492     1315.949    5669.8683    2.2131352   0.18421675   0.10173912 
   36500   -953.72671    43.051581   -910.67513    1541.9515    8184.3378    2.2162092   0.27473578   0.10920017 
   36600   -958.72346    42.605478   -916.11798    1525.9737   -852.19005    2.2010403  0.071522231  0.092187465 
   36700   -952.25983    33.728744   -918.53109    1208.0413   -7671.3825    2.1764634   0.48343108   0.10482971 
   36800     -950.168    38.926808   -911.24119    1394.2171   -7882.4312    2.1653023   0.34558961   0.10992237 
   36900   -956.68376    40.305278   -916.37848    1443.5889    3989.9171    2.2098261   0.18955579  0.098633091 
   37000   -958.57906    41.496899   -917.08216    1486.2684    9671.4667    2.2282954   0.32053629  0.097338358 
   37100   -953.90298    42.960395   -910.94258    1538.6855   -57.722662    2.1953757   0.33901056   0.10062348 
   37200    -953.8075    37.646313   -916.16119    1348.3544   -4480.4185    2.1848161    0.2033358     0.107911 
   37300   -957.84529    39.961818   -917.88347    1431.2874   -5294.5939    2.1919349     0.239136   0.10185609 
   37400    -953.0711    41.655027   -911.41608     1491.932   -601.83608    2.1932543   0.06958798   0.11413091 
   37500   -954.57901     37.60236   -916.97665    1346.7802    2881.0212    2.2064708   0.63253318   0.10990664 
   37600   -958.03915    40.080114   -917.95904    1435.5243   -1544.4241    2.1999667   0.19356833  0.085732458 
   37700   -955.89319    43.834831   -912.05836    1570.0047    -4603.757    2.1838447   0.12769279   0.10222961 
   37800   -953.52158    35.923683   -917.59789    1286.6561    165.07086    2.1967788   0.38923098   0.11657319 
   37900   -956.61381    38.416457   -918.19735    1375.9382    1232.2968    2.2051388   0.28521682  0.098454452 
   38000   -953.80749    41.775894    -912.0316     1496.261    827.60095    2.1953644   0.18278521  0.099896737 
   38100   -952.99459    35.623889    -917.3707    1275.9185    202.10782    2.1959039   0.13492635   0.10041208 
   38200   -957.31939    38.885447   -918.43394    1392.7357   -4243.6986    2.1904058   0.11567799   0.08975369 
   38300   -954.19355    42.148743   -912.04481    1509.6151   -3628.5549    2.1874111   0.31286717   0.11387506 
   38400    -956.1173     39.12733   -916.98997    1401.3991    3633.9971    2.2105947   0.24043569   0.11204706 
   38500   -955.57543    37.672148   -917.90328    1349.2797    5084.0759    2.2148037   0.36603616  0.099001773 
   38600   -953.44186    42.172361    -911.2695     1510.461   -5211.0991      2.18068   0.17290068   0.12327783 
   38700   -949.81534     32.52585   -917.28949     1164.958   -6940.1365    2.1753988  0.057029468    0.1196259 
   38800   -955.55869    39.057261   -916.50143    1398.8894    -1690.096    2.1915409   0.64335624   0.10749135 
   38900   -952.28444    42.326467   -909.95797    1515.9806     8657.329    2.2120288   0.40652647   0.10775139 
   39000   -953.90303    37.372488   -916.53055     1338.547    8064.3032    2.2185987  0.075336219   0.10134209 
   39100   -955.98578    38.899686   -917.08609    1393.2457   -4335.3501    2.1872819   0.25402071   0.10197033 
   39200   -948.94854    38.166633   -910.78191    1366.9904   -10540.298    2.1600456   0.12078938   0.11820473 
   39300   -955.49353    37.128006   -918.36552    1329.7905   -1353.2391    2.1969075   0.25805676   0.10205615 
   39400   -956.37266     39.98773   -916.38494    1432.2155    5746.7192    2.2179824   0.19385851  0.097718461 
   39500   -953.36531    42.215222   -911.15009    1511.9961    5041.3913    2.2031835    0.1380806   0.10595722 
   39600   -958.13641    40.028119   -918.10829    1433.6621   -4057.9033    2.1943567   0.22905174   0.10780213 
   39700   -954.70348    37.570825   -917.13266    1345.6507   -4936.9111     2.183414   0.39321223   0.10355217 
   39800   -951.23207    39.162261   -912.06981    1402.6502    -375.7265    2.1898528   0.13714935   0.11257693 
   39900   -955.73696    37.226881   -918.51008    1333.3319    4048.4461    2.2117188   0.16485898   0.11276516 
   40000   -955.24853    38.112395   -917.13614    1365.0478    3230.8405    2.2058982   0.23554039   0.11429808 
   40100    -950.6121    38.403474   -912.20862    1375.4732   -978.42249    2.1889962   0.22076041   0.12528442 
   40200   -956.52552    38.326342   -918.19917    1372.7106   -1643.5417    2.1977736 0.0064650633   0.10096808 
   40300   -954.19501    37.638223   -916.55678    1348.0647    683.40271    2.2023878   0.40802611   0.10304409 
   40400   -952.24059    40.541098   -911.69949    1452.0351    72.071981    2.1959694  0.091645213   0.11793503 
   40500   -955.14835    37.238734   -917.90962    1333.7564    1750.1781    2.2053511   0.35146321   0.11394557 
   40600   -956.14333    40.415303   -915.72803    1447.5296   -2081.1723    2.1991008   0.37489697   0.10725869 
   40700   -951.76473    40.598301   -911.16643    1454.0839   -1635.3825    2.1869985   0.37716817   0.10817361 
   40800   -954.99991    36.772546   -918.22736    1317.0592    1666.2915    2.2056694   0.13736929   0.10250415 
   40900   -955.37331    40.471109    -914.9022    1449.5283     2359.764    2.2051698   0.33906468   0.10806262 
   41000   -950.11087     38.71004   -911.40083    1386.4533    616.03655    2.1920583   0.25058355   0.12642645 
   41100   -956.29381    37.343306    -918.9505    1337.5018    -4562.542    2.1946503   0.14546731   0.11179742 
   41200   -954.37614    39.559441    -914.8167    1416.8757   -1448.4297    2.1917941    0.3797556   0.10453395 
   41300   -953.92054    42.444505   -911.47603    1520.2082    2703.5602    2.2000988   0.17064237  0.096307327 
   41400   -956.95237     37.91814   -919.03423    1358.0903    6615.1352    2.2221896   0.15733578   0.09742481 
   41500    -956.8138    42.056741   -914.75706    1506.3199   -1880.0311    2.1978321   0.40236122   0.10543635 
   41600   -952.67224    39.541596   -913.13065    1416.2366   -7275.3357    2.1767881   0.28103976   0.10992373 
   41700   -953.64533    33.423609   -920.22173    1197.1125    -2092.329    2.1966953   0.33131413  0.097203395 
   41800   -954.96292    40.377848   -914.58508    1446.1881    5623.0159    2.2109702   0.18120867  0.094155029 
   41900    -954.7055    41.871805   -912.83369    1499.6962    7173.5984    2.2157933   0.47129259   0.11054089 
   42000   -954.97817    35.437241   -919.54093    1269.2335    754.12143    2.2039038    0.2636695    0.1098874 
   42100   -955.66783     42.01993    -913.6479    1505.0015   -10531.534    2.1748874    0.2096345   0.12421653 
   42200   -953.08029    39.982684   -913.09761    1432.0348   -3097.7491     2.186524   0.24486216   0.10659266 
   42300   -955.08906     37.04394   -918.04512    1326.7796    7460.3906    2.2197086   0.13278058   0.10904341 
   42400     -953.729    40.403876   -913.32512    1447.1203    9513.5311    2.2197488   0.56869252   0.11070038 
   42500   -955.13011    42.808646   -912.32147    1533.2504   -3044.3512    2.1910449  0.043789067   0.10182767 
   42600   -955.08971    36.465071   -918.62464    1306.0466   -8453.0409    2.1799136   0.37079693   0.10579025 
   42700   -953.39474    39.254629   -914.14011    1405.9584   -4732.9513    2.1841683   0.17521457  0.092099555 
   42800   -952.94471    42.121087   -910.82362    1508.6246    5336.7459    2.2085321   0.12107488   0.11134259 
   42900   -955.34081    37.672746   -917.66807    1349.3012    10853.148    2.2286467  0.038602782   0.10132041 
   43000   -953.86554    39.645957   -914.21958    1419.9744   -470.27948    2.1945102   0.32336877  0.099375506 
   43100   -948.52149    36.089072   -912.43242    1292.5797   -11267.031    2.1590542   0.33286497   0.13296611 
   43200   -955.61586    35.502101   -920.11376    1271.5565   -7227.2624    2.1820564   0.18051586  0.093124355 
   43300   -955.84402    41.008834   -914.83519    1468.7877     12738.45    2.2296014   0.20927321   0.10241055 
   43400   -950.23733    39.290802   -910.94653    1407.2541    22251.642    2.2446911    0.3576354  0.099292288 
   43500   -954.57963    36.034583   -918.54505    1290.6281    -2073.943    2.1924511   0.10169237  0.086692336 
   43600   -952.10393    35.851388   -916.25255    1284.0667   -11693.041     2.165642   0.35639522   0.11815623 
   43700   -951.52693    39.551988   -911.97494    1416.6088   -3612.6589    2.1800057   0.14570346  0.099138338 
   43800     -956.427    38.673095   -917.75391      1385.13    4855.9154    2.2126122   0.47102354  0.099514493 
   43900   -956.09823     39.73247   -916.36576     1423.073    5922.7702    2.2147861   0.29065926  0.098355743 
   44000   -953.65717    42.479592   -911.17758    1521.4649   -2680.2656     2.184303  0.067400234   0.10126464 
   44100   -955.43017     37.39711   -918.03306    1339.4289    -5803.614    2.1836966  0.099931515   0.11004217 
   44200   -955.00832    39.439438   -915.56888    1412.5776    -3989.921    2.1884435   0.29888368   0.10255976 
   44300   -950.16243    39.536073   -910.62636    1416.0388    4729.2387    2.1988368   0.30050149   0.10891869 
   44400   -959.38594    41.387465   -917.99848    1482.3489    4413.3753    2.2164034   0.11095964  0.088416527 
   44500   -953.73144    38.518378   -915.21306    1379.5886    -315.6431    2.1943923   0.22627365   0.10307432 
   44600   -952.30091    40.196144   -912.10477    1439.6801   -9106.7883    2.1688827   0.18771221   0.11391974 
   44700   -956.97713    37.351645   -919.62548    1337.8005   -1890.2948    2.1957987   0.41709646   0.10116786 
   44800   -953.45795    38.354054    -915.1039    1373.7031    6819.7754    2.2116532   0.28990634  0.096199689 
   44900   -952.85617    40.800481   -912.05568    1461.3253    6761.5199    2.2113495   0.15782669  0.095204909 
   45000   -956.49832    36.970174   -919.52815    1324.1375   -741.84605     2.201623   0.32730264  0.098996862 
   45100   -953.69152    38.631861   -915.05966    1383.6532   -10070.667    2.1730043   0.24715395   0.11028607 
   45200   -954.60271    41.815287   -912.78742    1497.6719   -5569.2355     2.183376   0.35751172   0.10837459 
   45300    -956.2979    37.719634   -918.57827    1350.9805    7318.5334     2.221004   0.15012974  0.095422762 
   45400   -957.48238    42.128774   -915.35361    1508.8999    6624.6816    2.2195894  0.088573557  0.088556038 
   45500    -951.8628    39.512009   -912.35079    1415.1769   -1034.8979    2.1888236   0.44098662  0.097365332 
   45600   -955.19106    36.459913   -918.73114    1305.8619   -7486.2506    2.1803768    0.2124055  0.092913021 
   45700   -952.39251    37.547014    -914.8455    1344.7979   -2669.3364    2.1869384   0.18091825   0.10927455 
   45800   -954.92461    43.441661   -911.48295    1555.9228    2639.5207    2.2034429   0.10202444   0.10202679 
   45900   -957.55237    39.832585   -917.71979    1426.6588    3729.0434    2.2136308  0.088398586  0.099322751 
   46000   -954.95382    40.754087   -914.19973    1459.6636   -1828.0693    2.1952958   0.36569104  0.099262609 
   46100   -950.46596    38.894681   -911.57128    1393.0664   -3222.6187    2.1796875  0.011496303  0.099492239 
   46200   -957.42878    38.902322   -918.52646    1393.3401   -2905.0048    2.1967408   0.14083579  0.094210749 
   46300    -952.3746    38.429813   -913.94479    1376.4165     2595.497    2.2001794   0.22436613   0.10596758 
   46400   -951.49264    39.886162   -911.60648    1428.5777    3306.1994    2.2002838   0.19117382   0.11174768 
   46500   -955.16435    36.474803   -918.68954    1306.3952    2691.6586    2.2053727   0.14766574  0.085745198 
   46600   -953.83476    39.693202   -914.14156    1421.6665   -3258.0998    2.1873122   0.28314555   0.10554472 
   46700   -954.67751    42.128759   -912.54875    1508.8994    -5321.127    2.1836893   0.12159363  0.093994741 
   46800   -956.89631    37.423143   -919.47316    1340.3613    3561.5649    2.2096136   0.33366919   0.09564041 
   46900   -954.53903    40.910965   -913.62807    1465.2824    6291.1233    2.2115573  0.064751535   0.10084368 
   47000   -953.75388     40.10885   -913.64503    1436.5536    2205.4553    2.2006243   0.18719237   0.10532989 
   47100   -957.54274    37.437333    -920.1054    1340.8695   -6206.4838    2.1890598   0.37030672   0.10880384 
   47200   -952.77963    39.180509   -913.59912    1403.3037     -8634.03    2.1733884   0.10648355   0.11213894 
   47300   -953.19115    39.779567   -913.41158    1424.7598     3502.662    2.2028071   0.28662838   0.11610584 
   47400    -957.0341    38.657088   -918.37701    1384.5567    12231.919     2.234681   0.19855889  0.098453713 
   47500   -953.78556    42.010973   -911.77459    1504.6807    1852.3153     2.199788   0.31427764   0.10209271 
   47600   -952.21664    38.475603   -913.74103    1378.0566   -10326.488    2.1680778   0.23677395   0.11261842 
   47700    -956.9062    38.303277   -918.60292    1371.8845   -9536.4947    2.1776966   0.16011929  0.090182595 
   47800   -953.02685    39.867596   -913.15925    1427.9127    3312.9602    2.2036582   0.24479442   0.10146445 
   47900    -951.9873    40.195483   -911.79182    1439.6564    10504.738    2.2141127   0.25652267   0.10299736 
   48000   -955.74564    37.766484   -917.97915    1352.6585    2765.1346    2.2034076   0.33602107  0.087932045 
   48100   -950.78375    37.194624   -913.58913    1332.1765   -1866.1732    2.1815441   0.19056095   0.10517738 
   48200   -951.88985    40.124904   -911.76494    1437.1285   -3380.3648    2.1800612   0.05078051   0.11187437 
   48300   -956.16187    37.417635   -918.74424     1340.164    2273.0613    2.2072061   0.19292922   0.10526687 
   48400   -955.26167    41.625791   -913.63588    1490.8849     4035.863    2.2067175  0.096138869   0.10684832 
   48500   -954.59558    41.155398   -913.44019    1474.0371   -1958.0886    2.1957403    0.2640191   0.11444586 
   48600   -956.76089    36.745185    -920.0157    1316.0793   -2416.3335    2.1979898   0.24065738  0.097507598 
   48700   -953.38434    39.334818   -914.04952    1408.8305   -2961.6757     2.188136   0.21855575   0.10006718 
   48800      -954.44     40.86131   -913.57869    1463.5039    1181.4807    2.1999008   0.26163005   0.10226718 
   48900   -958.13593    38.206791   -919.92914    1368.4287    6979.5364    2.2217582  0.079198528  0.093415997 
   49000   -952.75918    39.777503   -912.98168    1424.6859    1083.0791    2.1966012   0.19087611   0.10766501 
   49100   -953.51278    39.139645   -914.37314    1401.8402   -7034.5854       2.1783   0.36241165   0.11072126 
   49200   -954.41474    34.962372   -919.45237    1252.2254   -3211.2956    2.1857633   0.11831401   0.10435483 
   49300   -951.91834    38.975794   -912.94255    1395.9716    6770.4552    2.2053472  0.074544633   0.11047049 
   49400   -952.29729    39.793126   -912.50416    1425.2455    16006.065    2.2308448   0.22304353   0.10948423 
   49500   -955.79243    37.707348   -918.08508    1350.5405    1676.2645    2.2045192   0.29050356   0.10363724 
   49600   -952.53285    39.335003   -913.19785    1408.8372   -13964.211    2.1578108   0.35610371   0.11995123 
   49700   -952.61941    40.949346   -911.67006    1466.6571   -8563.1887    2.1669085    0.2548558   0.10310011 
   49800   -955.92052    38.341992   -917.57852    1373.2711    7822.4513    2.2164506   0.13195597  0.092615359 
   49900   -954.40637    41.028925   -913.37745    1469.5073     8264.839    2.2147094   0.34079568  0.099326703 
   50000   -951.74281     39.12162   -912.62119    1401.1946    131.69503    2.1887841   0.74976794   0.10588229 
   50100   -956.47656    37.076217   -919.40035    1327.9356   -3947.6894    2.1900632     0.187311  0.097482306 
   50200   -950.83725    36.905387   -913.93187    1321.8171   -1755.8292    2.1870167   0.28704039   0.10822527 
   50300   -954.77603    41.965297   -912.81074    1503.0447    1565.9709    2.1958665   0.14671016  0.094740778 
   50400   -955.77773    36.111234    -919.6665    1293.3735    6005.8161    2.2147802   0.28372095   0.10537286 
   50500   -950.51939    37.278274   -913.24111    1335.1726     2460.059    2.1926449   0.17012453   0.11005479 
   50600   -953.42549    39.182184   -914.24331    1403.3637   -4185.2134    2.1808728   0.60898227   0.10760608 
   50700   -956.91813    36.899147   -920.01899    1321.5936   -3750.6557    2.1921852   0.15862804   0.10224552 
   50800   -952.12747    39.028928   -913.09854    1397.8747    4207.5849    2.1983376   0.50909762  0.093657681 
   50900   -955.12617    41.643164   -913.48301    1491.5071    8060.0398     2.214185   0.46910019  0.096531951 
   51000   -954.91533    36.173126    -918.7422    1295.5902    2197.2022    2.1998866   0.32231292  0.094156697 
   51100   -951.90663    39.972975   -911.93365     1431.687   -14384.604    2.1541732   0.43772072   0.11615734 
   51200   -953.35056    39.734839   -913.61573    1423.1578   -7715.3488    2.1707999  0.037008647   0.10447986 
   51300   -955.31582    38.279596   -917.03623    1371.0363    9683.8156    2.2206368    0.2054371  0.091353327 
   51400   -955.60324    43.103333   -912.49991    1543.8051     12516.64    2.2232249   0.11570198  0.089382583 
   51500   -953.99807     41.89242   -912.10565    1500.4346   -2725.8793    2.1837622   0.35340136  0.085790671 
   51600   -955.37182    36.635354   -918.73646    1312.1455   -9732.2717    2.1754099   0.36739026   0.10322311 
   51700   -953.18262    38.800093   -914.38253    1389.6786   -3611.2435    2.1822654   0.37658716   0.10205645 
   51800    -954.5945    43.150969   -911.44354    1545.5112    3012.5907    2.1985323   0.28010265   0.09842068 
   51900   -956.00503    36.729862   -919.27517    1315.5305    6931.4199    2.2177702   0.25852504   0.09087435 
   52000   -954.07538    39.247737   -914.82764    1405.7116   -770.13835    2.1927714   0.17182718  0.092611175 
   52100   -954.74426    41.461903   -913.28235     1485.015   -5073.3375    2.1799522   0.15557346  0.098164069 
   52200   -959.22617    38.514007   -920.71217    1379.4321   -2765.0528    2.1999713   0.27857938  0.096042599 
   52300   -953.50208    38.734498   -914.76758    1387.3292    3244.2032    2.2016061   0.07224258   0.10452055 
   52400   -956.20313    42.781485   -913.42164    1532.2776    2110.8798     2.203511   0.23890924  0.095905931 
   52500   -957.77504    37.548078   -920.22696     1344.836   -1493.2224    2.2012412   0.19930479  0.099650133 
   52600   -954.26823    40.089115   -914.17912    1435.8467   -6936.0235    2.1765446   0.35222524   0.10939217 
   52700   -952.02069    38.483728   -913.53696    1378.3476   -1808.5797    2.1852506   0.42748613   0.10746618 
   52800   -959.29054    40.980705   -918.30983    1467.7802    3206.7309    2.2141655   0.23830464  0.099402997 
   52900     -953.312    38.727243   -914.58476    1387.0694    10736.494     2.219619  0.097913349   0.10712951 
   53000   -953.97524      41.7782   -912.19704    1496.3436    -3989.513    2.1838582  0.045875835   0.11817592 
   53100   -955.82555    37.779296   -918.04626    1353.1174   -15157.922    2.1614179    0.1285494   0.11591471 
   53200   -952.39112    37.718114   -914.67301    1350.9261   -6213.5276    2.1766739   0.33151627   0.11916331 
   53300   -953.43156    43.602304   -909.82925    1561.6764    8573.6557    2.2112782   0.12297955   0.10706504 
   53400   -958.10854     41.57443   -916.53411    1489.0453    10606.336    2.2279411   0.15491659   0.09431221 
   53500   -958.16059    42.183586     -915.977    1510.8631   -3752.7735    2.1930874   0.29613903   0.10056588 
   53600   -949.30406    38.904049   -910.40001    1393.4019   -8844.2227    2.1659726   0.22320111   0.11697053 
   53700   -957.06942    38.439898   -918.62953    1376.7777   -3553.3358     2.196298  0.022753825   0.10646117 
   53800   -952.21212    36.427136   -915.78498    1304.6879     6540.128    2.2104289   0.20413388   0.10123305 
   53900   -952.43257    41.185541   -911.24703    1475.1167    2696.4363    2.1993937   0.07082405   0.10819563 
   54000   -957.38819    39.125461   -918.26273    1401.3321   -3452.3492    2.1960043   0.28999697   0.11118488 
   54100   -956.09276    38.560749   -917.53201    1381.1062   -4516.7859    2.1874677   0.31736193   0.11466471 
   54200   -953.07137    40.202925   -912.86844     1439.923     -161.826    2.1915204   0.19874165   0.11991795 
   54300   -955.99843    37.977705   -918.02073    1360.2237    5351.1377    2.2125829   0.24415504   0.10453076 
   54400   -958.75761    39.817302   -918.94031    1426.1114    1624.5993    2.2093554   0.24967616  0.098296887 
   54500   -952.83554    39.608806   -913.22674    1418.6438   -2087.2497    2.1860455  0.079042254   0.11679032 
   54600   -957.33709    40.519503   -916.81759    1451.2617   -7827.5326    2.1808045   0.13566688   0.10343656 
   54700   -957.74523    37.916707   -919.82853    1358.0389    -660.7623    2.2030699   0.23730331  0.093070156 
   54800   -953.32323     41.46485   -911.85838    1485.1205    8993.1173    2.2157006   0.12869345   0.10418539 
   54900   -954.71149    39.777661   -914.93383    1424.6916    4625.9239    2.2097633   0.11570862  0.095677481 
   55000   -954.95923    35.661423   -919.29781    1277.2628   -6944.4311    2.1804706   0.18902307    0.0983077 
   55100   -951.78327    40.317228   -911.46604    1444.0169   -11633.389    2.1607115   0.24518005     0.122656 
   55200   -951.99043    38.687033   -913.30339    1385.6292    4152.8186    2.2037511   0.12372926   0.11711759 
   55300   -955.95726    39.395694   -916.56157    1411.0109    11603.665    2.2301484   0.13357557   0.10998521 
   55400   -956.35715    43.029565   -913.32758     1541.163    524.78819    2.2050076    0.1601907   0.11381737 
   55500   -951.80457    40.691984   -911.11259    1457.4393   -8142.9666    2.1707578   0.19030508    0.1215371 
   55600   -956.39686    38.216659    -918.1802    1368.7821   -6650.5637    2.1866716   0.37234577   0.10971394 
   55700   -955.60438    41.419449   -914.18493    1483.4945    1963.6971    2.2047867   0.22624946    0.1111084 
   55800   -950.35815    39.440771   -910.91738    1412.6254    7412.5139    2.2058532   0.30570722   0.11230715 
   55900   -955.94014    36.891702   -919.04843     1321.327    3050.1942    2.2097197   0.10709847  0.097988818 
   56000   -957.84273    42.049335   -915.79339    1506.0547   -7024.1341    2.1871487   0.25343434   0.11506109 
   56100   -952.61643    39.920987   -912.69544     1429.825    -3816.791     2.181399   0.48706527   0.10813065 
   56200   -960.66605    40.051379   -920.61467    1434.4951   -217.14171     2.209492   0.15857152  0.098105869 
   56300   -955.77535    39.072862   -916.70249    1399.4482    1853.6227    2.2064067   0.22437891   0.11044876 
   56400   -950.78122    37.584437   -913.19678    1346.1382    2900.2474    2.1950474   0.29339643   0.10935837 
   56500   -958.95283    39.819838     -919.133    1426.2022   -3973.5113    2.1945681   0.15145903   0.10277364 
   56600   -956.64404    38.718687   -917.92535    1386.7629   -4772.4484    2.1913983   0.19842018   0.10476283 
   56700   -953.98382     41.07267   -912.91115    1471.0741    584.29664     2.196252   0.36323472   0.11536452 
   56800   -955.95226    38.955622   -916.99664    1395.2491    3035.1511    2.2085844   0.60730149   0.10435735 
   56900   -954.74987    35.436835   -919.31303    1269.2189    1963.4082    2.2022894    0.1177693  0.097169138 
   57000   -950.04358    38.704461   -911.33912    1386.2534   -8397.7788    2.1671895   0.36144512   0.10486357 
   57100   -951.68956    35.531214   -916.15835    1272.5992   -2665.6928    2.1867876  0.015437041   0.11522695 
   57200   -954.63179    38.048731   -916.58306    1362.7676    9819.1414    2.2235203   0.36185201   0.11022063 
   57300   -950.81899    42.134241   -908.68475    1509.0957    8888.1882    2.2108564   0.15751712   0.10304369 
   57400   -951.47024    36.440864   -915.02938    1305.1796    -85.92597    2.1938495   0.19283589   0.11727186 
   57500   -953.56789    36.231305   -917.33659    1297.6739   -8729.9261    2.1750441   0.23274134  0.093277789 
   57600   -953.53522    42.672831   -910.86239    1528.3861    -4622.153    2.1812432   0.20416571   0.10145993 
   57700   -953.36148    38.963371   -914.39811    1395.5266    6603.6593    2.2152921  0.062938608  0.096314169 
   57800   -956.22865    39.000598   -917.22805      1396.86    5345.4779    2.2155994   0.26920582  0.091195032 
   57900    -952.5668    38.777702    -913.7891    1388.8767   -2511.1126    2.1899479   0.11841098   0.10642274 
   58000   -952.84837    41.097886   -911.75049    1471.9773   -8326.3129    2.1722212   0.20735953   0.10269713 
   58100    -958.1895    38.344421   -919.84508    1373.3581   -1486.6928    2.2046371   0.13877921  0.097231138 
   58200   -954.45102      39.4523   -914.99872    1413.0383    5719.3273    2.2147273   0.12215915   0.10162387 
   58300   -953.11848    40.111602   -913.00688    1436.6521    3515.5989    2.2047959   0.19622635   0.11751763 
   58400   -954.94711    34.368095   -920.57902    1230.9405   -1451.2185    2.1961516   0.31506928  0.090450567 
   58500   -957.14098    40.856369   -916.28462     1463.327   -11628.628    2.1737805   0.11531171   0.11154941 
   58600   -955.22745    41.567542   -913.65991    1488.7986   -4319.6991    2.1894983   0.57609352  0.099482014 
   58700   -957.32769    38.928546   -918.39914    1394.2794    10929.446    2.2312015   0.24304724  0.090370928 
   58800   -955.53052    37.205216    -918.3253    1332.5559    12164.119    2.2310203   0.41088607  0.094238813 
   58900   -951.19315    38.517042   -912.67611    1379.5408   -7070.5738    2.1706944   0.18364267  0.097179372 
   59000   -950.73564    34.126844    -916.6088    1222.2998   -18685.136    2.1447147   0.33668513   0.12561475 
   59100   -955.36694    38.783736    -916.5832    1389.0928   -3503.7863    2.1912326   0.16834078  0.097351481 
   59200    -951.5323    42.473401    -909.0589    1521.2432    10292.029    2.2144488   0.34851569   0.11254239 
   59300   -954.41877    39.240306   -915.17846    1405.4455    5239.0864    2.2134674   0.11995986   0.10557694 
   59400     -956.576    39.392524   -917.18348    1410.8973   -4367.4316     2.192838   0.33722193  0.098289508 
   59500   -952.66586     43.01971   -909.64616      1540.81   -7315.3758    2.1716481   0.17670085   0.11542006 
   59600   -952.71083    37.759362   -914.95147    1352.4034    934.67372    2.1957531   0.27510075   0.11052203 
   59700   -958.29005    41.633526   -916.65652    1491.1619    3650.0016    2.2113697   0.51524845   0.09005361 
   59800   -954.12657    41.955406   -912.17116    1502.6905       3239.2    2.2006915    0.2645678  0.094009789 
   59900   -949.21449    37.218621   -911.99587     1333.036   -1279.8896    2.1829623   0.16645985   0.10237362 
   60000   -955.20861    36.812355   -918.39625    1318.4851   -5049.0429    2.1885709   0.12581465   0.10925987 
   60100   -953.08193    38.621355   -914.46058    1383.2769    1590.4412    2.2012971 0.0038595389   0.11336504 
   60200   -951.79707    39.560099   -912.23697    1416.8993    6591.2702    2.2106095  0.092818611    0.1151708 
   60300   -959.55834    39.107843   -920.45049    1400.7011    2877.1162    2.2156554  0.066234038  0.095827673 
   60400   -957.31432    41.283827   -916.03049     1478.637    -9846.839    2.1780029    0.1993233   0.10775186 
   60500   -953.21785    39.448099   -913.76975    1412.8879   -10099.866    2.1733405   0.60089761   0.11295397 
   60600   -956.92985    37.075635   -919.85422    1327.9148    3188.3755     2.211107   0.35853883  0.098900142 
   60700   -954.99793    37.140945   -917.85699     1330.254    10653.831    2.2276691   0.24367007   0.11473257 
   60800   -952.89005    39.737409   -913.15264    1423.2499     3167.226    2.2036001   0.36990482  0.095241048 
   60900   -953.77157    36.667879   -917.10369    1313.3105    -6442.269    2.1792941   0.18842448    0.1038094 
   61000   -955.44753    35.138029    -920.3095    1258.5168   -6244.8178    2.1856062    0.2018216   0.10349868 
   61100   -955.31991    42.793444   -912.52646     1532.706   -2865.1421    2.1929631   0.21967574    0.1098835 
   61200   -954.68135    40.098314   -914.58304    1436.1762     8372.511    2.2136386  0.054212342   0.12143514 
   61300   -956.50578     38.41293   -918.09285    1375.8119    3330.4761    2.2113771   0.23651051   0.10467106 
   61400   -953.39565    42.296301   -911.09935    1514.9001   -2503.6538    2.1880526  0.061478279   0.11365121 
   61500   -956.23938    43.703361   -912.53602    1565.2959   -3392.9822    2.1886497   0.25200924   0.10154916 
   61600   -954.38742    37.726295   -916.66112    1351.2191    -476.3111    2.1984192   0.18159324   0.10637475 
   61700   -952.82795     37.16101   -915.66694    1330.9726    3623.9395    2.2032699       0.5481  0.097917556 
   61800   -948.75846    39.974439   -908.78402    1431.7394    246.30657    2.1859403   0.35419573   0.11304526 
   61900   -952.62246    36.469077   -916.15338    1306.1901    506.56729    2.1974014   0.29084572   0.11158199 
   62000   -955.11961    38.989116    -916.1305    1396.4488    231.97005    2.1983734   0.37164182  0.093385201 
   62100   -952.20621    42.817176   -909.38903     1533.556   -58.415203    2.1912425  0.051619059   0.10818868 
   62200   -954.58219    39.176766   -915.40543    1403.1697    1603.0094    2.2013846  0.077879832    0.1036499 
   62300   -956.76961    39.829017   -916.94059    1426.5309   -3850.0547    2.1931548      0.16041   0.11603651 
   62400   -953.49406    40.208617   -913.28544    1440.1268   -3871.9527    2.1888811   0.45428234    0.1147245 
   62500   -951.11019    40.346904   -910.76329    1445.0798    999.67997    2.1946656    0.3655398   0.11701687 
   62600   -955.94549    36.765903   -919.17958    1316.8213    9727.4794    2.2262372   0.24268165  0.097479698 
   62700   -957.01385    41.155617   -915.85823     1474.045    856.68643    2.2064654   0.15556124   0.10026279 
   62800   -952.82685    38.907037   -913.91981     1393.509   -8925.7284    2.1726013   0.37597712   0.11591146 
   62900   -955.86533    36.970378   -918.89495    1324.1449   -10356.075    2.1773348   0.23793714   0.10130614 
   63000   -954.53614    35.250946   -919.28519    1262.5611    4729.6763    2.2119376  0.024224432  0.092378913 
   63100   -953.78821    40.522644   -913.26557    1451.3741    11292.892    2.2254285   0.30264605   0.10534721 
   63200   -955.86168    39.928038   -915.93364    1430.0775    2780.2882    2.2069212   0.11123578   0.09810708 
   63300   -957.83409    35.739219   -922.09488    1280.0492   -8786.4563    2.1881073  0.090849294   0.11396246 
   63400   -952.57747    37.954526   -914.62294    1359.3935   -6529.1495    2.1796176   0.19684544   0.11772576 
   63500    -955.0697      40.8171    -914.2526    1461.9205    3133.4409    2.2052103   0.36455096   0.11042875 
   63600   -956.47477    38.954517   -917.52026    1395.2095    5872.6884    2.2169432   0.30098804    0.1023983 
   63700   -958.22693    37.193883   -921.03305      1332.15   -368.02411    2.2066719   0.38598964  0.095738972 
   63800     -950.415    38.516826   -911.89818     1379.533   -6608.1168    2.1723108   0.29276771   0.11788933 
   63900   -954.23767     39.83869   -914.39898    1426.8774   -2711.0734    2.1906794   0.25147167  0.098383991 
   64000    -956.1129    39.971961   -916.14093    1431.6507     3858.364    2.2103281   0.18137257  0.095805381 
   64100   -956.67691    37.867795   -918.80911    1356.2871    4276.4577    2.2128022   0.34182692  0.089161711 
   64200   -957.08831    30.858066   -926.23024     1105.224   -889.56748    2.2053335   0.17165482   0.09715465 
   64300   -959.44406    38.176697   -921.26736    1367.3509   -8313.3846    2.1877284   0.14714837   0.10140308 
   64400   -954.99346     37.39846     -917.595    1339.4772    1839.6269     2.200691   0.30314946  0.091688336 
   64500   -952.84387     37.90578   -914.93809    1357.6476    5029.0059    2.2087132   0.21923186   0.10606628 
   64600   -953.28638    39.390751   -913.89563    1410.8338    2813.0855    2.1997371   0.25702369   0.10121288 
   64700    -957.1852    36.142994   -921.04221     1294.511   -4515.5751    2.1933954    0.2550467    0.1066869 
   64800   -957.18974     37.82396   -919.36578    1354.7171   -7142.1931    2.1858176   0.17260147   0.11273721 
   64900   -956.34779    41.332594   -915.01519    1480.3836   -915.46134    2.1965722   0.14438989   0.10427938 
   65000   -955.18051    41.000417    -914.1801    1468.4862    2669.3576    2.2039215    0.4199399  0.095099254 
   65100   -958.98085    36.900565   -922.08029    1321.6444    1387.2726    2.2104351  0.088632785  0.089723919 
   65200   -955.21314    38.200795   -917.01235     1368.214    -2442.706    2.1923428   0.13752169   0.10377618 
   65300   -951.81753    37.458043   -914.35949    1341.6113   -1430.2888     2.192274   0.18512422   0.10462692 
   65400   -953.79591    36.477129   -917.31878    1306.4785    1990.6155    2.2012626   0.12126852   0.10449486 
   65500   -958.10474    35.968441    -922.1363    1288.2591    1217.2469    2.2107865   0.26974053  0.098069537 
   65600   -955.60435    41.504121   -914.10023    1486.5271   -4271.8243    2.1894808   0.32443494   0.10341474 
   65700   -955.57712    40.276285   -915.30084    1442.5505   -3287.0293    2.1908829   0.31633806    0.1093704 
   65800   -957.15851    38.360118    -918.7984    1373.9203    767.77977    2.2049764   0.47825725  0.089784487 
   65900   -956.50167     32.97398   -923.52769    1181.0084    5996.8025    2.2204897   0.12018314   0.10327139 
   66000   -956.43372    41.626061   -914.80766    1490.8946   -4207.7172    2.1914601    0.5377791   0.11648339 
   66100   -953.34962    38.091182   -915.25844     1364.288   -5427.8893    2.1831358  0.057829426   0.11277832 
   66200   -952.46726    36.843254   -915.62401    1319.5917   -364.61995    2.1940854   0.30651093   0.11599202 
   66300    -957.6314    36.239153   -921.39225     1297.955    9203.3811    2.2251991   0.10058763  0.087237847 
   66400   -958.31333     37.91557   -920.39776    1357.9982    5300.6769    2.2186559   0.20296584   0.10201774 
   66500   -955.80388    40.057751   -915.74613    1434.7234   -5959.5656    2.1821056   0.18466387  0.098587616 
   66600   -951.58836    36.738908   -914.84946    1315.8545   -8818.7052    2.1654207  0.050067481   0.11416154 
   66700   -948.58424    35.703255   -912.88098    1278.7611     3131.684    2.1920511   0.32951989   0.11081974 
   66800   -950.25713    45.871844   -904.38528    1642.9631    8943.3618    2.2054115  0.046243084   0.09641445 
   66900   -953.48689    41.410492    -912.0764    1483.1736    8156.5019    2.2118967   0.89210402   0.10067434 
   67000   -952.24516    37.068577   -915.17658     1327.662   -2451.9066    2.1840954   0.32520172   0.10183772 
   67100   -955.43238    38.264296   -917.16809    1370.4883    -10754.83    2.1742995   0.23711505   0.11292269 
   67200   -957.80014    37.774368   -920.02578    1352.9409   -290.80171    2.2019069   0.19688618  0.092763269 
   67300    -959.2529    32.501046   -926.75185    1164.0696    10043.652    2.2383388  0.073796771   0.10171619 
   67400   -958.95807     40.25108   -918.70699    1441.6477    945.12532    2.2060592   0.22359249   0.10147486 
   67500   -955.34385    38.976028   -916.36782      1395.98   -5434.8274    2.1856433   0.21015304   0.10693269 
   67600   -954.08415    39.424264   -914.65989    1412.0342   -4565.2764    2.1858765   0.26885247   0.11487992 
   67700   -954.43623    40.857754   -913.57848    1463.3766    3413.7819    2.1994985   0.14568121  0.088670956 
   67800   -958.79715    36.442712   -922.35443    1305.2458     6094.636    2.2215031   0.22162947  0.094201355 
   67900   -955.51487    37.293914   -918.22096    1335.7328   -2981.6908    2.1959321    0.5447506    0.1101401 
   68000   -953.14195    38.124763   -915.01719    1365.4908   -5025.3839    2.1816446   0.17652617   0.10119776 
   68100   -951.89533    38.552492   -913.34284    1380.8105    -410.0116    2.1896978   0.11298087   0.10652974 
   68200   -957.69091    35.863414   -921.82749    1284.4974    5953.8379    2.2205825   0.25291026  0.095035808 
   68300   -956.18733    39.196019   -916.99131    1403.8592    1962.7388    2.2049702  0.047483009   0.10142794 
   68400   -955.10761    40.992928   -914.11468     1468.218   -4259.3232     2.185926    0.3988167   0.11811119 
   68500   -954.64528    38.114599   -916.53068    1365.1267   -4941.6435     2.183999   0.24921501   0.10883654 
   68600   -959.19227    37.714684   -921.47759    1350.8032    1232.8942    2.2096464   0.21785056   0.10147173 
   68700   -955.38845    41.301906   -914.08654    1479.2845    6308.0615    2.2121182    0.2652014   0.10688606 
   68800   -951.08242    36.310056   -914.77237    1300.4945    3575.1719    2.1994851   0.08817103    0.1137338 
   68900   -960.14867    39.747548   -920.40112     1423.613   -15114.222    2.1703551   0.26119983   0.10258366 
   69000   -953.10248     37.49273   -915.60975    1342.8536   -10979.271    2.1651401   0.28118647  0.094728542 
   69100   -952.23874    39.292481   -912.94626    1407.3142    11202.075    2.2160207  0.068343343  0.094611505 
   69200   -956.35193    41.123596   -915.22833    1472.8981    13323.506    2.2328483   0.12023053  0.088024728 
   69300   -955.96125    36.664221   -919.29703    1313.1794    85.435969    2.1994467  0.078596598  0.092176892 
   69400   -951.08594     40.21717   -910.86877    1440.4332    -8975.879    2.1644289   0.18669427   0.11198207 
   69500   -954.46238    41.540827   -912.92155    1487.8418   -2667.4662    2.1893253   0.15426126   0.10394376 
   69600   -955.38813    39.497305   -915.89083    1414.6502    5106.5547    2.2129283  0.067045316  0.089975292 
   69700   -959.56106    41.792628   -917.76844    1496.8604    1755.8936    2.2112299    0.1803259    0.1057657 
   69800    -951.1521    42.396241   -908.75586    1518.4796   -6770.2258    2.1736157   0.18264691   0.12691527 
   69900   -951.76036    37.102716   -914.65765    1328.8847   -3760.0783    2.1835355    0.3066074   0.10996574 
   70000   -954.95615    38.376891   -916.57926     1374.521    2493.2433    2.2028409    0.4006701    0.1110833 
   70100   -951.17245     39.90346   -911.26899    1429.1972    7988.8268    2.2097182   0.29106599   0.10561736 
   70200   -951.94023    40.300374   -911.63985    1443.4132    3220.0563    2.1974182   0.35870356   0.10166986 
   70300   -955.75519    38.445694    -917.3095    1376.9853   -5764.3297    2.1836497  0.072071622   0.10455272 
   70400    -954.2808    39.784386   -914.49642    1424.9324   -5757.0621    2.1802237   0.13962703   0.10215123 
   70500   -954.14812     44.95528   -909.19284    1610.1351    71.885733    2.1931217   0.35455767    0.1003639 
   70600   -957.06331    39.363237   -917.70007    1409.8484    10894.359    2.2303593    1.2435108   0.10043208 
   70700   -953.48905    37.196213   -916.29284    1332.2335    1507.0393    2.1966962   0.10794451   0.11206323 
   70800   -949.54265    35.662552    -913.8801    1277.3033   -13637.684    2.1512846   0.51810224     0.128676 
   70900   -949.76728    38.240716   -911.52656    1369.6438    -9742.454    2.1623254   0.11761298   0.12429881 
[...]
  186800   -956.82587    36.003715   -920.82216    1289.5225    8115.9339    2.2275302   0.30111979   0.10475105 
  186900   -952.53855    38.265943    -914.2726    1370.5473   -8067.7513    2.1735278   0.26063813   0.10215007 
  187000   -953.32175    39.144793   -914.17695    1402.0245   -9629.6391     2.168692   0.32096304   0.10953049 
  187100   -955.67615     38.16973   -917.50643    1367.1013   -63.309675    2.2013676   0.25176272  0.088015721 
  187200   -954.82405    34.658441   -920.16561    1241.3397    11938.837    2.2256101   0.30700096  0.093601099 
  187300    -952.0537    40.236567   -911.81713    1441.1279    1713.5124    2.1936126    0.1819035   0.11048723 
  187400   -952.76695    37.861161   -914.90579    1356.0495    -4520.204    2.1815003   0.27468876   0.10346721 
  187500   -953.50962    36.000246   -917.50938    1289.3982   -1866.9875    2.1898754   0.20649949   0.10291627 
  187600   -956.31944    40.751601   -915.56784    1459.5746    1492.1519    2.2029009   0.34999442  0.097238786 
  187700   -950.58294    39.981949   -910.60099    1432.0084    2279.1455    2.1966615  0.093866452   0.12214161 
  187800   -957.10093    41.415795   -915.68513    1483.3636   -5362.6586    2.1907692   0.18506715   0.10210076 
  187900   -955.59379    38.533279   -917.06052    1380.1223   -4644.4214    2.1869042  0.064344837   0.10939704 
  188000   -951.15852    42.020632   -909.13789    1505.0267   -636.85016     2.186426   0.13471472   0.10627717 
  188100   -957.47853    43.739866   -913.73867    1566.6034    707.28623    2.2041594    0.2212669   0.08838385 
  188200    -951.2705    34.491414   -916.77909    1235.3574    5183.4422     2.203256   0.19725923   0.11362787 
  188300   -951.96788    39.188354   -912.77953    1403.5847   -1182.1508    2.1849858   0.38110745  0.085783318 
  188400   -950.44084    39.774299   -910.66654    1424.5712   -6053.6154    2.1774353    0.0662037   0.12800388 
  188500   -954.84049    37.238596   -917.60189    1333.7515    1516.3953    2.2035009   0.60924368  0.099591235 
  188600   -955.58334    41.704929   -913.87841    1493.7193    11383.735    2.2255182   0.32183352  0.093206394 
  188700   -954.21651    42.553572   -911.66294    1524.1146    4557.6266    2.2072961   0.28317072   0.11076791 
  188800   -954.25306    35.189709   -919.06336    1260.3678   -13043.664    2.1662512   0.10068973  0.088761484 
  188900   -954.69082    37.782247   -916.90857    1353.2231   -16778.044    2.1556462   0.23484154   0.11689588 
  189000   -952.47544    39.207128   -913.26831    1404.2571    2559.9152    2.2008418   0.10608501    0.1019697 
  189100   -954.14333    36.355344   -917.78798    1302.1166    12914.493    2.2319368   0.55419411   0.10418552 
  189200   -955.41676    35.614059    -919.8027    1275.5664    5497.1705    2.2144593   0.18007095   0.10138632 
  189300   -952.33902    38.564623    -913.7744    1381.2449   -7772.0507    2.1743492   0.22273634   0.10245069 
  189400   -955.24952    39.136275   -916.11325    1401.7194    -8836.761    2.1746605   0.20423946   0.09689134 
  189500    -956.9834    36.413256   -920.57014    1304.1908    1920.7743    2.2098653   0.14409077   0.10639362 
  189600   -951.72642    39.530686   -912.19573    1415.8458    7083.9948    2.2068584  0.041131304   0.10386904 
  189700   -954.46643    40.098939   -914.36749    1436.1986    4158.9881    2.2057506   0.19815706  0.093114702 
  189800   -954.17787    35.736615   -918.44126    1279.9559   -2297.0896    2.1898701   0.18479185   0.11044096 
  189900   -952.12943    39.854155   -912.27527    1427.4313   -5838.3127    2.1766034   0.36514904  0.091663743 
  190000   -955.49006    43.075841   -912.41422    1542.8204     1004.496    2.1972524   0.22911957   0.11958346 
  190100   -957.77387    41.403569    -916.3703    1482.9257    3778.9311     2.214112   0.13499334  0.099876601 
  190200   -953.27093    37.569911   -915.70102     1345.618     2485.644    2.2019275   0.23064208  0.098815169 
  190300   -947.46029    38.548396    -908.9119    1380.6638   -6247.8872    2.1641419   0.17980712     0.134113 
  190400   -956.89512    39.857855   -917.03726    1427.5638     -7243.13    2.1839156   0.25260929  0.095757337 
  190500   -953.27166    37.619473   -915.65219    1347.3931    7517.7742    2.2122963   0.11898112   0.11221864 
  190600   -952.54465    42.846135   -909.69851    1534.5932    13578.968    2.2201424   0.11355997  0.099632404 
  190700    -952.1892    36.572749   -915.61645    1309.9032    2617.6374    2.1960453   0.13970127  0.092457359 
  190800   -955.15911    37.487154   -917.67195    1342.6539   -17125.812    2.1554651   0.12076407   0.11179361 
  190900   -953.39962    39.919236   -913.48039    1429.7623   -8990.0788    2.1687492   0.21371102   0.10281521 
  191000   -950.94168    36.003465   -914.93822    1289.5135    10990.383    2.2162764   0.72566418   0.10997713 
  191100    -958.7092    38.752934   -919.95627    1387.9896    8608.3486    2.2266042   0.26169326  0.091322548 
  191200   -954.09432    40.200676   -913.89364    1439.8424    -370.7859    2.1944522  0.087403213   0.10606044 
  191300   -954.22295    39.420335   -914.80261    1411.8934   -5497.7038    2.1825328     0.405363   0.10763646 
  191400   -956.99174    35.743514   -921.24823     1280.203   -2469.6598    2.1989328   0.33314196  0.094544155 
  191500   -955.66047    41.644893   -914.01558     1491.569    1058.4089    2.1993745   0.38225788   0.11090735 
  191600   -954.50236    40.382977   -914.11939    1446.3718    5007.2005    2.2095881   0.10471773  0.095654884 
  191700   -958.10985    38.534561   -919.57529    1380.1682    517.41197    2.2069775    0.3164279  0.097551035 
  191800   -953.64598    40.419284    -913.2267    1447.6722   -4998.6375    2.1808715   0.23416087   0.10806644 
  191900   -955.21832    42.013156   -913.20517    1504.7589   -4942.3982    2.1870115  0.031478572   0.10608452 
  192000   -954.69442    37.561223    -917.1332    1345.3068    2543.4757    2.2049686   0.20897723  0.095820931 
  192100   -957.36556    41.244426   -916.12113    1477.2258    4607.6815    2.2123361   0.48558477  0.086923379 
  192200   -950.16849    40.176142   -909.99235    1438.9637   -1685.2179    2.1812749   0.21981939   0.11582598 
  192300   -954.51704    37.988784   -916.52826    1360.6205   -8894.4348    2.1756623   0.45293378   0.10637816 
  192400   -954.87892    38.822284   -916.05664    1390.4734   -2845.8414    2.1901948   0.14468336   0.10924538 
  192500   -949.16745    40.605652    -908.5618    1454.3472    10628.974    2.2127293   0.15189864   0.10879095 
  192600    -955.8984    40.484637   -915.41377    1450.0129    9972.6458     2.225419   0.16676424  0.093817395 
  192700   -956.11111    38.994976   -917.11614    1396.6586   -5469.3324     2.186901  0.062155997    0.1060415 
  192800   -951.12307    39.623455   -911.49961    1419.1685   -11188.292    2.1593013  0.090793033   0.11822869 
  192900   -953.76461    37.523062   -916.24155      1343.94    -2892.959     2.191871   0.32658507   0.10890808 
  193000   -955.57538    37.888969   -917.68642    1357.0455    7049.8421    2.2195498  0.080487233  0.091810308 
  193100   -956.67881    43.386036   -913.29278    1553.9305    2868.6538    2.2061089   0.12989615  0.099622918 
  193200   -954.42564    39.524898   -914.90074    1415.6385   -2445.0215    2.1884172   0.20062163  0.098198545 
  193300   -958.11378    37.824039   -920.28974    1354.7199   -4703.6832    2.1952541   0.38770684   0.10277693 
  193400   -955.40534     41.40554    -913.9998    1482.9963   -1271.7805    2.1937765   0.28446844   0.10814465 
  193500   -954.65006    39.746064   -914.90399    1423.5599    1199.2227    2.1990771   0.13725429     0.107735 
  193600   -957.78386    36.765385   -921.01847    1316.8028    3106.7929    2.2114291  0.074219084  0.097971849 
  193700   -953.07699    39.811228   -913.26576    1425.8938   -2152.2882    2.1865875   0.16952519   0.11056085 
  193800   -955.19163    40.497191   -914.69444    1450.4625    -2737.747    2.1864148   0.26325312   0.10150039 
  193900   -957.06649    37.470345   -919.59614    1342.0519    112.69008    2.2052593   0.22275877   0.10764339 
  194000   -951.97983    38.122789   -913.85704      1365.42      8302.16    2.2101104   0.20401374   0.10754906 
  194100   -954.76423    41.964917   -912.79931    1503.0311    4631.6784    2.2058655   0.15067242  0.093229837 
  194200   -955.60813    38.083897   -917.52424    1364.0271   -8154.1223    2.1795292   0.67153707   0.10288482 
  194300   -953.78088    39.402246   -914.37864    1411.2455    -12498.73    2.1622866   0.30689177   0.11213502 
  194400   -951.93132    41.216943   -910.71438    1476.2414    1269.8921    2.1933232   0.14321772    0.1166536 
  194500   -956.76103    41.512741   -915.24829    1486.8359    13788.637    2.2334846   0.15263883   0.10039218 
  194600   -956.85146    40.310329   -916.54113    1443.7698    5170.8434    2.2125941  0.033864281  0.092918835 
  194700   -951.26473    41.912302   -909.35243    1501.1467   -11386.056     2.160461   0.23904668   0.11740005 
  194800   -952.11768    36.626159   -915.49152    1311.8162   -4984.2419    2.1772344   0.18643028   0.10544898 
  194900    -951.9053    35.418429   -916.48688    1268.5597     3204.705    2.2028248  0.085615721   0.11667257 
  195000   -952.60121    39.813505    -912.7877    1425.9754    5965.1886    2.2086626   0.24295328   0.10144906 
  195100   -952.05179    41.703905   -910.34788    1493.6826    1537.1415    2.1919988  0.095288076  0.098547005 
  195200   -953.51256    35.010288   -918.50228    1253.9415    1036.5915     2.199736   0.27514332   0.10481701 
  195300   -954.05989    38.359276   -915.70062    1373.8901   -332.17639    2.1922242   0.31546551   0.10571477 
  195400     -952.264    39.356394   -912.90761    1409.6033   -295.78664    2.1919087   0.10956153   0.12049932 
  195500   -957.91925    37.852517   -920.06673    1355.7399    862.47051    2.2080934   0.17762876   0.10221674 
  195600   -955.96633    37.538721   -918.42761    1344.5009   -1500.3023    2.1976992   0.11076085   0.10223404 
  195700   -954.99142    40.760857   -914.23057    1459.9061        -2458    2.1904299   0.21366796  0.096487294 
  195800   -953.99753     38.83975   -915.15778     1391.099   -675.81712    2.1950776   0.24267942   0.10271614 
  195900   -956.14578    34.346713   -921.79907    1230.1747    6785.9694    2.2194613   0.17231272    0.1018683 
  196000   -952.61283    38.206271   -914.40656    1368.4101    3113.2284     2.201985   0.20466503   0.10963197 
  196100    -952.4849    37.752622   -914.73228     1352.162   -2905.8781    2.1846006   0.23975151   0.11538688 
  196200   -958.18031    37.894819   -920.28549     1357.255   -8247.9769    2.1857772   0.19206332   0.10027281 
  196300   -956.60817    39.325757   -917.28241     1408.506    840.99955    2.2022896   0.30461902  0.099267388 
  196400   -953.78056    41.061601   -912.71895    1470.6776    11656.559    2.2211935   0.19055113    0.1066134 
  196500   -957.85524    41.270618   -916.58462    1478.1639     622.6985    2.2036439   0.32926078   0.10650924 
  196600   -955.81486    36.374847   -919.44001    1302.8151   -10400.112    2.1762595   0.27132474    0.1126239 
  196700   -952.75543    41.670728   -911.08471    1492.4944   -9043.8621    2.1694694   0.45257909   0.10639535 
  196800   -954.61144    41.473488   -913.13795    1485.4299    8383.3624    2.2140358  0.054828053  0.092700151 
  196900   -956.02297     40.07188   -915.95109    1435.2294    8625.4508    2.2216756   0.24870043  0.089980206 
  197000   -956.18925    40.650723   -915.53852    1455.9615   -1895.8636    2.1953996    0.1861539   0.10603896 
  197100   -947.84074    39.114051   -908.72668    1400.9235   -6605.9389      2.16596    0.4015686   0.12433869 
  197200   -955.20025    38.756185   -916.44406     1388.106   -4403.7418    2.1908619   0.15273673   0.12075848 
  197300    -952.6436    36.781581   -915.86202    1317.3828      4870.43    2.2096119   0.14146401   0.11945723 
  197400   -952.28095     42.77454   -909.50641    1532.0289     3954.615    2.2044482   0.16550429   0.11535472 
  197500   -955.85251    40.829845   -915.02266     1462.377   -795.67629    2.1987729    0.6001427   0.10869365 
  197600   -955.01907    37.915351   -917.10372    1357.9904   -6354.3275    2.1851698   0.41626637   0.10609202 
  197700   -955.05259    41.830858   -913.22174    1498.2296   -4169.5137    2.1889399   0.10504704   0.11787303 
  197800   -952.47094    39.369545    -913.1014    1410.0743    2782.9635    2.2051322  0.069170578   0.11308559 
  197900   -955.29495    35.766662   -919.52828    1281.0321    8481.0782    2.2237171   0.12270521   0.11698147 
  198000   -954.80936    39.868784   -914.94058    1427.9553    2043.8679    2.2020965   0.23015476  0.098368926 
  198100    -953.5873    39.640394   -913.94691    1419.7751   -6116.7922    2.1811106   0.45624786     0.108412 
  198200   -956.83039    35.047767   -921.78262    1255.2839   -3994.1711      2.19685   0.13477255   0.11068836 
  198300   -953.18977    36.538717   -916.65106    1308.6844    2038.8025    2.2029955   0.15045383    0.1071346 
  198400   -951.57362    38.165647   -913.40797     1366.955    8147.8183    2.2137594   0.62511628   0.12411985 
  198500   -954.51859    36.334727   -918.18386    1301.3782    4308.9704    2.2110869  0.076856117   0.11176567 
  198600   -959.79303    39.278005   -920.51503    1406.7957   -8180.0488    2.1874231   0.22643481  0.099165423 
  198700   -955.95428    42.351118   -913.60316    1516.8635   -15875.624    2.1584986   0.30841474   0.11489117 
  198800   -955.31703    39.747611   -915.56942    1423.6153    2689.1616    2.2061879   0.32338317   0.10058331 
  198900   -953.54636     36.99467   -916.55169    1325.0149    22982.599    2.2539179   0.27929019  0.092653099 
  199000    -952.4604    43.975412   -908.48499    1575.0398     4511.812    2.2022131   0.18243103   0.10777394 
  199100   -952.34056    38.378255    -913.9623    1374.5699   -9873.0744    2.1688958    0.1570814   0.11610891 
  199200   -954.41906    37.308053   -917.11101    1336.2392   -9145.8614    2.1758141  0.098042737   0.10808406 
  199300   -955.50017    42.544683   -912.95549    1523.7963    1116.8021    2.2032534   0.12070519   0.11443435 
  199400   -950.80671      40.9314   -909.87531    1466.0143    7930.6466    2.2098705  0.063944092   0.10785728 
  199500    -957.3732    40.611724   -916.76148    1454.5647    -392.5607    2.2037555    0.2296763   0.10348053 
  199600   -953.84945    38.359605   -915.48984     1373.902   -6314.0116    2.1838921   0.21178799   0.11210293 
  199700   -949.49872    40.197771   -909.30095    1439.7384   -3430.8993    2.1792982   0.03425137   0.11375893 
  199800   -952.61541    35.441878   -917.17353    1269.3995    6884.8256    2.2145733   0.22237489   0.11788463 
  199900   -956.44694    39.808093   -916.63885    1425.7815    1243.4452    2.2074998   0.25088627   0.10450879 
  200000   -952.14433    38.374837    -913.7695    1374.4475   -2733.9081    2.1899835   0.13922993    0.1050275 
  200100   -953.66844    41.353656   -912.31478     1481.138    -6684.851    2.1797649   0.35486048   0.10778805 
  200200   -956.71293    36.315855   -920.39707    1300.7022    2280.0401    2.2118962   0.23915717   0.09494615 
  200300   -954.53824    38.777328   -915.76091    1388.8633    8070.9171    2.2189132   0.18854362   0.10481512 
  200400   -952.26832    38.719432   -913.54889    1386.7896     2535.037    2.2026128   0.24632645   0.11652186 
  200500   -953.87485    35.555494   -918.31936    1273.4688   -9060.3654    2.1747136  0.031772098   0.11898895 
  200600   -958.37334    39.583771   -918.78957    1417.7471   -12156.331    2.1729629    1.1244258   0.11452523 
  200700   -953.44254    40.025074   -913.41747     1433.553      9459.52     2.216654   0.67857815   0.11493221 
  200800   -952.99058     40.30945   -912.68113    1443.7383    15263.279    2.2336888   0.16340466    0.1178792 
  200900   -956.84844    37.011293   -919.83714    1325.6103   -376.83922    2.2040887   0.21498769   0.10878346 
  201000   -955.10475    39.321619   -915.78313    1408.3578   -9197.7928     2.174201   0.10972362   0.10479233 
  201100   -951.59091    38.518127   -913.07279    1379.5796    206.12007    2.1868288   0.36707836   0.11412148 
  201200   -956.37337    38.678202   -917.69517    1385.3129    2969.0105    2.2104628   0.33290142   0.10162668 
  201300   -954.33624     36.67418   -917.66206    1313.5361    6005.3332    2.2129631   0.15478843   0.10908725 
  201400    -953.6396    42.113525   -911.52608    1508.3537   -4357.9877    2.1838334   0.40520154   0.10913014 
  201500   -952.00229    35.154706   -916.84759    1259.1141   -3782.2399    2.1856955   0.29042302   0.11124807 
  201600   -957.85792    41.253107   -916.60481    1477.5367     -2108.47    2.1968439   0.16977981   0.10037231 
  201700   -950.88593    41.426107   -909.45983    1483.7329    3864.9245    2.1968038   0.23765885   0.11335466 
  201800   -955.66156     39.26611   -916.39544    1406.3697    3224.2297    2.2090054   0.14715711   0.10563564 
  201900   -956.92989    40.494578   -916.43531    1450.3689   -1522.0257     2.193434  0.093165887  0.094691249 
  202000   -951.63935    41.774892   -909.86445    1496.2251    -6449.142    2.1684604   0.35201936   0.11541465 
  202100   -955.90946    38.410702   -917.49876     1375.732    381.35882    2.1989475   0.38283124  0.097509547 
  202200   -955.02212    38.620103   -916.40201     1383.232      8940.58    2.2199418   0.15457861   0.10875991 
  202300   -953.44527    41.545718   -911.89955     1488.017    4911.7989    2.2060174   0.24213349   0.10380974 
  202400    -955.6407    40.211056   -915.42964    1440.2142   -9653.4709    2.1741332   0.38420325   0.10430843 
  202500   -955.01736     36.12947   -918.88789    1294.0266    -11619.11    2.1663562   0.16945475   0.10912278 
  202600   -952.95262    39.240226   -913.71239    1405.4426    2423.4916    2.2000482  0.046970291   0.11358436 
  202700    -954.3524    39.747857   -914.60455    1423.6241    13233.614    2.2298896  0.064627674   0.11028757 
  202800   -959.33211    38.263259   -921.06885    1370.4512     4514.693    2.2187002   0.17617185   0.10005516 
  202900   -953.51467    39.521815   -913.99286    1415.5281   -6651.0867    2.1778613   0.31119632   0.11677979 
  203000   -954.89665    40.202059   -914.69459     1439.892   -7009.6505     2.180128   0.17706414    0.1072278 
  203100   -957.14706    37.019368   -920.12769    1325.8995    1688.3616    2.2069372   0.22149993   0.11004843 
  203200   -954.15373     40.70909   -913.44464     1458.052    6231.7794    2.2079934   0.25180814  0.091957441 
Loop time of 144.424 on 1 procs for 200000 steps with 217 atoms

Performance: 358.942 ns/day, 0.067 hours/ns, 1384.808 timesteps/s
100.0% CPU use with 1 MPI tasks x no OpenMP threads

MPI task timing breakdown:
Section |  min time  |  avg time  |  max time  |%varavg| %total
---------------------------------------------------------------
Pair    | 141.12     | 141.12     | 141.12     |   0.0 | 97.72
Neigh   | 0.23205    | 0.23205    | 0.23205    |   0.0 |  0.16
Comm    | 0.84383    | 0.84383    | 0.84383    |   0.0 |  0.58
Output  | 0.067807   | 0.067807   | 0.067807   |   0.0 |  0.05
Modify  | 1.8553     | 1.8553     | 1.8553     |   0.0 |  1.28
Other   |            | 0.3008     |            |       |  0.21

Nlocal:    217 ave 217 max 217 min
Histogram: 1 0 0 0 0 0 0 0 0 0
Nghost:    957 ave 957 max 957 min
Histogram: 1 0 0 0 0 0 0 0 0 0
Neighs:    4193 ave 4193 max 4193 min
Histogram: 1 0 0 0 0 0 0 0 0 0
FullNghs:  8386 ave 8386 max 8386 min
Histogram: 1 0 0 0 0 0 0 0 0 0

Total # of neighbors = 8386
Ave neighs/atom = 38.6452
Neighbor list builds = 392
Dangerous builds = 0
Total wall time: 0:02:26
