LAMMPS (3 Mar 2020)
Reading data file ...
  orthogonal box = (0 0 0) to (17.469 17.469 17.469)
  1 by 1 by 1 MPI processor grid
  reading atoms ...
  217 atoms
  read_data CPU = 0.000981949 secs
Reading potential file library.meam with DATE: 2012-06-29
Reading potential file LiSi.meam with DATE: 2020-11-07
1 atoms in group Li
Neighbor list info ...
  update every 1 steps, delay 10 steps, check yes
  max neighbors/atom: 2000, page size: 100000
  master list distance cutoff = 6
  ghost atom cutoff = 6
  binsize = 3, bins = 6 6 6
  2 neighbor lists, perpetual/occasional/extra = 2 0 0
  (1) pair meam/c, perpetual
      attributes: full, newton on
      pair build: full/bin/atomonly
      stencil: full/bin/3d
      bin: standard
  (2) pair meam/c, perpetual, half/full from (1)
      attributes: half, newton on
      pair build: halffull/newton
      stencil: none
      bin: none
Setting up Verlet run ...
  Unit style    : metal
  Current step  : 0
  Time step     : 0.00189635
Per MPI rank memory allocation (min/avg/max) = 9.27 | 9.27 | 9.27 Mbytes
Step PotEng KinEng TotEng Temp Press Density c_msdli[4] 
       0   -951.04357    50.256344   -900.78722         1800   -114161.75    1.8918427            0 
     100   -928.45072    27.750657   -900.70007    993.92789   -93254.995    1.8918427   0.06583256 
     200    -925.5814    24.895477   -900.68592     891.6657   -91686.459    1.8918427  0.019976504 
     300   -926.89026    26.198755   -900.69151    938.34439   -93245.977    1.8918427    0.1842325 
     400   -925.71588    25.025529   -900.69035    896.32369   -92259.321    1.8918427  0.097129891 
     500   -926.92734    26.244684   -900.68266    939.98942   -90600.328    1.8918427  0.062966149 
     600   -927.13783       26.444   -900.69383    947.12819   -93701.422    1.8918427  0.073379128 
     700   -926.02116    25.327284   -900.69387    907.13146    -92934.87    1.8918427  0.026374173 
     800     -928.979    28.289358   -900.68964    1013.2222   -93425.367    1.8918427   0.15038073 
     900   -926.97167     26.27853   -900.69314    941.20165   -92670.574    1.8918427  0.021242368 
    1000   -925.56781    24.877542   -900.69026    891.02333    -91994.84    1.8918427    0.1089606 
    1100   -925.10452    24.417263   -900.68726     874.5378   -91656.731    1.8918427  0.013765876 
    1200   -927.09199    26.396525   -900.69547     945.4278   -92893.296    1.8918427  0.062617262 
    1300   -928.68055    27.973623   -900.70693    1001.9137   -92632.503    1.8918427  0.020753325 
    1400   -927.59095    26.882611   -900.70834    962.83763   -92409.995    1.8918427  0.044278088 
    1500   -926.43021    25.733824   -900.69639    921.69226   -91562.439    1.8918427   0.13479674 
    1600   -926.26022    25.569125    -900.6911    915.79332   -92034.597    1.8918427  0.022779662 
    1700   -926.89464    26.196604   -900.69803    938.26737    -91844.97    1.8918427  0.050961838 
    1800   -927.63467    26.939132   -900.69554      964.862   -92986.629    1.8918427  0.022276276 
    1900   -926.19891    25.508748   -900.69017    913.63084   -93105.208    1.8918427  0.036582718 
    2000    -926.9465    26.243597   -900.70291    939.95048   -94005.007    1.8918427  0.022217576 
    2100   -927.04044    26.353626   -900.68681    943.89132   -93116.696    1.8918427  0.009570408 
    2200   -928.35563    27.657664   -900.69796    990.59723   -94375.915    1.8918427  0.071453369 
    2300    -926.9232    26.234385   -900.68882    939.62053   -93677.712    1.8918427  0.074220298 
    2400   -926.47181    25.783105   -900.68871    923.45732   -93527.677    1.8918427  0.028068412 
    2500   -926.61936    25.926113   -900.69325    928.57936   -93175.696    1.8918427   0.12923564 
    2600   -927.90498    27.213045   -900.69194    974.67259   -94580.202    1.8918427   0.11578171 
    2700   -926.51574    25.824042    -900.6917    924.92354   -92197.526    1.8918427 0.0079707899 
    2800   -925.59855    24.914211   -900.68434    892.33668   -92117.863    1.8918427  0.025668684 
    2900   -928.08861    27.392634   -900.69597    981.10482   -93712.444    1.8918427  0.028292706 
    3000   -927.35153    26.661517   -900.69001    954.91885   -92518.842    1.8918427  0.017926994 
    3100   -927.32328    26.617308   -900.70598    953.33544   -93972.439    1.8918427  0.077290019 
    3200   -926.14914    25.468202   -900.68093    912.17864   -93082.981    1.8918427    0.0343748 
    3300   -927.29972    26.599545   -900.70017    952.69925   -94304.707    1.8918427  0.015449521 
    3400   -926.80043    26.108971   -900.69146    935.12865   -93769.953    1.8918427  0.031483281 
    3500   -927.26996    26.578861    -900.6911     951.9584   -93793.143    1.8918427  0.025968665 
    3600   -924.79706    24.115477   -900.68158    863.72894   -92443.253    1.8918427   0.04356028 
    3700   -924.71346    24.036354   -900.67711    860.89504   -91977.308    1.8918427   0.16248173 
    3800   -927.12609    26.424108   -900.70198    946.41574   -94079.087    1.8918427  0.084761415 
    3900   -927.62247     26.93368   -900.68879    964.66673   -93904.103    1.8918427   0.15361797 
    4000   -926.53093    25.850558   -900.68037    925.87322   -93362.025    1.8918427   0.11568855 
    4100   -925.53081     24.83937   -900.69144    889.65614   -93031.669    1.8918427 0.0044151084 
    4200   -927.26547    26.567224   -900.69825    951.54162    -93850.09    1.8918427  0.010483591 
    4300   -925.89447     25.21016   -900.68431    902.93652   -92938.703    1.8918427  0.063599771 
    4400   -925.65949    24.968669   -900.69082    894.28718   -92640.583    1.8918427  0.080375416 
    4500   -926.92649    26.224951   -900.70153    939.28265   -93873.488    1.8918427   0.11957202 
    4600   -926.34879     25.66211   -900.68668    919.12371   -93758.862    1.8918427   0.01018342 
    4700   -926.84339    26.160185    -900.6832    936.96294   -93287.574    1.8918427   0.13236488 
    4800   -926.03469    25.338894   -900.69579    907.54731   -94172.547    1.8918427    0.1215628 
    4900   -925.04924    24.356312   -900.69293    872.35477   -92581.639    1.8918427 0.0078579065 
    5000   -926.16025    25.469439   -900.69081    912.22294   -92600.109    1.8918427  0.064443436 
    5100    -924.8004    24.118032   -900.68237    863.82044   -93051.539    1.8918427  0.023094867 
    5200   -927.20896    26.517361    -900.6916     949.7557   -93082.998    1.8918427   0.06476619 
    5300   -926.73831    26.047632   -900.69068     932.9317   -94435.064    1.8918427   0.01745091 
    5400   -925.81907    25.123471    -900.6956    899.83162   -93260.965    1.8918427  0.061737121 
    5500   -927.07684    26.383431   -900.69341    944.95883   -94389.505    1.8918427  0.038225477 
    5600   -926.75478    26.061241   -900.69354    933.41916   -92956.921    1.8918427  0.025278961 
    5700   -925.50328    24.814993   -900.68829    888.78305   -90547.881    1.8918427   0.18328104 
    5800   -926.72874    26.038962   -900.68978    932.62117   -93511.972    1.8918427  0.026731569 
    5900   -926.20475    25.524761   -900.67999    914.20436   -93768.293    1.8918427  0.051586574 
    6000   -926.86193    26.171639   -900.69029     937.3732   -94095.898    1.8918427 0.0031509008 
    6100   -926.04729    25.356695   -900.69059    908.18487   -92648.945    1.8918427  0.088309358 
    6200   -925.13567    24.447952   -900.68772    875.63699   -91576.304    1.8918427  0.042779577 
    6300   -925.71388    25.022534   -900.69135    896.21642   -92468.141    1.8918427  0.020783435 
    6400   -924.18557    23.501155   -900.68442    841.72614   -91215.891    1.8918427  0.049323683 
    6500    -927.3762    26.672401    -900.7038    955.30866   -95261.845    1.8918427   0.10247539 
    6600   -927.45026    26.752336   -900.69793    958.17165   -94805.727    1.8918427  0.046744315 
    6700   -927.35624    26.664672   -900.69157    955.03186   -93148.749    1.8918427  0.022895951 
    6800   -926.22285    25.530629   -900.69222    914.41453   -92627.022    1.8918427  0.024177341 
    6900   -927.50424    26.806626   -900.69762    960.11612   -94582.425    1.8918427  0.025338429 
    7000   -927.33296    26.630739   -900.70222    953.81651   -93721.357    1.8918427 0.0057623968 
    7100   -927.40315    26.716855   -900.68629    956.90086   -94627.691    1.8918427   0.13979556 
    7200   -928.65245    27.954598   -900.69786    1001.2323    -94828.19    1.8918427  0.046585899 
    7300   -927.71213    27.014241   -900.69789    967.55215   -93609.697    1.8918427  0.055485669 
    7400   -927.45493    26.759661   -900.69526    958.43402   -94400.513    1.8918427   0.33493431 
    7500   -926.12284    25.431038   -900.69181    910.84757   -93979.366    1.8918427   0.27349768 
    7600   -927.89579    27.198588    -900.6972    974.15478   -95932.475    1.8918427   0.12734108 
    7700   -927.27349    26.568433   -900.70506    951.58491   -94109.327    1.8918427   0.02826725 
    7800   -926.87228    26.183286   -900.68899    937.79035   -93846.218    1.8918427  0.050896311 
    7900   -925.85706    25.175766   -900.68129    901.70465   -92826.891    1.8918427  0.036533723 
    8000   -926.59412    25.901038   -900.69309    927.68127    -92724.12    1.8918427   0.05411426 
    8100   -926.43677    25.738964   -900.69781    921.87636   -93991.409    1.8918427  0.054091593 
    8200   -924.09556    23.419487   -900.67608    838.80108   -90462.991    1.8918427  0.021652536 
    8300   -924.12992    23.443508   -900.68641    839.66143   -91479.074    1.8918427  0.081814958 
    8400   -927.80067    27.100858   -900.69981    970.65444   -94935.244    1.8918427    0.1113426 
    8500   -926.18507    25.497524   -900.68755    913.22883   -93954.883    1.8918427 0.0027157483 
    8600   -926.51361    25.816595   -900.69702    924.65679   -93624.889    1.8918427  0.023947104 
    8700   -927.78446    27.086811   -900.69765    970.15133   -93930.886    1.8918427 0.0048540107 
    8800   -925.21513      24.5356   -900.67953    878.77621   -92007.309    1.8918427  0.028964816 
    8900   -926.44495    25.755178   -900.68977    922.45706   -94052.166    1.8918427  0.038936143 
    9000   -927.14254    26.452624   -900.68991    947.43708   -93257.969    1.8918427  0.018975407 
    9100   -926.06544     25.37748   -900.68796    908.92929   -93976.592    1.8918427   0.10339433 
    9200   -924.87775    24.207696   -900.67005    867.03189   -90251.943    1.8918427  0.040912288 
    9300   -926.46783    25.781167   -900.68666    923.38791   -93010.829    1.8918427 0.0017794197 
    9400   -927.80764     27.11312   -900.69452    971.09363   -95412.757    1.8918427   0.12966555 
    9500   -927.70777    27.017982   -900.68978    967.68612   -93467.937    1.8918427   0.17190072 
    9600   -926.31999    25.629431   -900.69056    917.95327   -92992.035    1.8918427  0.019952787 
    9700   -929.39116    28.684466    -900.7067    1027.3736   -94512.126    1.8918427   0.02290473 
    9800   -925.17642    24.493093   -900.68333    877.25375   -91133.328    1.8918427  0.019422377 
    9900   -926.72219    26.023301   -900.69889    932.06026   -93109.203    1.8918427  0.081291047 
   10000   -926.30821     25.61164   -900.69657    917.31608   -92774.844    1.8918427  0.054461455 
   10100   -926.62791    25.935111   -900.69279    928.90163   -92050.625    1.8918427  0.099055653 
   10200   -928.46595    27.757832   -900.70812    994.18488   -93958.176    1.8918427   0.05978864 
   10300   -926.77836    26.091215   -900.68715     934.4927   -93362.945    1.8918427   0.14689946 
   10400   -926.63768    25.934443   -900.70323    928.87768   -94503.379    1.8918427   0.23068715 
   10500   -926.22773    25.531965   -900.69576    914.46239   -92463.928    1.8918427  0.098954066 
   10547   -926.62332    25.934778   -900.68854    928.88969   -93111.551    1.8918427  0.089467629 
Loop time of 5.5569 on 1 procs for 10547 steps with 217 atoms

Performance: 310.977 ns/day, 0.077 hours/ns, 1898.001 timesteps/s
100.0% CPU use with 1 MPI tasks x no OpenMP threads

MPI task timing breakdown:
Section |  min time  |  avg time  |  max time  |%varavg| %total
---------------------------------------------------------------
Pair    | 5.4706     | 5.4706     | 5.4706     |   0.0 | 98.45
Neigh   | 0.0027575  | 0.0027575  | 0.0027575  |   0.0 |  0.05
Comm    | 0.043208   | 0.043208   | 0.043208   |   0.0 |  0.78
Output  | 0.0030162  | 0.0030162  | 0.0030162  |   0.0 |  0.05
Modify  | 0.022701   | 0.022701   | 0.022701   |   0.0 |  0.41
Other   |            | 0.0146     |            |       |  0.26

Nlocal:    217 ave 217 max 217 min
Histogram: 1 0 0 0 0 0 0 0 0 0
Nghost:    930 ave 930 max 930 min
Histogram: 1 0 0 0 0 0 0 0 0 0
Neighs:    3604 ave 3604 max 3604 min
Histogram: 1 0 0 0 0 0 0 0 0 0
FullNghs:  7208 ave 7208 max 7208 min
Histogram: 1 0 0 0 0 0 0 0 0 0

Total # of neighbors = 7208
Ave neighs/atom = 33.2166
Neighbor list builds = 5
Dangerous builds = 0
Total wall time: 0:00:05
