LAMMPS (3 Mar 2020)
Reading data file ...
  orthogonal box = (0 0 0) to (20.45 20.45 20.45)
  1 by 1 by 1 MPI processor grid
  reading atoms ...
  500 atoms
  read_data CPU = 0.00125887 secs
Reading potential file /usr/share/lammps-stable/potentials/Ag_u3.eam with DATE: 2007-06-11
Neighbor list info ...
  update every 1 steps, delay 10 steps, check yes
  max neighbors/atom: 2000, page size: 100000
  master list distance cutoff = 7.55
  ghost atom cutoff = 7.55
  binsize = 3.775, bins = 6 6 6
  2 neighbor lists, perpetual/occasional/extra = 1 1 0
  (1) pair eam, perpetual
      attributes: half, newton on
      pair build: half/bin/atomonly/newton
      stencil: half/bin/3d/newton
      bin: standard
  (2) compute rdf, occasional, copy from (1)
      attributes: half, newton on
      pair build: copy
      stencil: none
      bin: none
Setting up Verlet run ...
  Unit style    : metal
  Current step  : 0
  Time step     : 0.005
Per MPI rank memory allocation (min/avg/max) = 3.769 | 3.769 | 3.769 Mbytes
Step PotEng KinEng TotEng Temp Press Density c_msdall[4] 
       0        -1425    161.25203    -1263.748         2500    20139.241    10.472245            0 
     100   -1318.4186    99.969451   -1218.4492    1549.8944    90370.635    10.472245   0.14205565 
     200   -1284.7293    137.82155   -1146.9078    2136.7413    117982.52    10.472245   0.21476376 
     300   -1255.4698    169.85555   -1085.6143    2633.3862    139466.19    10.472245   0.24127484 
     400   -1244.3228    165.86173   -1078.4611    2571.4672    147585.99    10.472245   0.38271806 
     500   -1252.1739    163.56301   -1088.6109    2535.8287    141496.67    10.472245    0.3167948 
     600   -1256.8091     154.6408   -1102.1683    2397.5016    138077.37    10.472245   0.25965714 
     700   -1250.2133    154.62153   -1095.5918    2397.2028    141450.05    10.472245   0.28721207 
     800   -1250.6484    162.03688   -1088.6115     2512.168    143031.06    10.472245   0.32822441 
     900    -1261.951    172.40401    -1089.547    2672.8967     136513.6    10.472245   0.27623032 
    1000   -1257.8696    161.15386   -1096.7157     2498.478     137241.8    10.472245   0.24508973 
    1100   -1261.5504     165.4026   -1096.1478     2564.349    136146.08    10.472245   0.29865974 
    1200   -1252.0327    168.42576   -1083.6069    2611.2192    145222.78    10.472245   0.28150713 
    1300   -1260.9041     160.7525   -1100.1516    2492.2554    137100.45    10.472245   0.24200569 
    1400   -1264.9613    160.44402   -1104.5173    2487.4729    132939.66    10.472245   0.26311932 
    1500   -1260.2319    166.80623   -1093.4257    2586.1106    136816.45    10.472245   0.27719334 
    1600   -1257.0328    161.65179    -1095.381    2506.1977     139008.1    10.472245   0.26154645 
    1700   -1267.7532    157.60773   -1110.1455       2443.5    131330.91    10.472245   0.26844135 
    1800   -1258.2661    160.37446   -1097.8916    2486.3945    138218.11    10.472245   0.25161011 
    1900   -1249.4575    156.70933   -1092.7481    2429.5715    143588.34    10.472245   0.28469908 
    2000   -1263.8376    157.19038   -1106.6472    2437.0294    134959.73    10.472245   0.27479411 
    2100   -1251.1296    152.87506   -1098.2545    2370.1262       141848    10.472245    0.2549529 
    2200   -1247.0742    160.62758   -1086.4466    2490.3188    147096.61    10.472245   0.30733062 
    2300   -1262.6627    155.97773    -1106.685    2418.2289    134265.03    10.472245   0.28605005 
    2400   -1259.1713    156.74487   -1102.4264    2430.1224    136229.11    10.472245   0.28947612 
    2500   -1253.8246    159.55838   -1094.2662    2473.7422    141326.98    10.472245   0.27056054 
    2600    -1258.957    161.17133   -1097.7857    2498.7489    137442.86    10.472245   0.29588705 
    2700   -1258.0589    149.42138   -1108.6375    2316.5814    136879.68    10.472245    0.3071031 
    2800   -1245.3483    157.99262   -1087.3556    2449.4672    144805.98    10.472245   0.42041578 
    2900   -1248.2296    161.64814   -1086.5814    2506.1412    144815.31    10.472245   0.46807522 
    3000   -1252.7931    147.50536   -1105.2877     2286.876     140280.8    10.472245   0.50944085 
    3100    -1241.603    158.38228   -1083.2207    2455.5083    147774.53    10.472245   0.66652747 
    3200   -1245.2956    163.70746   -1081.5881    2538.0683    146867.38    10.472245    0.6285666 
    3300   -1244.6442    150.22878   -1094.4154    2329.0991    145515.82    10.472245   0.69908235 
    3400    -1247.106    172.08322   -1075.0228    2667.9232    146358.95    10.472245   0.76751507 
    3500   -1247.9549    157.54927   -1090.4056    2442.5935    143755.11    10.472245   0.74498767 
    3600   -1257.6182    161.18813   -1096.4301    2499.0093    137710.69    10.472245   0.71450635 
    3700   -1253.4692    164.50821    -1088.961    2550.4827    142093.55    10.472245   0.78670012 
    3800   -1243.6185    165.03728   -1078.5812    2558.6854    147239.67    10.472245   0.85543882 
    3900   -1257.5422    159.27971   -1098.2625    2469.4217    136962.05    10.472245   0.80745165 
    4000   -1262.0921    161.34253   -1100.7496    2501.4031    135661.57    10.472245   0.89277584 
    4100   -1244.9467    160.76572    -1084.181    2492.4604    145708.19    10.472245   0.90857911 
    4200   -1253.4193    160.53945   -1092.8798    2488.9524    141002.26    10.472245    0.8821749 
    4300   -1245.0775     157.0468   -1088.0307    2434.8035    147428.64    10.472245   0.90833126 
    4400   -1239.5862    159.73306   -1079.8531    2476.4503    150286.85    10.472245   0.92128909 
    4500   -1254.0237    157.22784   -1096.7959    2437.6102     140648.6    10.472245   0.91948495 
    4600   -1252.7628    162.21232   -1090.5505     2514.888    141233.37    10.472245    0.8269831 
    4700   -1244.6615    165.05586   -1079.6056    2558.9733    148210.17    10.472245   0.84513251 
    4800   -1250.8051    148.50663   -1102.2985    2302.3994    141332.77    10.472245   0.88419795 
    4900   -1254.6224     160.7694    -1093.853    2492.5174    139457.61    10.472245   0.85328973 
    5000   -1246.7361    169.95741   -1076.7787    2634.9655    145364.13    10.472245   0.98984458 
    5100    -1260.092    166.87887   -1093.2132    2587.2367    136706.79    10.472245   0.80368028 
    5200   -1250.6332    149.05305   -1101.5801    2310.8709     142283.7    10.472245   0.90716177 
    5300   -1249.2323    165.73384   -1083.4985    2569.4845    142745.16    10.472245   0.82944721 
    5400   -1256.1813      161.219   -1094.9623    2499.4879    140383.58    10.472245   0.92058719 
    5500   -1258.6511    165.19398   -1093.4571    2561.1147    138180.56    10.472245    0.8204027 
    5600   -1248.3709    173.49036   -1074.8805    2689.7392    146364.39    10.472245   0.84620373 
    5700   -1252.5979    165.70572   -1086.8922    2569.0486    143014.58    10.472245   0.89463255 
    5800   -1256.9411    165.37046   -1091.5706    2563.8508    138702.52    10.472245   0.84662944 
    5900   -1259.5694    159.86668   -1099.7028     2478.522    137666.84    10.472245   0.77658136 
    6000   -1259.2305    166.51412   -1092.7163    2581.5817    138683.28    10.472245   0.89973411 
    6100   -1255.6994    171.51544    -1084.184    2659.1206    139489.48    10.472245   0.88415514 
    6200   -1264.9719    158.12466   -1106.8473    2451.5143    134134.79    10.472245    0.8429837 
    6300   -1252.4839      157.883   -1094.6009    2447.7676     141640.4    10.472245     0.831799 
    6400   -1245.5367    154.37563   -1091.1611    2393.3905     145049.3    10.472245   0.88183695 
    6500   -1249.3345    155.43437   -1093.9001    2409.8049    143832.19    10.472245   0.77611008 
    6600   -1271.5402     156.0545   -1115.4857    2419.4191    128174.06    10.472245   0.80899252 
    6700   -1251.8022    152.32384   -1099.4784    2361.5802    141618.58    10.472245   0.85479627 
    6800   -1251.7188    163.22181    -1088.497    2530.5388     142280.1    10.472245   0.93261441 
    6900   -1258.4273    154.99629    -1103.431     2403.013    136715.05    10.472245    0.8866256 
    7000   -1255.0822    150.71653   -1104.3657     2336.661    139585.35    10.472245   0.81719414 
    7100   -1256.4009    164.32213   -1092.0788    2547.5978     139423.9    10.472245   0.82209192 
    7200   -1268.6829    171.05193   -1097.6309    2651.9345    132057.34    10.472245   0.81924187 
    7300   -1261.7902    150.77795   -1111.0123    2337.6133    134424.33    10.472245   0.85569306 
    7400   -1252.7184    162.17223   -1090.5462    2514.2665    141113.51    10.472245   0.86293143 
    7500   -1252.5565      162.589   -1089.9675     2520.728    142673.98    10.472245   0.83236611 
    7600   -1259.6496     151.6849   -1107.9647    2351.6743    135872.97    10.472245   0.83900542 
    7700   -1256.5842    158.42615    -1098.158    2456.1884    138818.62    10.472245   0.85599014 
    7800   -1262.8513    166.77832    -1096.073    2585.6778    134464.26    10.472245   0.77456866 
    7900     -1270.02    154.55775   -1115.4623    2396.2139    129414.12    10.472245   0.81030861 
    8000   -1256.5531    158.87837   -1097.6747    2463.1996     139056.4    10.472245   0.82157445 
    8100   -1257.0581    162.97945   -1094.0786    2526.7814    138634.45    10.472245   0.81102395 
    8200   -1262.4296    165.49171   -1096.9379    2565.7306    135456.65    10.472245   0.81817209 
    8300   -1254.1607    172.26955   -1081.8912     2670.812    142289.67    10.472245   0.82451165 
    8400   -1261.0842    160.35118    -1100.733    2486.0336    135534.72    10.472245   0.85993406 
    8500   -1256.0482    160.54341   -1095.5048    2489.0138    139412.53    10.472245   0.83415843 
    8600   -1252.7819     167.6962   -1085.0857    2599.9083     142947.1    10.472245   0.84029131 
    8700    -1262.117    165.68624   -1096.4308    2568.7466     136406.3    10.472245   0.84763825 
    8800   -1258.3864    155.76017   -1102.6262    2414.8559    136417.31    10.472245   0.81954905 
    8900   -1252.7581    167.06972   -1085.6883    2590.1956    141524.22    10.472245   0.85091137 
    9000    -1257.082    160.75876   -1096.3233    2492.3524    138877.88    10.472245   0.82951904 
    9100   -1264.3537    161.29788   -1103.0558    2500.7109    133618.99    10.472245   0.79498372 
    9200   -1249.7488    171.56556   -1078.1833    2659.8976    146430.03    10.472245   0.84355078 
    9300   -1256.3769    162.75351   -1093.6234    2523.2785    139671.57    10.472245   0.84017055 
    9400   -1264.3487    165.06544   -1099.2833    2559.1218    134626.19    10.472245   0.81368206 
    9500      -1248.2    167.37924   -1080.8207    2594.9942    144847.08    10.472245   0.85451844 
    9600   -1250.0658    162.02615   -1088.0397    2512.0017    144021.61    10.472245   0.89860571 
    9700   -1259.4259    153.32711   -1106.0988    2377.1345    134992.96    10.472245   0.85301359 
    9800   -1253.9831    164.70337   -1089.2797    2553.5085    142633.93    10.472245   0.87657785 
    9900   -1247.8565    162.43563   -1085.4209    2518.3502    144859.03    10.472245   0.91058833 
   10000   -1256.4793    160.81268   -1095.6666    2493.1884    139387.76    10.472245   0.92322222 
Loop time of 14.7216 on 1 procs for 10000 steps with 500 atoms

Performance: 293.446 ns/day, 0.082 hours/ns, 679.273 timesteps/s
100.0% CPU use with 1 MPI tasks x no OpenMP threads

MPI task timing breakdown:
Section |  min time  |  avg time  |  max time  |%varavg| %total
---------------------------------------------------------------
Pair    | 8.7277     | 8.7277     | 8.7277     |   0.0 | 59.28
Neigh   | 0.81591    | 0.81591    | 0.81591    |   0.0 |  5.54
Comm    | 0.12325    | 0.12325    | 0.12325    |   0.0 |  0.84
Output  | 0.0036192  | 0.0036192  | 0.0036192  |   0.0 |  0.02
Modify  | 5.0257     | 5.0257     | 5.0257     |   0.0 | 34.14
Other   |            | 0.02544    |            |       |  0.17

Nlocal:    500 ave 500 max 500 min
Histogram: 1 0 0 0 0 0 0 0 0 0
Nghost:    1977 ave 1977 max 1977 min
Histogram: 1 0 0 0 0 0 0 0 0 0
Neighs:    25952 ave 25952 max 25952 min
Histogram: 1 0 0 0 0 0 0 0 0 0

Total # of neighbors = 25952
Ave neighs/atom = 51.904
Neighbor list builds = 735
Dangerous builds = 4
Total wall time: 0:00:14
