LAMMPS (3 Mar 2020)

    # ---------- Initialize simulation ---------------------
    units metal
    atom_style atomic
    dimension  3
    boundary   p p p
    read_data /home/modeler/RemLabs/Lab4/Problem2A_size_5/temp_2500/lammps.data
  orthogonal box = (0 0 0) to (20.45 20.45 20.45)
  1 by 1 by 1 MPI processor grid
  reading atoms ...
  500 atoms
  read_data CPU = 0.0012756 secs

    pair_style eam
    pair_coeff * * /usr/share/lammps-stable/potentials/Ag_u3.eam
Reading potential file /usr/share/lammps-stable/potentials/Ag_u3.eam with DATE: 2007-06-11

    velocity  all create 2500 87287 dist gaussian

    # ---------- Describe computed properties------------------
    compute msdall all msd
    thermo_style custom step pe ke etotal temp press density c_msdall[4]
    thermo 100

    # ---------- Specify ensemble  ---------------------
    #fix  1 all nve
    fix  1 all nvt temp 2500 2500 0.25

    # --------- Compute RDF ---------------
    compute rdfall all rdf 100 1 1
    fix 2 all ave/time 1 25000 25000 c_rdfall[*] file /home/modeler/RemLabs/Lab4/Problem2A_size_5/temp_2500/lammps.rdf mode vector

    # --------- Run -------------
    timestep 0.005
    run 100000
Neighbor list info ...
  update every 1 steps, delay 10 steps, check yes
  max neighbors/atom: 2000, page size: 100000
  master list distance cutoff = 7.55
  ghost atom cutoff = 7.55
  binsize = 3.775, bins = 6 6 6
  2 neighbor lists, perpetual/occasional/extra = 1 1 0
  (1) pair eam, perpetual
      attributes: half, newton on
      pair build: half/bin/atomonly/newton
      stencil: half/bin/3d/newton
      bin: standard
  (2) compute rdf, occasional, copy from (1)
      attributes: half, newton on
      pair build: copy
      stencil: none
      bin: none
Per MPI rank memory allocation (min/avg/max) = 3.769 | 3.769 | 3.769 Mbytes
Step PotEng KinEng TotEng Temp Press Density c_msdall[4] 
       0        -1425    161.25203    -1263.748         2500    20139.241    10.472245            0 
     100   -1318.4186    99.969451   -1218.4492    1549.8944    90370.635    10.472245   0.14205565 
     200   -1284.7293    137.82155   -1146.9078    2136.7413    117982.52    10.472245   0.21476376 
     300   -1255.4698    169.85555   -1085.6143    2633.3862    139466.19    10.472245   0.24127484 
     400   -1244.3228    165.86173   -1078.4611    2571.4672    147585.99    10.472245   0.38271806 
     500   -1252.1739    163.56301   -1088.6109    2535.8287    141496.67    10.472245    0.3167948 
     600   -1256.8091     154.6408   -1102.1683    2397.5016    138077.37    10.472245   0.25965714 
     700   -1250.2133    154.62153   -1095.5918    2397.2028    141450.05    10.472245   0.28721207 
     800   -1250.6484    162.03688   -1088.6115     2512.168    143031.06    10.472245   0.32822441 
     900    -1261.951    172.40401    -1089.547    2672.8967     136513.6    10.472245   0.27623032 
    1000   -1257.8696    161.15386   -1096.7157     2498.478     137241.8    10.472245   0.24508973 
    1100   -1261.5504     165.4026   -1096.1478     2564.349    136146.08    10.472245   0.29865974 
    1200   -1252.0327    168.42576   -1083.6069    2611.2192    145222.78    10.472245   0.28150713 
    1300   -1260.9041     160.7525   -1100.1516    2492.2554    137100.45    10.472245   0.24200569 
    1400   -1264.9613    160.44402   -1104.5173    2487.4729    132939.66    10.472245   0.26311932 
    1500   -1260.2319    166.80623   -1093.4257    2586.1106    136816.45    10.472245   0.27719334 
    1600   -1257.0328    161.65179    -1095.381    2506.1977     139008.1    10.472245   0.26154645 
    1700   -1267.7532    157.60773   -1110.1455       2443.5    131330.91    10.472245   0.26844135 
    1800   -1258.2661    160.37446   -1097.8916    2486.3945    138218.11    10.472245   0.25161011 
    1900   -1249.4575    156.70933   -1092.7481    2429.5715    143588.34    10.472245   0.28469908 
    2000   -1263.8376    157.19038   -1106.6472    2437.0294    134959.73    10.472245   0.27479411 
    2100   -1251.1296    152.87506   -1098.2545    2370.1262       141848    10.472245    0.2549529 
    2200   -1247.0742    160.62758   -1086.4466    2490.3188    147096.61    10.472245   0.30733062 
    2300   -1262.6627    155.97773    -1106.685    2418.2289    134265.03    10.472245   0.28605005 
    2400   -1259.1713    156.74487   -1102.4264    2430.1224    136229.11    10.472245   0.28947612 
    2500   -1253.8246    159.55838   -1094.2662    2473.7422    141326.98    10.472245   0.27056054 
    2600    -1258.957    161.17133   -1097.7857    2498.7489    137442.86    10.472245   0.29588705 
    2700   -1258.0589    149.42138   -1108.6375    2316.5814    136879.68    10.472245    0.3071031 
    2800   -1245.3483    157.99262   -1087.3556    2449.4672    144805.98    10.472245   0.42041578 
    2900   -1248.2296    161.64814   -1086.5814    2506.1412    144815.31    10.472245   0.46807522 
    3000   -1252.7931    147.50536   -1105.2877     2286.876     140280.8    10.472245   0.50944085 
    3100    -1241.603    158.38228   -1083.2207    2455.5083    147774.53    10.472245   0.66652747 
    3200   -1245.2956    163.70746   -1081.5881    2538.0683    146867.38    10.472245    0.6285666 
    3300   -1244.6442    150.22878   -1094.4154    2329.0991    145515.82    10.472245   0.69908235 
    3400    -1247.106    172.08322   -1075.0228    2667.9232    146358.95    10.472245   0.76751507 
    3500   -1247.9549    157.54927   -1090.4056    2442.5935    143755.11    10.472245   0.74498767 
    3600   -1257.6182    161.18813   -1096.4301    2499.0093    137710.69    10.472245   0.71450635 
    3700   -1253.4692    164.50821    -1088.961    2550.4827    142093.55    10.472245   0.78670012 
    3800   -1243.6185    165.03728   -1078.5812    2558.6854    147239.67    10.472245   0.85543882 
    3900   -1257.5422    159.27971   -1098.2625    2469.4217    136962.05    10.472245   0.80745165 
    4000   -1262.0921    161.34253   -1100.7496    2501.4031    135661.57    10.472245   0.89277584 
    4100   -1244.9467    160.76572    -1084.181    2492.4604    145708.19    10.472245   0.90857911 
    4200   -1253.4193    160.53945   -1092.8798    2488.9524    141002.26    10.472245    0.8821749 
    4300   -1245.0775     157.0468   -1088.0307    2434.8035    147428.64    10.472245   0.90833126 
    4400   -1239.5862    159.73306   -1079.8531    2476.4503    150286.85    10.472245   0.92128909 
    4500   -1254.0237    157.22784   -1096.7959    2437.6102     140648.6    10.472245   0.91948495 
    4600   -1252.7628    162.21232   -1090.5505     2514.888    141233.37    10.472245    0.8269831 
    4700   -1244.6615    165.05586   -1079.6056    2558.9733    148210.17    10.472245   0.84513251 
    4800   -1250.8051    148.50663   -1102.2985    2302.3994    141332.77    10.472245   0.88419795 
    4900   -1254.6224     160.7694    -1093.853    2492.5174    139457.61    10.472245   0.85328973 
    5000   -1246.7361    169.95741   -1076.7787    2634.9655    145364.13    10.472245   0.98984458 
    5100    -1260.092    166.87887   -1093.2132    2587.2367    136706.79    10.472245   0.80368028 
    5200   -1250.6332    149.05305   -1101.5801    2310.8709     142283.7    10.472245   0.90716177 
    5300   -1249.2323    165.73384   -1083.4985    2569.4845    142745.16    10.472245   0.82944721 
    5400   -1256.1813      161.219   -1094.9623    2499.4879    140383.58    10.472245   0.92058719 
    5500   -1258.6511    165.19398   -1093.4571    2561.1147    138180.56    10.472245    0.8204027 
    5600   -1248.3709    173.49036   -1074.8805    2689.7392    146364.39    10.472245   0.84620373 
    5700   -1252.5979    165.70572   -1086.8922    2569.0486    143014.58    10.472245   0.89463255 
    5800   -1256.9411    165.37046   -1091.5706    2563.8508    138702.52    10.472245   0.84662944 
    5900   -1259.5694    159.86668   -1099.7028     2478.522    137666.84    10.472245   0.77658136 
    6000   -1259.2305    166.51412   -1092.7163    2581.5817    138683.28    10.472245   0.89973411 
    6100   -1255.6994    171.51544    -1084.184    2659.1206    139489.48    10.472245   0.88415514 
    6200   -1264.9719    158.12466   -1106.8473    2451.5143    134134.79    10.472245    0.8429837 
    6300   -1252.4839      157.883   -1094.6009    2447.7676     141640.4    10.472245     0.831799 
    6400   -1245.5367    154.37563   -1091.1611    2393.3905     145049.3    10.472245   0.88183695 
    6500   -1249.3345    155.43437   -1093.9001    2409.8049    143832.19    10.472245   0.77611008 
    6600   -1271.5402     156.0545   -1115.4857    2419.4191    128174.06    10.472245   0.80899252 
    6700   -1251.8022    152.32384   -1099.4784    2361.5802    141618.58    10.472245   0.85479627 
    6800   -1251.7188    163.22181    -1088.497    2530.5388     142280.1    10.472245   0.93261441 
    6900   -1258.4273    154.99629    -1103.431     2403.013    136715.05    10.472245    0.8866256 
    7000   -1255.0822    150.71653   -1104.3657     2336.661    139585.35    10.472245   0.81719414 
    7100   -1256.4009    164.32213   -1092.0788    2547.5978     139423.9    10.472245   0.82209192 
    7200   -1268.6829    171.05193   -1097.6309    2651.9345    132057.34    10.472245   0.81924187 
    7300   -1261.7902    150.77795   -1111.0123    2337.6133    134424.33    10.472245   0.85569306 
    7400   -1252.7184    162.17223   -1090.5462    2514.2665    141113.51    10.472245   0.86293143 
    7500   -1252.5565      162.589   -1089.9675     2520.728    142673.98    10.472245   0.83236611 
    7600   -1259.6496     151.6849   -1107.9647    2351.6743    135872.97    10.472245   0.83900542 
    7700   -1256.5842    158.42615    -1098.158    2456.1884    138818.62    10.472245   0.85599014 
    7800   -1262.8513    166.77832    -1096.073    2585.6778    134464.26    10.472245   0.77456866 
    7900     -1270.02    154.55775   -1115.4623    2396.2139    129414.12    10.472245   0.81030861 
    8000   -1256.5531    158.87837   -1097.6747    2463.1996     139056.4    10.472245   0.82157445 
    8100   -1257.0581    162.97945   -1094.0786    2526.7814    138634.45    10.472245   0.81102395 
    8200   -1262.4296    165.49171   -1096.9379    2565.7306    135456.65    10.472245   0.81817209 
    8300   -1254.1607    172.26955   -1081.8912     2670.812    142289.67    10.472245   0.82451165 
    8400   -1261.0842    160.35118    -1100.733    2486.0336    135534.72    10.472245   0.85993406 
    8500   -1256.0482    160.54341   -1095.5048    2489.0138    139412.53    10.472245   0.83415843 
    8600   -1252.7819     167.6962   -1085.0857    2599.9083     142947.1    10.472245   0.84029131 
    8700    -1262.117    165.68624   -1096.4308    2568.7466     136406.3    10.472245   0.84763825 
    8800   -1258.3864    155.76017   -1102.6262    2414.8559    136417.31    10.472245   0.81954905 
    8900   -1252.7581    167.06972   -1085.6883    2590.1956    141524.22    10.472245   0.85091137 
    9000    -1257.082    160.75876   -1096.3233    2492.3524    138877.88    10.472245   0.82951904 
    9100   -1264.3537    161.29788   -1103.0558    2500.7109    133618.99    10.472245   0.79498372 
    9200   -1249.7488    171.56556   -1078.1833    2659.8976    146430.03    10.472245   0.84355078 
    9300   -1256.3769    162.75351   -1093.6234    2523.2785    139671.57    10.472245   0.84017055 
    9400   -1264.3487    165.06544   -1099.2833    2559.1218    134626.19    10.472245   0.81368206 
    9500      -1248.2    167.37924   -1080.8207    2594.9942    144847.08    10.472245   0.85451844 
    9600   -1250.0658    162.02615   -1088.0397    2512.0017    144021.61    10.472245   0.89860571 
    9700   -1259.4259    153.32711   -1106.0988    2377.1345    134992.96    10.472245   0.85301359 
    9800   -1253.9831    164.70337   -1089.2797    2553.5085    142633.93    10.472245   0.87657785 
    9900   -1247.8565    162.43563   -1085.4209    2518.3502    144859.03    10.472245   0.91058833 
   10000   -1256.4793    160.81268   -1095.6666    2493.1884    139387.76    10.472245   0.92322222 
   10100   -1254.6211    166.63165   -1087.9894    2583.4039    141945.19    10.472245   0.91348913 
   10200   -1245.8549    154.70687   -1091.1481    2398.5259    145696.23    10.472245   0.96882572 
   10300   -1270.6656    165.58839   -1105.0773    2567.2295    130637.72    10.472245   0.85779844 
   10400   -1263.9656    161.41093   -1102.5547    2502.4635    135053.27    10.472245   0.84997415 
   10500   -1243.4369    158.82217   -1084.6147    2462.3282    147099.41    10.472245    1.0127722 
   10600   -1235.6637     162.6338   -1073.0299    2521.4226     151979.7    10.472245     1.053083 
   10700   -1232.5554    162.23421   -1070.3212    2515.2274    155232.23    10.472245    1.1338359 
   10800   -1247.1963    167.31811   -1079.8782    2594.0466     146471.1    10.472245    1.1595337 
   10900     -1242.33    159.36819   -1082.9618    2470.7936    149218.74    10.472245    1.2500537 
   11000   -1238.0077    165.85932   -1072.1484    2571.4299    151597.17    10.472245    1.3235792 
   11100   -1233.5965    165.74902   -1067.8475    2569.7199    153722.39    10.472245    1.5783715 
   11200   -1244.8732    163.86715   -1081.0061    2540.5439    147980.12    10.472245    1.9031098 
   11300   -1233.1293    168.55318   -1064.5762    2613.1947    156673.62    10.472245    2.0790097 
   11400   -1223.1533    162.35245   -1060.8008    2517.0606    163467.91    10.472245    2.3478038 
   11500   -1216.4438    171.51448   -1044.9294    2659.1057     167689.5    10.472245    2.5850607 
   11600   -1202.1896    157.49407   -1044.6956    2441.7377    174443.74    10.472245    3.0868809 
   11700   -1192.9801    165.24161   -1027.7385    2561.8532    182039.07    10.472245    4.3806801 
   11800   -1199.5402     152.0275   -1047.5127    2356.9858    177389.35    10.472245     5.503772 
   11900   -1200.5235    164.86506   -1035.6584    2556.0153    177980.91    10.472245    6.6753023 
   12000   -1194.3126    160.83143   -1033.4812    2493.4791    179602.46    10.472245    7.5962301 
   12100   -1182.6836    158.81495   -1023.8687    2462.2162    188635.65    10.472245    8.9925905 
   12200    -1184.466    166.58075   -1017.8852    2582.6147    186885.67    10.472245    10.744751 
   12300   -1190.5737    156.02725   -1034.5464    2418.9966    182480.16    10.472245    12.128674 
   12400   -1198.7112    157.44493   -1041.2663    2440.9759    177478.19    10.472245    13.069792 
   12500   -1207.1337    158.20958   -1048.9241    2452.8309    172767.92    10.472245    14.133838 
   12600   -1195.3204    162.39123   -1032.9292    2517.6617    180834.83    10.472245    15.444551 
   12700   -1199.3139    160.07866   -1039.2353    2481.8085    177899.19    10.472245    16.373799 
   12800   -1196.6513    147.27933    -1049.372    2283.3717    177245.58    10.472245    17.307719 
   12900   -1192.9288    163.57635   -1029.3524    2536.0355    182040.55    10.472245    18.512664 
   13000   -1199.4735    161.37681   -1038.0967    2501.9345    177092.17    10.472245    19.691281 
   13100    -1203.241    155.63261   -1047.6084    2412.8783    175452.26    10.472245     21.20301 
   13200   -1197.2425    169.67041    -1027.572    2630.5159    181410.64    10.472245    22.979701 
   13300   -1201.5951    161.63783   -1039.9573    2505.9814     177023.4    10.472245    23.596364 
   13400   -1205.7771    155.71764   -1050.0594    2414.1966    172526.05    10.472245    25.098044 
   13500   -1194.8771    157.29779   -1037.5793    2438.6947    181043.18    10.472245    25.850487 
   13600   -1194.1268    161.18494   -1032.9418    2498.9598    181887.25    10.472245    26.669344 
   13700   -1199.4998    151.22173    -1048.278    2344.4935    178299.43    10.472245     27.74331 
   13800   -1188.3528    162.40826   -1025.9446    2517.9258    186361.74    10.472245    29.613359 
   13900   -1196.6171    161.92813    -1034.689     2510.482    179745.64    10.472245     30.70705 
   14000   -1206.0971    160.07651   -1046.0206     2481.775    170601.27    10.472245    31.495307 
   14100   -1192.3886    162.13009   -1030.2585    2513.6131    185009.29    10.472245    33.099129 
   14200   -1185.2397    156.92236   -1028.3174    2432.8742    186846.51    10.472245    34.529215 
   14300   -1201.8991    156.27035   -1045.6288    2422.7657    175150.98    10.472245    35.100787 
   14400   -1191.4804    163.68001   -1027.8004    2537.6426    182583.36    10.472245    35.933371 
   14500   -1196.9486    166.18803   -1030.7606    2576.5261    181719.53    10.472245    37.899051 
   14600   -1186.3426    165.36933   -1020.9732    2563.8334    187438.81    10.472245    40.212546 
   14700   -1201.6984    163.52537    -1038.173    2535.2451    176157.84    10.472245    42.269118 
   14800   -1195.8102    157.79116   -1038.0191    2446.3437    180375.95    10.472245     42.81131 
   14900   -1181.9507    168.60701   -1013.3437    2614.0293    188991.95    10.472245    43.914998 
   15000   -1196.0104    160.63071   -1035.3797    2490.3673    179924.16    10.472245    45.449546 
   15100   -1205.3082    163.75751   -1041.5507    2538.8442    175248.94    10.472245      45.4885 
   15200   -1195.6343    168.98104   -1026.6533    2619.8281    181592.95    10.472245    46.507152 
   15300   -1201.2383    163.42533    -1037.813    2533.6941     177789.7    10.472245    48.555434 
   15400   -1203.4992    160.01755   -1043.4817     2480.861    175573.74    10.472245    50.676158 
   15500   -1195.1294    164.27809   -1030.8513     2546.915    180901.48    10.472245     51.83753 
   15600   -1199.1969    164.77222   -1034.4247    2554.5759    179249.68    10.472245    52.366635 
   15700   -1200.8221    156.90951   -1043.9126    2432.6749    177839.74    10.472245    54.767961 
   15800   -1199.9654    173.00601   -1026.9594    2682.2299    178857.38    10.472245    56.148318 
   15900   -1205.2339    166.14445   -1039.0895    2575.8505    175894.19    10.472245    57.609006 
   16000   -1202.0589     156.0307   -1046.0282    2419.0501     175133.3    10.472245    58.867117 
   16100   -1197.2778    167.89275   -1029.3851    2602.9557    181114.88    10.472245     59.54166 
   16200    -1201.549    168.07083   -1033.4781    2605.7165    177076.97    10.472245    62.087757 
   16300   -1195.9912    156.60349   -1039.3877    2427.9304     180067.5    10.472245    64.281349 
   16400    -1189.496    164.69538   -1024.8006    2553.3847    185131.52    10.472245    67.501345 
   16500   -1190.8225    164.44943   -1026.3731    2549.5715    182982.25    10.472245    69.787518 
   16600   -1195.4183    156.47717   -1038.9412    2425.9721     180274.8    10.472245    71.213553 
   16700    -1187.086    164.25437   -1022.8317    2546.5472    185158.71    10.472245     72.22422 
   16800    -1193.786    152.99707   -1040.7889    2372.0177    182696.05    10.472245    73.215636 
   16900   -1196.2565    155.87746    -1040.379    2416.6744    179301.51    10.472245     74.90809 
   17000   -1189.3205     164.3363   -1024.9842    2547.8175    184406.53    10.472245    76.492519 
   17100   -1197.0598     151.7024   -1045.3574    2351.9455    177349.96    10.472245    79.107371 
   17200   -1206.7184    164.48616   -1042.2323    2550.1409    173853.53    10.472245    80.300746 
   17300   -1194.2793    165.50812   -1028.7712     2565.985    182109.11    10.472245    81.667405 
   17400    -1199.687    165.64609   -1034.0409    2568.1241    180189.03    10.472245    82.419474 
   17500   -1188.4667    153.86829   -1034.5984    2385.5248    184625.52    10.472245    84.654049 
   17600   -1197.9134    167.73273   -1030.1807    2600.4747    180045.47    10.472245    86.749424 
   17700   -1206.2267    157.78529   -1048.4415    2446.2527    172815.04    10.472245    88.462137 
   17800   -1188.7072    154.77153   -1033.9356    2399.5284    183415.65    10.472245    90.299628 
   17900   -1199.1544    168.35517   -1030.7993    2610.1248    176096.06    10.472245    92.067581 
   18000   -1205.0938    156.24884   -1048.8449    2422.4321    173536.28    10.472245    95.179207 
   18100   -1191.1671     160.5457   -1030.6214    2489.0493    182256.43    10.472245    98.559229 
   18200   -1195.4996     166.2815   -1029.2181    2577.9753    181017.57    10.472245    100.82115 
   18300   -1202.0532    154.51127   -1047.5419    2395.4934    175642.96    10.472245    101.29244 
   18400   -1201.9583    161.39348   -1040.5648     2502.193    175529.12    10.472245    103.24421 
   18500   -1200.7323    166.66094   -1034.0714     2583.858    177316.79    10.472245    105.92423 
   18600   -1202.5439    168.46922   -1034.0747    2611.8929    176607.69    10.472245    107.24899 
   18700   -1202.4917    170.10272    -1032.389    2637.2182    177454.98    10.472245    108.15995 
   18800    -1200.131    158.22921   -1041.9018    2453.1352    176462.83    10.472245    109.60244 
   18900    -1193.243    171.59157   -1021.6514    2660.3009    184276.06    10.472245    110.19352 
   19000   -1191.6953    155.91549   -1035.7798    2417.2639    180750.01    10.472245    111.68493 
   19100    -1201.162    159.64907    -1041.513    2475.1483    178490.86    10.472245    114.09091 
   19200   -1201.2578    169.93303   -1031.3248    2634.5875    179675.01    10.472245    114.98804 
   19300   -1202.4209    173.08246   -1029.3385    2683.4153    177733.25    10.472245    117.37036 
   19400   -1201.5206    161.05967   -1040.4609    2497.0176    177643.25    10.472245    119.71588 
   19500   -1193.7054    164.50338    -1029.202    2550.4079    182366.42    10.472245    120.72752 
   19600   -1184.9675    161.47367   -1023.4938    2503.4362    188882.08    10.472245    121.92861 
   19700    -1197.193    155.61066   -1041.5823    2412.5379    179175.46    10.472245    124.19104 
   19800   -1198.1576    163.20558    -1034.952    2530.2872    179795.37    10.472245    125.80113 
   19900    -1189.126    158.36593     -1030.76    2455.2548    183569.29    10.472245    126.77487 
   20000   -1204.9713    160.33201   -1044.6393    2485.7364    174466.11    10.472245     128.3522 
   20100   -1188.9808     164.9088    -1024.072    2556.6934    185461.91    10.472245     129.9365 
   20200   -1190.4348     164.3436   -1026.0912    2547.9308    185173.35    10.472245    131.01861 
   20300   -1196.8158    159.44666   -1037.3692    2472.0101    177962.41    10.472245    133.43833 
   20400   -1192.6491    158.59681   -1034.0523    2458.8343    181870.42    10.472245    135.60674 
   20500   -1184.1208    169.13883    -1014.982    2622.2744    189367.92    10.472245     137.4294 
   20600   -1192.1231    158.31677   -1033.8063    2454.4926    180929.79    10.472245    138.18745 
   20700   -1201.5332    165.82396   -1035.7092    2570.8817    177357.83    10.472245    140.13708 
   20800   -1193.5851    165.03473   -1028.5504    2558.6457    184030.37    10.472245     141.3625 
   20900   -1190.2585     166.7999   -1023.4586    2586.0123    184174.36    10.472245    142.83975 
   21000   -1206.8682    163.00863   -1043.8596    2527.2337    173810.37    10.472245    143.27047 
   21100   -1195.4511    167.53374   -1027.9173    2597.3896    181381.68    10.472245    144.71313 
   21200   -1192.0505    158.16948    -1033.881    2452.2092    180870.27    10.472245    147.28192 
   21300   -1196.3498    162.55825   -1033.7916    2520.2512    180253.46    10.472245     148.9393 
   21400   -1191.6468    153.67597   -1037.9709    2382.5431    182269.13    10.472245    150.03156 
   21500   -1201.9904    160.73588   -1041.2545    2491.9978    174589.89    10.472245     151.5027 
   21600   -1184.3729    164.76822   -1019.6047    2554.5139    186953.53    10.472245    154.04686 
   21700   -1194.8633    167.72107   -1027.1423    2600.2939    180062.96    10.472245    156.11887 
   21800    -1196.351    153.19101     -1043.16    2375.0245    178042.69    10.472245    158.64131 
   21900   -1196.7174    161.26413   -1035.4533    2500.1876       180873    10.472245    159.33741 
   22000   -1192.9115    168.51074   -1024.4008    2612.5366    184464.89    10.472245     160.7132 
   22100    -1201.346    155.01448   -1046.3315     2403.295    176651.73    10.472245    160.84296 
   22200   -1205.7465    178.51392   -1027.2326    2767.6228    176382.57    10.472245    161.64126 
   22300   -1200.8816    161.96405   -1038.9175    2511.0389    176873.58    10.472245    164.18628 
   22400   -1194.1697    154.75047   -1039.4193    2399.2018    181872.26    10.472245    166.20461 
   22500   -1197.9859    166.11756   -1031.8683    2575.4336    180545.61    10.472245     166.4593 
   22600    -1193.278    158.31571   -1034.9623    2454.4762       184839    10.472245    168.35263 
   22700   -1194.5844    152.32325   -1042.2611     2361.571    180161.99    10.472245    168.40145 
   22800   -1194.7787    171.62651   -1023.1521    2660.8427     179757.7    10.472245    168.78972 
   22900   -1194.8022     161.1481   -1033.6541    2498.3887    181790.17    10.472245    171.93226 
   23000   -1202.4525    167.10576   -1035.3467    2590.7543       178017    10.472245    172.80967 
   23100   -1206.4104    151.85896   -1054.5514    2354.3728       173113    10.472245    175.64343 
   23200   -1193.6954     158.8009   -1034.8945    2461.9985    180367.28    10.472245    177.36368 
   23300    -1195.875    163.66078   -1032.2142    2537.3444    182310.41    10.472245    177.66384 
   23400    -1205.027    157.85675   -1047.1703    2447.3607    172518.82    10.472245    178.62783 
   23500   -1191.7854    164.30962   -1027.4757    2547.4039    183058.51    10.472245     179.8078 
   23600    -1194.145    155.65633   -1038.4887     2413.246    180000.82    10.472245    181.03954 
   23700    -1191.229     154.2738   -1036.9552    2391.8117    182850.66    10.472245    182.47708 
   23800   -1185.3796    161.94898   -1023.4306    2510.8053    186034.06    10.472245    184.62376 
   23900   -1195.5312    153.68707   -1041.8442    2382.7152    179898.51    10.472245    185.29983 
   24000   -1192.7139     159.5298   -1033.1841    2473.2992    181605.45    10.472245    187.20157 
   24100   -1184.9748    168.96882    -1016.006    2619.6386    186744.07    10.472245    188.98101 
   24200   -1189.0618    158.56078    -1030.501    2458.2757    184960.76    10.472245    190.57084 
   24300   -1199.3934    157.56514   -1041.8282    2442.8397    179477.78    10.472245    192.25085 
   24400   -1189.7991    165.67611    -1024.123    2568.5895    185195.09    10.472245    194.63048 
   24500   -1185.7027    156.32692   -1029.3758    2423.6427    184662.65    10.472245    197.21284 
   24600   -1199.0956    160.19624   -1038.8994    2483.6313    176834.44    10.472245    198.66335 
   24700   -1195.2854     167.3299   -1027.9555    2594.2293    182347.71    10.472245     198.8626 
   24800   -1186.2395    158.67635   -1027.5631    2460.0674    186243.13    10.472245    198.21142 
   24900   -1189.5183    153.27132    -1036.247    2376.2696    182034.72    10.472245    199.34603 
   25000   -1191.6101     164.4196   -1027.1905     2549.109     183737.2    10.472245    201.06843 
   25100   -1199.4138    150.38708   -1049.0267    2331.5533    176291.86    10.472245    201.80717 
   25200   -1197.2345    162.67251    -1034.562    2522.0226     179325.2    10.472245    204.37986 
   25300   -1199.7095    160.27484   -1039.4346      2484.85    178482.61    10.472245     205.7682 
   25400   -1202.4815    165.35088   -1037.1306    2563.5473    175803.83    10.472245    205.89993 
   25500    -1192.119    161.29952   -1030.8195    2500.7363    182644.38    10.472245     206.1916 
   25600   -1203.4655      167.442   -1036.0235    2595.9673    175258.92    10.472245    205.67111 
   25700    -1198.559    163.31485   -1035.2442    2531.9813     177850.7    10.472245    207.21855 
   25800   -1182.9685    165.72401   -1017.2445    2569.3322    188467.07    10.472245    209.04318 
   25900   -1190.1935    162.80721   -1027.3863    2524.1109    184090.81    10.472245    211.11289 
   26000   -1199.5238     162.0165   -1037.5073    2511.8521    178092.54    10.472245    210.62635 
   26100   -1195.7362    171.58919    -1024.147    2660.2641    182204.37    10.472245    211.87941 
   26200   -1200.5542    154.59218    -1045.962    2396.7478    176793.62    10.472245    213.67883 
   26300   -1198.7785    167.51684   -1031.2616    2597.1276    177469.86    10.472245    214.33521 
   26400   -1193.1683    156.64718   -1036.5211    2428.6078    183329.84    10.472245    215.92171 
   26500   -1206.8742    158.28422     -1048.59     2453.988    173120.13    10.472245    216.71511 
   26600   -1192.3594    160.81018   -1031.5492    2493.1497    182704.81    10.472245    217.94807 
   26700   -1195.8844    163.99182   -1031.8926    2542.4769    180669.68    10.472245    220.58458 
   26800    -1195.824    172.53341   -1023.2906     2674.903       182546    10.472245    220.34756 
   26900   -1200.5249    159.45636   -1041.0685    2472.1605    177041.24    10.472245    222.34252 
   27000   -1198.4469    163.62473   -1034.8222    2536.7855    178148.08    10.472245     224.2678 
   27100   -1191.5382    165.32471   -1026.2135    2563.1415    183457.93    10.472245     226.6324 
   27200   -1202.0243    164.92889   -1037.0954    2557.0049    177482.07    10.472245    226.91609 
   27300   -1204.5923    165.78225     -1038.81     2570.235    175614.11    10.472245    228.62809 
   27400   -1196.7029    140.52253   -1056.1804    2178.6164    176654.04    10.472245    228.78144 
   27500   -1196.2896    162.83245   -1033.4572    2524.5023    180539.64    10.472245    231.07733 
   27600   -1199.5875    162.60712   -1036.9804    2521.0088    177315.78    10.472245    232.51046 
   27700   -1204.9501    153.52413    -1051.426    2380.1891    174671.91    10.472245    234.31356 
   27800   -1195.4424     167.8315   -1027.6109    2602.0059    180684.37    10.472245    236.71678 
   27900   -1195.9042    163.90788   -1031.9963    2541.1754    182361.58    10.472245    239.19882 
   28000   -1201.3372    154.00342   -1047.3338    2387.6198    176843.09    10.472245    241.26945 
   28100   -1198.8172    170.99055   -1027.8267    2650.9829    179374.36    10.472245    243.07683 
   28200   -1198.2398    161.55356   -1036.6862    2504.6749    179296.58    10.472245     244.2018 
   28300   -1197.3606    158.64096   -1038.7197    2459.5188    178483.65    10.472245    246.47747 
   28400   -1196.4722    165.48496   -1030.9873     2565.626    182328.92    10.472245    248.85226 
   28500   -1202.3655    163.97899   -1038.3865     2542.278    177863.67    10.472245    250.20698 
   28600   -1196.5742    162.64421   -1033.9299     2521.584    180289.86    10.472245    251.84082 
   28700   -1188.6393     153.9553    -1034.684    2386.8737    184167.65    10.472245    253.08065 
   28800   -1197.0208    162.43095   -1034.5899    2518.2776    180283.22    10.472245    254.20446 
   28900   -1203.9773    155.18514   -1048.7922    2405.9409    172982.85    10.472245    254.11542 
   29000   -1194.3814    165.54712   -1028.8343    2566.5896    181529.62    10.472245     256.5903 
   29100   -1206.9916    170.00006   -1036.9916    2635.6266       175272    10.472245     256.4141 
   29200   -1203.0711    148.23224   -1054.8388    2298.1453    172381.71    10.472245     256.2371 
   29300   -1202.0445    161.98134   -1040.0631    2511.3069    175166.63    10.472245    257.49297 
   29400   -1197.4699    166.49337   -1030.9766    2581.2601    179065.65    10.472245    259.16264 
   29500    -1191.053    169.72316   -1021.3299    2631.3337    184464.46    10.472245    260.14018 
   29600    -1196.103    153.41366   -1042.6893    2378.4763    179285.28    10.472245    261.41573 
   29700   -1193.8132    160.67155   -1033.1417    2491.0005    182409.45    10.472245    264.20856 
   29800   -1191.7578    167.19841   -1024.5594    2592.1908    183385.46    10.472245    266.94063 
   29900   -1191.2376    152.67611   -1038.5615    2367.0417    181826.48    10.472245    268.31456 
   30000   -1203.1595     161.7375    -1041.422    2507.5265    176020.95    10.472245    271.27516 
   30100   -1202.0251    170.82935   -1031.1958    2648.4837    176582.12    10.472245     273.4387 
   30200    -1203.592    157.62751   -1045.9644    2443.8066    176167.66    10.472245    275.82629 
   30300    -1198.317    158.47407   -1039.8429    2456.9313     178823.1    10.472245    277.20037 
   30400   -1203.1772    169.73055   -1033.4466    2631.4483    176951.61    10.472245     278.0273 
   30500   -1192.2362    166.20342   -1026.0328    2576.7648    184527.22    10.472245    278.87316 
   30600   -1200.1556     157.3691   -1042.7865    2439.8003    176925.21    10.472245     277.3643 
   30700   -1204.9709    165.43061   -1039.5403    2564.7833    173325.34    10.472245      279.215 
   30800    -1192.781    165.83427   -1026.9468    2571.0416    182584.58    10.472245    280.22165 
   30900    -1207.695     157.0534   -1050.6416    2434.9058    171741.18    10.472245    283.41123 
   31000    -1192.577    155.94548   -1036.6315     2417.729     180430.8    10.472245    285.44559 
   31100   -1192.3373    170.10807   -1022.2292    2637.3012    186220.26    10.472245    287.25795 
   31200    -1200.937    168.52955   -1032.4074    2612.8283    177964.33    10.472245    288.53035 
   31300   -1203.5751    166.40094   -1037.1741    2579.8271    175073.39    10.472245    288.99274 
   31400   -1194.4639    167.65347   -1026.8105    2599.2458     181497.6    10.472245    289.56942 
   31500   -1192.1023     161.7083    -1030.394    2507.0738    184021.19    10.472245     290.0195 
   31600   -1210.1377    166.95199   -1043.1857    2588.3704    173327.27    10.472245    290.35787 
   31700    -1207.132    172.91964   -1034.2123    2680.8909    175049.77    10.472245    292.55317 
   31800    -1189.017    155.39729   -1033.6197    2409.2299    183473.06    10.472245    293.45143 
   31900   -1207.1572    151.17765   -1055.9795      2343.81    172185.21    10.472245    295.05565 
   32000   -1205.4764    161.54406   -1043.9323    2504.5275    173465.34    10.472245    296.79183 
   32100   -1191.0767    157.00203   -1034.0746    2434.1094    183214.42    10.472245    298.26172 
   32200   -1185.3468     164.2468      -1021.1    2546.4299    186863.28    10.472245    299.33648 
   32300   -1198.7433    158.75338   -1039.9899    2461.2618    177767.76    10.472245    300.68174 
   32400   -1201.8338    167.70446   -1034.1294    2600.0364    177762.35    10.472245    301.49212 
   32500   -1192.8232    165.34382   -1027.4794    2563.4378    182917.37    10.472245    304.88633 
   32600   -1195.5266    150.83827   -1044.6883    2338.5484    178946.76    10.472245    306.60889 
   32700    -1194.738    163.94362   -1030.7944    2541.7296    181236.17    10.472245    304.35667 
   32800   -1202.4667    155.62768    -1046.839    2412.8019    175122.49    10.472245     305.8057 
   32900   -1196.8926    154.67631   -1042.2163    2398.0522    177802.38    10.472245    308.53771 
   33000   -1189.3197    157.17325   -1032.1465    2436.7638    186200.03    10.472245    309.00122 
   33100    -1201.033    165.67044   -1035.3626    2568.5016    176442.22    10.472245    308.79007 
   33200   -1204.6395    156.47037   -1048.1692    2425.8667    172388.04    10.472245    310.54117 
   33300   -1198.1507    160.25102   -1037.8997    2484.4806    179367.34    10.472245    310.81111 
   33400   -1193.4712     163.5208   -1029.9504    2535.1742    182312.92    10.472245    311.64916 
   33500   -1187.5469    156.59544   -1030.9514    2427.8057    186204.13    10.472245    311.44367 
   33600   -1210.9202     165.6236   -1045.2966    2567.7754    171250.56    10.472245    311.51882 
   33700   -1205.7388    169.55929   -1036.1795     2628.793    176103.38    10.472245    312.81423 
   33800   -1185.8267    157.60996   -1028.2168    2443.5345    187187.99    10.472245    314.25971 
   33900   -1196.8225    159.46529   -1037.3573    2472.2989    180179.57    10.472245    316.70778 
   34000   -1200.1406    153.93855    -1046.202    2386.6142    175275.45    10.472245    319.05808 
   34100   -1192.1928    163.57324   -1028.6196    2535.9873    183023.39    10.472245    321.39625 
   34200   -1198.4931    152.85109    -1045.642    2369.7546    176321.22    10.472245    322.59104 
   34300   -1196.2488    152.72344   -1043.5253    2367.7755    177004.23    10.472245    322.94914 
   34400   -1195.7291    163.20826   -1032.5208    2530.3287    181944.92    10.472245    323.23853 
   34500   -1180.8098    158.01168   -1022.7981    2449.7627    188222.06    10.472245    324.63233 
   34600   -1186.9341    164.52715    -1022.407    2550.7765    186193.26    10.472245    326.28519 
   34700   -1196.3614    159.33789   -1037.0235    2470.3238     179985.1    10.472245    326.89849 
   34800   -1193.2722    167.95524    -1025.317    2603.9244    181997.19    10.472245    328.99967 
   34900   -1191.3078    169.53952   -1021.7682    2628.4866    183053.42    10.472245    333.01691 
   35000   -1199.3039    160.10326   -1039.2006    2482.1898    178412.58    10.472245    334.09751 
   35100   -1186.8362    165.34694   -1021.4892    2563.4862     187925.8    10.472245    335.05874 
   35200   -1192.7411    166.79168   -1025.9494    2585.8849    184345.66    10.472245    336.53198 
   35300   -1205.0938      166.067   -1039.0268    2574.6497    175659.31    10.472245    337.74394 
   35400   -1189.7153    159.93261   -1029.7827     2479.544     184397.9    10.472245    337.75638 
   35500    -1185.232     161.5548   -1023.6772     2504.694    187847.99    10.472245    339.83725 
   35600   -1200.2063    161.60879   -1038.5975    2505.5311    177048.83    10.472245    341.81888 
   35700   -1188.6062    156.24134   -1032.3648    2422.3159    184600.09    10.472245    344.08859 
   35800   -1201.3577    168.04797   -1033.3097    2605.3621    177015.81    10.472245    350.18314 
   35900    -1197.162      154.044    -1043.118     2388.249    178689.44    10.472245    349.36339 
   36000   -1189.6641    166.21545   -1023.4486    2576.9513    184839.47    10.472245    352.32591 
   36100   -1193.8764    162.48469   -1031.3917    2519.1108    181315.68    10.472245    352.10452 
   36200   -1190.7325     159.1787   -1031.5538    2467.8557    182277.91    10.472245    350.72084 
   36300   -1194.4541    170.18521   -1024.2689    2638.4972    182567.09    10.472245     353.6427 
   36400   -1190.0424    169.52339    -1020.519    2628.2365    184112.58    10.472245    356.12677 
   36500   -1197.4873    158.06609   -1039.4212    2450.6062    179046.48    10.472245    356.97037 
   36600   -1195.1617    166.65305   -1028.5086    2583.7358    181990.47    10.472245    358.65877 
   36700   -1178.4103    161.85115   -1016.5592    2509.2886    193868.21    10.472245    359.38526 
   36800   -1200.7714    166.43337    -1034.338    2580.3298    178975.47    10.472245    361.92435 
   36900    -1200.078    166.02053   -1034.0575    2573.9293    177992.07    10.472245    363.83247 
   37000   -1198.6019    166.84833   -1031.7536    2586.7633    180920.64    10.472245    363.77859 
   37100   -1203.0562    160.12993   -1042.9263    2482.6033     174324.9    10.472245    365.68612 
   37200   -1204.9245    160.26221   -1044.6622    2484.6541    174886.86    10.472245    367.04258 
   37300   -1191.7803    158.96332    -1032.817    2464.5165    180414.53    10.472245    365.11874 
   37400   -1196.9024    157.32114   -1039.5813    2439.0568    180874.72    10.472245    365.19576 
   37500   -1203.8261    154.17677   -1049.6494    2390.3074     174290.2    10.472245    366.20115 
   37600   -1197.2811    164.95859   -1032.3225    2557.4654    179348.32    10.472245    366.77415 
   37700   -1193.4837    152.71277   -1040.7709      2367.61    180896.08    10.472245    367.27691 
   37800   -1198.8895    155.87451   -1043.0149    2416.6286    178793.08    10.472245    366.78905 
   37900   -1193.8351    165.66687   -1028.1682    2568.4462    182857.21    10.472245    369.38885 
   38000   -1197.7204    158.83768   -1038.8827    2462.5686    179708.86    10.472245    370.27873 
   38100    -1200.562     159.1794   -1041.3826    2467.8666    179412.76    10.472245    371.07488 
   38200   -1188.5492    158.19822    -1030.351    2452.6546    183361.92    10.472245    372.50813 
   38300   -1195.0187    163.01435   -1032.0043    2527.3224    181175.27    10.472245    372.88682 
   38400   -1187.7625    160.06123   -1027.7012    2481.5382    183468.03    10.472245    375.02811 
   38500   -1202.7402    158.96164   -1043.7785    2464.4905    174139.99    10.472245    377.36227 
   38600    -1193.725     160.9627   -1032.7623    2495.5142    181064.17    10.472245    377.68143 
   38700   -1199.6065    169.92812   -1029.6783    2634.5113     179306.2    10.472245    376.61108 
   38800   -1198.5881    157.93753   -1040.6506     2448.613    177366.93    10.472245    377.19327 
   38900   -1209.7748    158.96777    -1050.807    2464.5855    172068.09    10.472245    378.83251 
   39000   -1198.3562    165.12726    -1033.229    2560.0803    179120.92    10.472245    380.91828 
   39100    -1201.049    158.89433   -1042.1547     2463.447     175326.2    10.472245    381.56265 
   39200   -1199.7069    155.65338   -1044.0535    2413.2003    178770.11    10.472245    382.44375 
   39300    -1199.905    171.05994   -1028.8451    2652.0587    177550.01    10.472245    384.35511 
   39400    -1200.035    156.18399    -1043.851    2421.4267    176784.54    10.472245    388.10456 
   39500   -1197.4734    161.71174   -1035.7617    2507.1271    179706.51    10.472245    390.21708 
   39600   -1200.7322    170.09477   -1030.6374     2637.095    177498.82    10.472245    391.95733 
   39700   -1203.6574    162.48483   -1041.1726    2519.1129    175115.64    10.472245    392.90934 
   39800   -1199.9102    155.33147   -1044.5787    2408.2095    178361.65    10.472245    395.27991 
   39900    -1198.351    169.53629   -1028.8147    2628.4365    178059.17    10.472245    399.13009 
   40000   -1202.0256    163.98608   -1038.0395    2542.3879    175308.16    10.472245    400.23775 
   40100   -1201.6441    151.76194   -1049.8822    2352.8687    174280.07    10.472245    402.05654 
   40200   -1192.9928    159.38602   -1033.6068    2471.0699    181192.05    10.472245    402.62087 
   40300   -1200.8024    157.44979   -1043.3526    2441.0513    177330.53    10.472245    405.81104 
   40400   -1192.8491     169.9361    -1022.913     2634.635    184711.31    10.472245    406.56624 
   40500   -1193.3105    167.19367   -1026.1169    2592.1173    182893.63    10.472245    409.75785 
   40600   -1204.7341    155.58742   -1049.1467    2412.1777    175232.04    10.472245    408.41782 
   40700   -1200.3628     160.2063   -1040.1565    2483.7873    178814.66    10.472245    408.86714 
   40800   -1187.8433    153.52762   -1034.3157    2380.2432    184520.68    10.472245    411.93194 
   40900   -1198.2396     172.3711   -1025.8685    2672.3864    179221.08    10.472245    414.56559 
   41000   -1188.3408    153.00137   -1035.3394    2372.0844    185011.43    10.472245    415.74764 
   41100   -1190.8589    146.56755   -1044.2914    2272.3365    182785.27    10.472245    417.00465 
   41200   -1187.8897    164.89065   -1022.9991     2556.412    185603.88    10.472245    419.43928 
   41300   -1190.0925    152.94876   -1037.1437    2371.2687    181833.83    10.472245    422.81345 
   41400   -1197.0359    159.59785    -1037.438     2474.354    177782.13    10.472245    422.94668 
   41500     -1185.98    166.14405   -1019.8359    2575.8444    186777.75    10.472245    423.34567 
   41600   -1188.6729     161.3959    -1027.277    2502.2305    185652.84    10.472245    424.17912 
   41700   -1194.8249    156.73496   -1038.0899    2429.9687    181707.41    10.472245    423.54496 
   41800   -1179.6506    156.17916   -1023.4714    2421.3518    189082.31    10.472245    423.23268 
   41900   -1190.1523    158.13704   -1032.0152    2451.7061    183803.66    10.472245    424.78497 
   42000   -1205.1659    162.35929   -1042.8066    2517.1665    174281.06    10.472245    425.50524 
   42100   -1186.6038    160.54034   -1026.0634    2488.9662    185796.23    10.472245    425.70763 
   42200   -1199.0516    175.45987   -1023.5918    2720.2738    179251.27    10.472245    428.65711 
   42300   -1194.3633    159.36467   -1034.9986     2470.739    181939.72    10.472245    427.85807 
   42400   -1199.3431    157.09378   -1042.2493    2435.5318    176815.98    10.472245    426.75806 
   42500   -1206.9534    159.30331   -1047.6501    2469.7876    173230.37    10.472245    428.08403 
   42600   -1186.2761    159.06208   -1027.2141    2466.0476    185876.21    10.472245    428.15413 
   42700   -1199.4311    159.61955   -1039.8115    2474.6905    177597.31    10.472245    430.33601 
   42800   -1199.3675    159.31715   -1040.0503    2470.0022    177292.86    10.472245    430.21633 
   42900   -1194.7183    166.91258   -1027.8058    2587.7594     182700.1    10.472245    429.40889 
   43000    -1197.837    153.16468   -1044.6724    2374.6162    178629.93    10.472245    430.10426 
   43100   -1191.0055    163.96874   -1027.0368     2542.119    183194.21    10.472245    432.63203 
   43200   -1191.0839    164.87102   -1026.2128    2556.1077     183337.1    10.472245    435.16548 
   43300   -1199.9207    163.23182   -1036.6888     2530.694    178390.35    10.472245    438.38098 
   43400   -1203.2645    158.09609   -1045.1684    2451.0714    175401.52    10.472245    438.00062 
   43500   -1211.2396    170.85891   -1040.3806     2648.942    170975.79    10.472245     439.4398 
   43600   -1190.7131    158.84175   -1031.8714    2462.6318    185119.61    10.472245    441.18863 
   43700    -1198.101    165.94189   -1032.1591    2572.7101    180131.33    10.472245    442.68361 
   43800   -1197.3402    160.23204   -1037.1082    2484.1864    177901.81    10.472245    442.74145 
   43900   -1199.6685    164.15173   -1035.5168     2544.956    180234.61    10.472245    444.64635 
   44000   -1191.4417    157.89863   -1033.5431    2448.0099    182703.69    10.472245     445.1068 
   44100   -1196.5574    152.11455   -1044.4428    2358.3355    180031.87    10.472245    447.44202 
   44200   -1192.2425    168.35696   -1023.8855    2610.1526    183246.57    10.472245    448.51849 
   44300   -1184.3982    153.34048   -1031.0577    2377.3419    189067.83    10.472245     451.3184 
   44400   -1203.5467    150.12627   -1053.4204    2327.5097    172985.71    10.472245    453.65038 
   44500   -1205.3368    162.15694   -1043.1798    2514.0294    173650.46    10.472245    455.08868 
   44600   -1189.3625    159.68398   -1029.6785    2475.6894    185847.65    10.472245    457.51285 
   44700   -1199.5815    158.03292   -1041.5486     2450.092    178139.39    10.472245    459.08789 
   44800    -1208.208     165.1529   -1043.0551    2560.4779    174210.43    10.472245    458.97331 
   44900   -1192.1584    157.94253   -1034.2159    2448.6906    182072.85    10.472245     460.6354 
   45000   -1192.1133    161.62982   -1030.4835    2505.8571    184535.71    10.472245     462.3957 
   45100   -1197.9126    149.05814   -1048.8545    2310.9498    176835.25    10.472245    462.00552 
   45200   -1197.5394    165.01551   -1032.5239    2558.3478    179483.22    10.472245    463.70864 
   45300   -1194.9275     157.1406   -1037.7869    2436.2576    179316.75    10.472245      462.939 
   45400   -1191.6394     150.1012   -1041.5383     2327.121    179637.14    10.472245    464.09088 
   45500   -1195.2518    162.46824   -1032.7836    2518.8558    182127.96    10.472245    466.19795 
   45600   -1196.3589    164.77553   -1031.5834    2554.6272    178974.98    10.472245    466.84024 
   45700   -1208.9983    158.49339    -1050.505    2457.2309    171948.67    10.472245    469.68024 
   45800   -1194.3406    162.22817   -1032.1124    2515.1338    181688.04    10.472245    472.62836 
   45900   -1189.6985    158.92627   -1030.7722    2463.9421     184545.8    10.472245    473.81038 
   46000   -1191.7912     167.5998   -1024.1914    2598.4138    183604.83    10.472245    474.80325 
   46100   -1183.8691     155.9092   -1027.9599    2417.1665    188620.97    10.472245    476.91063 
   46200   -1200.4293    160.32999   -1040.0993     2485.705    176733.05    10.472245    477.96189 
   46300   -1194.7469    163.64274   -1031.1041    2537.0648    180872.78    10.472245    479.72528 
   46400   -1194.4175    167.54053    -1026.877    2597.4949    182433.82    10.472245    480.23327 
   46500   -1204.3731    163.20909    -1041.164    2530.3417    175593.77    10.472245    484.54337 
   46600   -1191.5683    170.51723   -1021.0511    2643.6447    185324.78    10.472245    483.97348 
   46700   -1191.6089    160.37967   -1031.2292    2486.4752    182696.18    10.472245    484.96809 
   46800   -1199.0864    160.27722   -1038.8092    2484.8868    178692.03    10.472245    488.38691 
   46900   -1192.3127    149.66935   -1042.6434    2320.4258    181294.79    10.472245    488.94434 
   47000   -1200.6508    163.48233   -1037.1685    2534.5778    177291.75    10.472245    490.33338 
   47100    -1194.219    164.60725   -1029.6117    2552.0183    182029.97    10.472245    492.39292 
   47200   -1203.4575    159.84566   -1043.6119    2478.1961     175524.9    10.472245    491.14144 
   47300   -1199.2417    161.49867    -1037.743    2503.8238     178521.9    10.472245    489.81654 
   47400    -1183.667    155.27821   -1028.3888    2407.3838    187600.49    10.472245    492.01933 
   47500   -1200.5004    159.57752   -1040.9229    2474.0389    177372.15    10.472245    493.31531 
   47600   -1195.0893    156.00388   -1039.0854    2418.6343    179874.78    10.472245    494.99728 
   47700   -1190.1123    158.08984   -1032.0225    2450.9744    183953.34    10.472245    495.30382 
   47800   -1185.5106    173.31354   -1012.1971    2686.9978    186830.19    10.472245    497.55875 
   47900   -1197.4213    162.32496   -1035.0964    2516.6343    178931.73    10.472245    498.11445 
   48000   -1195.7889    159.65564   -1036.1333    2475.2501    180383.59    10.472245    498.91345 
   48100   -1198.9534    170.60876   -1028.3446    2645.0637    180102.94    10.472245    500.32031 
   48200   -1197.3215    148.84255   -1048.4789    2307.6074    179001.19    10.472245    501.55104 
   48300   -1193.7201    161.11127   -1032.6088    2497.8177    181251.49    10.472245    502.73471 
   48400   -1197.7579    165.85357   -1031.9043    2571.3408    179724.77    10.472245     504.4551 
   48500   -1197.8029     155.1338   -1042.6691    2405.1448    179350.69    10.472245    504.44292 
   48600   -1195.8727     170.9322   -1024.9405    2650.0783    181176.96    10.472245    506.75222 
   48700   -1203.2751    161.35053   -1041.9246    2501.5271    176353.09    10.472245    508.54169 
   48800   -1195.3886    159.58112   -1035.8075    2474.0947    180454.15    10.472245    510.47467 
   48900   -1192.7367    167.72671     -1025.01    2600.3814    184382.43    10.472245    511.28204 
   49000    -1201.901    160.99969   -1040.9014    2496.0878       176439    10.472245     511.2572 
   49100   -1190.4885    164.13607   -1026.3525    2544.7131    184016.33    10.472245    511.51856 
   49200   -1193.1968    164.64097   -1028.5558     2552.541    183206.75    10.472245    513.54975 
   49300   -1203.7254    164.14073   -1039.5847    2544.7855    176820.12    10.472245    513.65399 
   49400   -1196.0624    160.76521   -1035.2972    2492.4525    180634.25    10.472245    514.17645 
   49500    -1191.989    166.60891   -1025.3801    2583.0513    183523.87    10.472245    515.74423 
   49600   -1203.0393    161.89285   -1041.1464     2509.935    175043.98    10.472245    513.64014 
   49700   -1190.9306    161.20772   -1029.7229    2499.3131    183525.17    10.472245    512.79245 
   49800    -1198.588     156.2631   -1042.3249    2422.6532    178587.44    10.472245    512.75537 
   49900   -1199.3481     158.6767   -1040.6714    2460.0729    178633.52    10.472245    513.86114 
   50000   -1187.2992     157.2439   -1030.0553    2437.8592    184970.92    10.472245    517.57331 
   50100   -1194.8408    156.13762   -1038.7032    2420.7079    181749.84    10.472245    520.10713 
   50200   -1179.2593    162.62672   -1016.6326    2521.3128    190624.03    10.472245    521.99379 
   50300   -1193.6944    161.12202   -1032.5724    2497.9843    183155.03    10.472245    523.86756 
   50400    -1198.985    167.64252   -1031.3424    2599.0761    177503.52    10.472245    526.36361 
   50500   -1196.3725     158.6815    -1037.691    2460.1473    179220.73    10.472245    525.74797 
   50600   -1197.6554    154.32227   -1043.3331    2392.5632    179938.33    10.472245    527.58492 
   50700   -1194.7401    168.74396   -1025.9961    2616.1525    182272.89    10.472245    528.68492 
   50800   -1195.1132    156.37203   -1038.7411    2424.3421    180690.89    10.472245    531.02569 
   50900   -1195.4838    155.54961   -1039.9342    2411.5915    178771.11    10.472245    532.63713 
   51000   -1197.0896    163.56839   -1033.5212    2535.9122    179305.48    10.472245    533.34524 
   51100   -1195.2204    170.90355   -1024.3168     2649.634    182216.94    10.472245    534.53512 
   51200   -1207.6519    160.12229   -1047.5296    2482.4848    174480.29    10.472245    536.60557 
   51300   -1196.3402    162.34327    -1033.997    2516.9182     180247.7    10.472245    538.87149 
   51400   -1192.4738    159.37477   -1033.0991    2470.8955    181525.61    10.472245    539.03832 
   51500    -1202.714     162.1031   -1040.6109    2513.1947    176991.69    10.472245     541.0375 
   51600   -1191.0748    154.04562   -1037.0291    2388.2741    183760.04    10.472245    544.08904 
   51700   -1191.4457    168.83127   -1022.6144    2617.5061    183752.05    10.472245     545.3407 
   51800   -1203.1455    157.79256   -1045.3529    2446.3654    174959.89    10.472245    548.18491 
   51900   -1197.7498    164.78443   -1032.9654    2554.7651    179305.36    10.472245    547.76816 
   52000   -1183.2681     155.0818   -1028.1863    2404.3388    186689.76    10.472245    554.15605 
   52100   -1204.5918    151.52691   -1053.0648    2349.2248    173609.86    10.472245    557.01125 
   52200   -1201.2526    163.21842   -1038.0342    2530.4863    176145.23    10.472245    558.28688 
   52300   -1194.8078    162.32431   -1032.4835    2516.6242    182215.47    10.472245    557.25873 
   52400   -1203.8471     150.7193   -1053.1278    2336.7039    176695.16    10.472245    559.31822 
   52500   -1203.7478    165.53984    -1038.208    2566.4768    173959.77    10.472245    559.55406 
   52600   -1197.5882     164.3155   -1033.2727    2547.4951    180766.06    10.472245    560.67567 
   52700   -1204.5328    155.34733   -1049.1855    2408.4554    175372.74    10.472245    561.67366 
   52800   -1196.6349    158.16194    -1038.473    2452.0921    178888.56    10.472245    562.04206 
   52900   -1197.7597    165.94909   -1031.8106    2572.8217    181114.98    10.472245      560.784 
   53000   -1209.5406    162.61673   -1046.9238    2521.1578    172057.81    10.472245    559.15179 
   53100   -1203.9693    159.71704   -1044.2523     2476.202    175380.02    10.472245    559.74674 
   53200   -1196.7333    158.81849   -1037.9148    2462.2712    177758.71    10.472245     559.7571 
   53300   -1191.9387    161.94723   -1029.9915    2510.7782    184354.79    10.472245    560.44546 
   53400   -1189.4105    168.34431   -1021.0662    2609.9564    186305.07    10.472245    558.72626 
   53500   -1196.2113    159.73418   -1036.4771    2476.4677    181409.65    10.472245    558.82588 
   53600   -1199.2383    157.02223    -1042.216    2434.4226    180262.89    10.472245    556.14429 
   53700   -1193.4027     161.8132   -1031.5895    2508.7001     182125.4    10.472245    558.09364 
   53800   -1190.6062    166.62087   -1023.9854    2583.2368    184020.48    10.472245    560.91144 
   53900   -1193.2071    149.16886   -1044.0382    2312.6663    180535.17    10.472245    561.48638 
   54000   -1199.8942    167.49031   -1032.4039    2596.7163    179110.51    10.472245    562.69603 
   54100   -1195.5347    163.79213   -1031.7425     2539.381    180102.87    10.472245    564.12051 
   54200   -1204.5541     167.8666   -1036.6875    2602.5501    176290.33    10.472245    565.26999 
   54300   -1205.4395    154.78593   -1050.6536    2399.7516    173421.74    10.472245    567.32956 
   54400    -1189.007    154.34731   -1034.6597    2392.9514     182343.1    10.472245    567.88891 
   54500   -1188.7985    161.19251    -1027.606    2499.0771    184607.28    10.472245    569.01512 
   54600   -1196.3047    162.73271    -1033.572    2522.9559    181820.23    10.472245    570.95181 
   54700    -1201.466    152.31777   -1049.1482    2361.4861    176459.59    10.472245    572.16759 
   54800   -1194.4746    162.57447   -1031.9002    2520.5026    181989.27    10.472245    574.49967 
   54900   -1199.0167    166.11322   -1032.9035    2575.3663    179948.71    10.472245    574.99443 
   55000   -1202.0076    150.96741   -1051.0402    2340.5505    175756.84    10.472245    577.18976 
   55100   -1200.6473    170.18345   -1030.4639    2638.4699    177713.56    10.472245    578.40633 
   55200   -1194.5134    157.93609   -1036.5773    2448.5908    180955.89    10.472245    581.51868 
   55300   -1201.7359    168.68332   -1033.0525    2615.2124    178152.84    10.472245    580.23916 
   55400   -1198.1475    179.82901   -1018.3185    2788.0115     182348.3    10.472245    580.43097 
   55500   -1200.9453    167.64592   -1033.2994    2599.1287    178312.79    10.472245    583.41791 
   55600   -1195.9832    157.53773   -1038.4455    2442.4147    180157.94    10.472245    582.87971 
   55700   -1208.7089    155.71959   -1052.9893    2414.2267    169875.37    10.472245    583.71224 
   55800   -1201.6545    168.90514   -1032.7494    2618.6514    177935.95    10.472245    586.94923 
   55900   -1190.0762    157.03846   -1033.0378    2434.6741    183006.39    10.472245    588.04592 
   56000    -1205.013    154.67442   -1050.3386    2398.0227    174128.51    10.472245    587.93507 
   56100   -1191.7972     159.2198   -1032.5774     2468.493    183687.23    10.472245    589.18411 
   56200   -1193.9795    163.23924   -1030.7403     2530.809    181659.15    10.472245    592.35162 
   56300   -1204.0016    159.27053   -1044.7311    2469.2795    175386.36    10.472245    594.26663 
   56400   -1201.6596    161.87479   -1039.7848    2509.6551     177069.4    10.472245     594.6379 
   56500   -1193.9393    160.24659   -1033.6927     2484.412    181105.84    10.472245    596.28856 
   56600   -1187.6754    166.46395   -1021.2114     2580.804    185810.94    10.472245    597.62607 
   56700   -1199.4158    156.44534   -1042.9705    2425.4786    178444.81    10.472245    600.85891 
   56800   -1194.1995    158.91713   -1035.2824    2463.8004    182011.55    10.472245    604.78503 
   56900   -1196.3965    165.00012   -1031.3963    2558.1092    181656.57    10.472245    605.81089 
   57000   -1200.0182     160.9962    -1039.022    2496.0337    178687.41    10.472245     606.6185 
   57100    -1196.729    173.90944   -1022.8196    2696.2364    181227.69    10.472245    609.51839 
   57200   -1195.5844     158.7224    -1036.862    2460.7815    180305.53    10.472245    610.33895 
   57300   -1203.9615    149.74575   -1054.2157    2321.6103     174649.9    10.472245    612.65462 
   57400   -1195.9631    163.42574   -1032.5374    2533.7006    178928.99    10.472245    614.27076 
   57500   -1191.7778    163.52286    -1028.255    2535.2062    182938.61    10.472245     616.7413 
   57600   -1194.3027    151.60101   -1042.7017    2350.3736    180295.02    10.472245    617.68923 
   57700   -1185.1747    159.52105   -1025.6537    2473.1634    185556.95    10.472245    617.96241 
   57800   -1195.0221    164.00903   -1031.0131    2542.7436    183184.76    10.472245    617.44284 
   57900    -1200.146    160.35911   -1039.7868    2486.1564    178167.63    10.472245    617.86245 
   58000   -1199.0312    156.09438   -1042.9368    2420.0374    176931.16    10.472245    620.24625 
   58100   -1195.9516    163.92134   -1032.0303    2541.3842    180777.75    10.472245     620.2549 
   58200    -1201.988    171.19845   -1030.7895    2654.2061    179595.05    10.472245    621.25556 
   58300   -1201.0601    153.94941   -1047.1107    2386.7824    176046.34    10.472245    623.53523 
   58400   -1205.8894    167.92006   -1037.9693    2603.3791    175320.13    10.472245    623.11752 
   58500   -1189.5844    164.02293   -1025.5615    2542.9591    184864.94    10.472245    623.84056 
   58600   -1197.7634    161.00318   -1036.7602    2496.1419    178936.25    10.472245    630.44132 
   58700    -1205.416    159.95037   -1045.4656    2479.8194    175328.19    10.472245    632.64618 
   58800   -1183.6319    158.89565   -1024.7363    2463.4674    186204.98    10.472245    633.94432 
   58900   -1197.1215    156.39486   -1040.7266     2424.696    178776.88    10.472245    636.97809 
   59000   -1199.2762    172.27346   -1027.0027    2670.8728    177789.01    10.472245     640.2188 
   59100   -1195.5156    167.66456    -1027.851    2599.4178    180645.16    10.472245    645.15956 
   59200   -1191.6807    152.46869    -1039.212    2363.8259     180461.4    10.472245    646.33569 
   59300   -1198.8893    171.51984   -1027.3695    2659.1888    180713.81    10.472245    645.47735 
   59400   -1189.1594    162.71783   -1026.4415    2522.7252    184018.02    10.472245    645.15777 
   59500   -1197.3125     161.8085    -1035.504    2508.6273    180418.34    10.472245    650.42028 
   59600   -1210.5068    168.19871   -1042.3081    2607.6991     171802.5    10.472245     647.7433 
   59700   -1200.2554    156.38351   -1043.8719      2424.52    177348.01    10.472245    647.40931 
   59800   -1191.4882    162.12472   -1029.3635    2513.5299    180752.98    10.472245    648.13423 
   59900   -1193.3984    151.81858   -1041.5798    2353.7467    180419.68    10.472245    648.01969 
   60000   -1204.9719    165.78976   -1039.1822    2570.3516    176630.45    10.472245    648.80367 
   60100   -1196.4521    169.57455   -1026.8776    2629.0297    181825.92    10.472245      650.714 
   60200   -1202.5672     159.4943   -1043.0729    2472.7487    174553.74    10.472245    650.49991 
   60300   -1207.5792     170.9222   -1036.6569    2649.9233    174810.56    10.472245    652.81902 
   60400    -1191.723    159.91861   -1031.8044    2479.3271     184156.1    10.472245    652.12975 
   60500   -1181.8995    165.41953     -1016.48    2564.6116     190091.9    10.472245    652.29881 
   60600   -1197.2603    160.95359   -1036.3067     2495.373    178787.81    10.472245    655.29983 
   60700   -1199.1135    155.91719   -1043.1963    2417.2903    175807.59    10.472245    653.91399 
   60800   -1192.6694    170.59166   -1022.0778    2644.7986    183273.79    10.472245    653.75904 
   60900    -1194.996    156.51956   -1038.4764    2426.6293    181310.47    10.472245     652.7159 
   61000   -1190.7541    157.84472   -1032.9094    2447.1741    182714.98    10.472245    654.83755 
   61100   -1199.8002    164.15078   -1035.6494    2544.9413    177520.93    10.472245    656.20224 
   61200   -1202.5424    162.78829   -1039.7542    2523.8177    176471.23    10.472245    659.19434 
   61300   -1192.3606    163.46765    -1028.893    2534.3503    179578.24    10.472245    661.68432 
   61400   -1198.2658    165.29911   -1032.9667    2562.7447    179156.72    10.472245     661.2776 
   61500   -1199.0966    149.44443   -1049.6522    2316.9387    177672.02    10.472245    661.73313 
   61600   -1191.6271    164.46583   -1027.1612    2549.8258     182600.7    10.472245     663.8341 
   61700   -1204.3693    166.22243   -1038.1469    2577.0596    177320.51    10.472245    665.77738 
   61800   -1198.7996    156.89301   -1041.9066    2432.4192    178628.16    10.472245    666.81455 
   61900   -1196.5602    172.64493   -1023.9152    2676.6319    180846.78    10.472245    667.07532 
   62000     -1204.99    163.59611   -1041.3939    2536.3419    173816.33    10.472245    666.72375 
   62100   -1217.9125    160.43536   -1057.4771    2487.3386    166164.81    10.472245    667.98001 
   62200   -1198.9178    160.28544   -1038.6324    2485.0143    178648.35    10.472245    664.46166 
   62300   -1193.1937    165.88874    -1027.305     2571.886    183595.08    10.472245    666.87135 
   62400   -1201.1334     157.8421   -1043.2913    2447.1335    176522.38    10.472245    666.16806 
   62500   -1208.7657    165.86451   -1042.9012    2571.5104    174476.63    10.472245    667.44537 
   62600   -1199.6171    164.53616   -1035.0809     2550.916    178708.36    10.472245    668.27577 
   62700   -1198.3415    165.75453    -1032.587    2569.8054    179983.41    10.472245    670.11022 
   62800   -1202.5127     174.3452   -1028.1675    2702.9924    179359.02    10.472245    669.94765 
   62900   -1196.2474    155.18704   -1041.0604    2405.9704    181117.42    10.472245    669.51336 
   63000   -1190.9647      161.369   -1029.5957    2501.8135    183924.79    10.472245    671.14085 
   63100   -1194.5548     169.8283   -1024.7265    2632.9638    184248.77    10.472245    671.53852 
   63200    -1204.884    167.32793    -1037.556    2594.1988    177130.83    10.472245    674.46251 
   63300   -1190.4734     161.2832   -1029.1902    2500.4833    182359.61    10.472245    675.56598 
   63400   -1180.2611    162.94434   -1017.3168     2526.237    188877.87    10.472245    677.90399 
   63500   -1197.5464    158.23585   -1039.3106    2453.2381    179172.86    10.472245    681.39365 
   63600   -1191.6299    165.67035   -1025.9596    2568.5001    183108.61    10.472245    679.90896 
   63700    -1195.699    158.09308    -1037.606    2451.0246    179745.75    10.472245    682.26016 
   63800   -1200.1949    160.34534   -1039.8495     2485.943       175832    10.472245    682.53234 
   63900    -1188.887    159.74887   -1029.1381    2476.6954    183955.62    10.472245    687.00722 
   64000   -1198.6846    170.37849   -1028.3062    2641.4937    179652.73    10.472245    687.39077 
   64100   -1203.0178    158.27841   -1044.7394    2453.8979    175811.73    10.472245    686.51123 
   64200    -1191.505    166.34685   -1025.1581    2578.9884    183641.02    10.472245    685.41402 
   64300   -1191.2154    159.33774   -1031.8776    2470.3214    181891.83    10.472245    687.82202 
   64400   -1193.5266    154.98237   -1038.5443    2402.7972    181870.09    10.472245     687.7656 
   64500   -1187.6194    168.83569   -1018.7838    2617.5746    185888.32    10.472245    690.54605 
   64600   -1196.2003     158.4343    -1037.766    2456.3148    179385.99    10.472245     688.1564 
   64700   -1199.3207    164.01613   -1035.3046    2542.8537    177687.75    10.472245     689.1398 
   64800   -1187.2643    169.88416   -1017.3802    2633.8297    186848.16    10.472245     689.2504 
   64900   -1185.9564    154.11822   -1031.8382    2389.3997    185437.35    10.472245    690.96668 
   65000   -1194.4385    160.94206   -1033.4964    2495.1944    180651.91    10.472245    694.59278 
   65100   -1192.5981    165.55032   -1027.0478    2566.6394    182965.17    10.472245    696.54115 
   65200   -1196.2362    158.03231   -1038.2039    2450.0825    181253.55    10.472245    695.14282 
   65300   -1193.1047    156.19503   -1036.9097    2421.5978    182203.51    10.472245    696.69493 
   65400   -1194.0394    164.27471   -1029.7647    2546.8627    182123.42    10.472245    695.50033 
   65500   -1202.7844    157.52861   -1045.2558    2442.2733    175226.26    10.472245    699.97453 
   65600   -1191.4466    155.33065    -1036.116    2408.1968    182223.59    10.472245    700.19934 
   65700   -1190.2227    163.84074    -1026.382    2540.1346     185743.8    10.472245    701.45115 
   65800   -1200.9341    160.94437   -1039.9897    2495.2301    176748.31    10.472245     702.7602 
   65900   -1209.9973    158.76468   -1051.2326     2461.437    170837.03    10.472245    706.50644 
   66000   -1184.2729    156.11731   -1028.1556    2420.3929    187941.05    10.472245    710.18451 
   66100   -1198.2058    163.69164   -1034.5142     2537.823    177210.08    10.472245    710.49565 
   66200   -1208.0368      157.427   -1050.6098    2440.6979    172556.06    10.472245    712.81311 
   66300   -1202.3583     162.7744   -1039.5839    2523.6023    177159.86    10.472245    712.60783 
   66400   -1202.8977    163.49787   -1039.3998    2534.8188    177339.33    10.472245    710.61183 
   66500   -1185.6101    159.83037   -1025.7797     2477.959    185083.36    10.472245    711.92633 
   66600   -1194.0951    153.98867   -1040.1065    2387.3912    178913.58    10.472245     715.8261 
   66700   -1199.4056    159.65951   -1039.7461      2475.31    178162.32    10.472245    716.77217 
   66800   -1191.7469    163.66818   -1028.0787    2537.4592    182902.48    10.472245    717.62418 
   66900   -1184.8164    167.27694   -1017.5395    2593.4082    188781.51    10.472245    718.74512 
   67000   -1195.8933    155.59257   -1040.3007    2412.2575     179962.3    10.472245    722.38478 
   67100    -1197.148    162.25692    -1034.891    2515.5795    180776.64    10.472245    722.32332 
   67200   -1188.0563    161.54382   -1026.5124    2504.5239     184030.2    10.472245    726.43398 
   67300   -1199.3216    155.69514   -1043.6265    2413.8478     176634.7    10.472245    727.17557 
   67400   -1195.7511    166.62249   -1029.1286    2583.2618    180858.64    10.472245     727.0453 
   67500   -1190.9761    166.38413    -1024.592    2579.5665    183530.27    10.472245    727.73525 
   67600    -1202.496    163.33922   -1039.1567     2532.359    176716.62    10.472245    729.63656 
   67700   -1194.6907    169.25876   -1025.4319    2624.1338    183030.47    10.472245    732.42831 
   67800   -1208.1855     168.0534   -1040.1321    2605.4462    173495.51    10.472245    731.06871 
   67900   -1197.5342    160.11937   -1037.4149    2482.4396    177912.58    10.472245    734.15691 
   68000   -1185.3351    162.02772   -1023.3074     2512.026    185627.26    10.472245    734.10018 
   68100   -1207.2861     163.0718   -1044.2143    2528.2132    172416.13    10.472245    733.30468 
   68200   -1193.0745    157.58299   -1035.4915    2443.1163    181757.65    10.472245    734.21952 
   68300   -1192.0792    160.08707   -1031.9922    2481.9389    181648.31    10.472245    736.33843 
   68400   -1202.6001    151.41727   -1051.1828    2347.5251    174773.83    10.472245    737.06551 
   68500   -1192.4553    149.58204   -1042.8732    2319.0723    180924.44    10.472245    735.49426 
   68600   -1191.7796    162.48052   -1029.2991    2519.0461    182427.52    10.472245     740.5898 
   68700   -1194.6012     154.3253   -1040.2759    2392.6102    180312.94    10.472245    740.86587 
   68800   -1205.5808    153.76468   -1051.8161    2383.9185    171892.43    10.472245    741.45557 
   68900   -1193.4624    164.81398   -1028.6485    2555.2233    183179.91    10.472245    739.85726 
   69000   -1195.6647    158.93203   -1036.7327    2464.0315    180703.64    10.472245     739.7731 
   69100    -1208.734    157.86662   -1050.8674    2447.5137    172871.63    10.472245     740.3489 
   69200   -1193.2936    166.73206   -1026.5615    2584.9606    181089.64    10.472245    739.17282 
   69300   -1199.4353    162.47176   -1036.9635    2518.9102    177651.85    10.472245    743.06098 
   69400   -1194.2842    152.00884   -1042.2754    2356.6965     179643.4    10.472245    746.88915 
   69500   -1198.9866    166.47708   -1032.5095    2581.0075    178406.94    10.472245    747.51029 
   69600   -1198.9274    165.83433   -1033.0931    2571.0424    177507.82    10.472245    748.64362 
   69700   -1199.2322    153.44956   -1045.7826     2379.033    177445.79    10.472245    751.03241 
   69800   -1196.9091    166.63873   -1030.2704    2583.5137    180476.59    10.472245    754.65025 
   69900   -1191.6666     163.3067   -1028.3599    2531.8549    182205.65    10.472245    754.95482 
   70000   -1203.8875    151.88193   -1052.0055    2354.7289    174033.28    10.472245    752.53092 
   70100   -1202.1501    159.74302   -1042.4071    2476.6048     176894.6    10.472245    754.96394 
   70200   -1186.8726    156.99175   -1029.8809      2433.95    185266.94    10.472245    753.81085 
   70300   -1194.9061    148.43606     -1046.47    2301.3054    178613.78    10.472245     759.5663 
   70400   -1208.2057    168.23029   -1039.9754    2608.1887    173794.97    10.472245    758.59527 
   70500   -1194.3074    164.33442    -1029.973    2547.7884    182071.63    10.472245    757.57605 
   70600   -1193.9221    158.98173   -1034.9403     2464.802    182417.86    10.472245    760.34109 
   70700   -1207.4482    153.44566   -1054.0026    2378.9725    172625.64    10.472245    760.57605 
   70800   -1202.6596    167.04198   -1035.6176    2589.7656    176040.96    10.472245     763.1008 
   70900   -1201.0466    166.24234   -1034.8043    2577.3682    178506.65    10.472245    767.69868 
   71000   -1208.6867    158.01309   -1050.6736    2449.7845    170416.54    10.472245    768.40941 
   71100   -1197.5861    165.45951   -1032.1266    2565.2315    179954.38    10.472245    769.58514 
   71200   -1195.9142    168.79787   -1027.1163    2616.9882    181287.51    10.472245    768.76674 
   71300   -1202.0246    159.94073   -1042.0838      2479.67    174261.64    10.472245    765.73128 
   71400   -1190.2118    169.73649   -1020.4753    2631.5404    185303.16    10.472245    765.33359 
   71500   -1192.0409    160.41165   -1031.6293     2486.971    180252.96    10.472245    770.36995 
   71600   -1202.0548    163.72879    -1038.326    2538.3988    177955.23    10.472245    767.67238 
   71700   -1197.5418     166.6213   -1030.9205    2583.2434    180170.79    10.472245    769.43672 
   71800   -1194.7437    176.00731   -1018.7364    2728.7611    182735.35    10.472245    770.08419 
   71900   -1199.5723    160.36972   -1039.2026     2486.321    177290.55    10.472245    770.14981 
   72000     -1188.11    157.87538   -1030.2346    2447.6494    184934.13    10.472245     771.4506 
   72100   -1186.3919    165.71998   -1020.6719    2569.2697    185898.29    10.472245    772.16229 
   72200   -1212.0309    170.28571   -1041.7452    2640.0552    170114.42    10.472245    774.46259 
   72300   -1197.8881    158.04847   -1039.8397     2450.333    178994.93    10.472245    777.10021 
   72400     -1191.08    159.70106   -1031.3789    2475.9543    183993.76    10.472245    778.97623 
   72500   -1200.9501     154.1531    -1046.797    2389.9404    175708.57    10.472245    780.77037 
   72600   -1200.2993    154.79982   -1045.4995     2399.967    176620.63    10.472245    784.33096 
   72700   -1197.8305    166.43318   -1031.3973    2580.3268    179444.08    10.472245     787.0338 
   72800   -1189.3319    159.96019   -1029.3717    2479.9717    184653.95    10.472245    785.63976 
   72900   -1204.7366    158.15003   -1046.5866    2451.9075    174513.06    10.472245    789.94336 
   73000   -1181.4008     157.5116   -1023.8892    2442.0095    187850.43    10.472245    790.46782 
   73100   -1185.2068    154.77008   -1030.4367    2399.5059    187195.09    10.472245    791.63385 
   73200   -1204.3222    159.27096   -1045.0512    2469.2862    174943.97    10.472245    794.96462 
   73300   -1190.2602    157.06099   -1033.1992    2435.0234    183851.98    10.472245    795.80538 
   73400    -1180.865    173.41297    -1007.452    2688.5393    192536.76    10.472245     796.0804 
   73500   -1193.5128    167.35721   -1026.1556    2594.6527    182019.96    10.472245    796.63448 
   73600   -1195.0402    157.97396   -1037.0662    2449.1778    180647.53    10.472245    799.64497 
   73700     -1198.48    161.97761   -1036.5024    2511.2491    177865.21    10.472245    801.27468 
   73800   -1204.4177    167.94582   -1036.4719    2603.7783    176550.44    10.472245    802.36736 
   73900   -1201.4505     159.8463   -1041.6042     2478.206     175531.2    10.472245    803.37071 
   74000   -1197.5875    157.10952   -1040.4779    2435.7759    179530.45    10.472245     801.4888 
   74100   -1205.1647    179.44959   -1025.7151    2782.1291    178553.94    10.472245    806.46528 
   74200   -1200.2734     153.5723   -1046.7011     2380.936    177235.13    10.472245    809.62669 
   74300    -1200.613    168.21143   -1032.4016    2607.8963    178481.14    10.472245    811.14635 
   74400   -1195.4174     159.4377   -1035.9797    2471.8712    181185.11    10.472245    813.44324 
   74500   -1204.5092    153.27276   -1051.2364    2376.2919    173065.41    10.472245    815.87389 
   74600   -1189.7472    159.01266   -1030.7345    2465.2816    184917.26    10.472245    816.90305 
   74700   -1193.4414    156.10428   -1037.3371    2420.1909    180740.19    10.472245    814.18371 
   74800   -1199.3772    154.80608   -1044.5711    2400.0641     177298.1    10.472245    812.43057 
   74900   -1198.6522    166.42355   -1032.2286    2580.1776    180277.65    10.472245    816.54149 
   75000   -1191.8679    160.64304   -1031.2249    2490.5584    183551.05    10.472245    813.25005 
   75100   -1201.9097    155.55833   -1046.3514    2411.7267    176646.25    10.472245    813.12741 
   75200   -1202.0605      169.658   -1032.4025    2630.3234    177384.13    10.472245    820.63907 
   75300   -1194.1739    159.80006   -1034.3738    2477.4892    181645.48    10.472245    823.53813 
   75400    -1202.996    155.43915   -1047.5569    2409.8789    174027.89    10.472245    824.47869 
   75500   -1206.6385    170.58072   -1036.0578     2644.629    174784.31    10.472245     826.3767 
   75600   -1193.1689    161.52358   -1031.6454    2504.2101    182618.63    10.472245    830.82887 
   75700   -1180.0843    163.54693   -1016.5374    2535.5793    189829.97    10.472245    833.68291 
   75800   -1190.1326     157.9785   -1032.1541    2449.2483    182917.99    10.472245    834.55122 
   75900   -1204.1427    167.00458   -1037.1381    2589.1857    175429.21    10.472245    835.04588 
   76000   -1196.7541    162.96908    -1033.785    2526.6205    179208.55    10.472245    832.91008 
   76100   -1189.2559    165.88702   -1023.3688    2571.8594    184816.79    10.472245     832.8451 
   76200   -1205.8402     161.8218   -1044.0184    2508.8335    174039.28    10.472245    837.29257 
   76300   -1199.9124    168.11056   -1031.8018    2606.3325    178709.17    10.472245    838.99973 
   76400   -1191.8441    162.00104   -1029.8431    2511.6124    183378.61    10.472245    839.50642 
   76500   -1194.0776    167.62066   -1026.4569    2598.7373    182566.44    10.472245    842.73411 
   76600   -1201.9944    153.71879   -1048.2756     2383.207    174516.44    10.472245    845.17855 
   76700   -1196.7112    156.36964   -1040.3416     2424.305    179215.03    10.472245    845.44169 
   76800   -1187.0055    154.54455    -1032.461    2396.0094    185078.47    10.472245    848.46279 
   76900    -1200.711    156.94805   -1043.7629    2433.2725     175457.2    10.472245    854.02678 
   77000   -1200.1438    162.48114   -1037.6627    2519.0557    178871.43    10.472245    853.96813 
   77100   -1193.7265    165.01742   -1028.7091    2558.3773    183123.28    10.472245    856.74773 
   77200    -1200.207      163.212    -1036.995    2530.3867    176922.34    10.472245    856.63426 
[...]
   81400   -1196.7803    168.18081   -1028.5995    2607.4215    180269.16    10.472245    896.89941 
   81500   -1192.7413    166.11267   -1026.6287    2575.3577    181362.98    10.472245    899.68971 
   81600   -1196.9098    157.13963   -1039.7702    2436.2427    178747.42    10.472245    904.44127 
   81700   -1182.1678    165.18795   -1016.9799    2561.0212    190895.81    10.472245    903.99327 
   81800   -1193.0486    164.09243   -1028.9561    2544.0367    180114.21    10.472245    906.46635 
   81900   -1204.6197    166.16789   -1038.4518    2576.2139    175886.28    10.472245    907.54973 
   82000   -1192.4474     154.9987   -1037.4487    2403.0504    182361.56    10.472245    909.93342 
   82100   -1185.7137    162.59658   -1023.1171    2520.8455    185813.37    10.472245    910.84047 
   82200    -1200.218    159.11003    -1041.108    2466.7911    176290.58    10.472245    912.60537 
   82300   -1197.9596    166.53991   -1031.4197    2581.9816     180060.1    10.472245    914.70202 
   82400   -1187.6523    179.45444   -1008.1979    2782.2043    186971.72    10.472245    916.97936 
   82500   -1192.1689    162.30061   -1029.8683    2516.2568    183827.69    10.472245     920.0277 
   82600   -1200.8775    167.51706   -1033.3605    2597.1309    178602.52    10.472245     921.7873 
   82700   -1200.5035    158.11836   -1042.3852    2451.4165    178591.38    10.472245    923.04419 
   82800   -1198.0624    160.94013   -1037.1223    2495.1644    179830.62    10.472245    927.01299 
   82900   -1192.0692    163.50702   -1028.5622    2534.9607    184469.98    10.472245    927.16478 
   83000   -1199.9628    155.54553   -1044.4173    2411.5283    177701.71    10.472245    930.48316 
   83100   -1211.2033    161.13955   -1050.0637    2498.2561    171641.92    10.472245    932.76063 
   83200   -1190.3207    155.74063   -1034.5801     2414.553    183962.59    10.472245    933.91927 
   83300   -1192.3392    167.20263   -1025.1366    2592.2561    182403.47    10.472245    934.49984 
   83400   -1201.2085    158.68861   -1042.5199    2460.2575    177099.61    10.472245    940.06482 
   83500   -1196.3027    164.67378   -1031.6289    2553.0498    178478.33    10.472245    942.59272 
   83600   -1191.6913    166.93982   -1024.7515    2588.1817    185731.71    10.472245    945.33612 
   83700   -1194.5205    153.31949    -1041.201    2377.0164    182985.73    10.472245    944.49454 
   83800   -1186.2392    163.48608   -1022.7532    2534.6359    185972.74    10.472245     944.0528 
   83900   -1182.6751     156.9181    -1025.757    2432.8081    186996.85    10.472245    946.79495 
   84000   -1201.7384    162.04809   -1039.6903    2512.3419    175966.11    10.472245    944.86493 
   84100   -1206.0648    172.17785    -1033.887    2669.3904    175044.04    10.472245    947.11113 
   84200   -1191.0374     171.0318   -1020.0056    2651.6225     185513.9    10.472245    946.78087 
   84300   -1199.6275    164.34672   -1035.2808    2547.9791    178206.42    10.472245    948.19334 
   84400   -1194.4223    160.48714   -1033.9352    2488.1415    180277.37    10.472245    947.86023 
   84500   -1185.3364    174.55028   -1010.7861    2706.1717    188818.63    10.472245    948.17175 
   84600   -1190.3809    156.17294    -1034.208    2421.2554    182745.95    10.472245    950.34063 
   84700   -1193.9052    162.98305   -1030.9221    2526.8372    182571.66    10.472245     950.8624 
   84800   -1187.5815    157.23331   -1030.3481    2437.6951    184830.12    10.472245    954.12198 
   84900   -1202.3625    159.25051    -1043.112     2468.969    174449.83    10.472245    952.75071 
   85000   -1208.5071    165.78996   -1042.7171    2570.3546    171790.04    10.472245    955.79053 
   85100   -1189.3244    163.14987   -1026.1746    2529.4235    184693.45    10.472245    955.55868 
   85200   -1195.1366    152.94083   -1042.1958    2371.1457    179219.58    10.472245    955.18694 
   85300    -1205.381    163.32594    -1042.055    2532.1532    173571.24    10.472245    956.16588 
   85400   -1195.3042    160.40517   -1034.8991    2486.8706    180432.02    10.472245    959.30141 
   85500   -1201.6774    164.45786   -1037.2195    2549.7022    177523.35    10.472245    962.76446 
   85600    -1202.744    152.84675   -1049.8972    2369.6873    174435.67    10.472245    961.88402 
   85700   -1190.2121    157.48738   -1032.7247    2441.6341    182619.77    10.472245     963.6389 
   85800   -1199.4409     162.4393   -1037.0016    2518.4071    177782.99    10.472245    964.13935 
   85900   -1200.3676     155.4224   -1044.9452    2409.6193    176722.09    10.472245    964.59751 
   86000   -1202.6037     171.9612   -1030.6425    2666.0315    178473.23    10.472245    968.59623 
   86100   -1197.7101    157.18795   -1040.5222    2436.9918    177720.45    10.472245    971.53732 
   86200   -1202.8498    154.78496   -1048.0648    2399.7366    174443.56    10.472245    970.64488 
   86300   -1196.7441    170.69101   -1026.0531    2646.3389    181986.13    10.472245    970.09241 
   86400   -1189.7847    156.02924   -1033.7554    2419.0274    185326.72    10.472245     975.8711 
   86500     -1207.45    156.39629   -1051.0537    2424.7181    173430.44    10.472245    974.69576 
   86600    -1193.997    168.41765   -1025.5794    2611.0935    181798.77    10.472245    976.19992 
   86700   -1199.7845    156.20181   -1043.5827    2421.7031    179472.47    10.472245    975.88795 
   86800   -1192.2681    147.82256   -1044.4455    2291.7938    182562.08    10.472245    978.06109 
   86900   -1193.7783    167.36445   -1026.4138     2594.765    182830.96    10.472245    977.63362 
   87000   -1203.3017    168.11756   -1035.1841     2606.441    176032.51    10.472245     978.7536 
   87100   -1207.9774    152.83762   -1055.1398    2369.5456    169763.27    10.472245    977.26535 
   87200   -1199.5461    168.20427   -1031.3419    2607.7853    177537.61    10.472245    977.08942 
   87300   -1202.3607    160.31453   -1042.0462    2485.4653    176396.62    10.472245      978.299 
   87400   -1195.9441    165.88764   -1030.0564     2571.869    181703.59    10.472245    981.58887 
   87500   -1188.3372    157.55209   -1030.7851    2442.6373    184624.03    10.472245    979.91172 
   87600   -1199.2645    163.47798   -1035.7865    2534.5103    178363.82    10.472245    981.38601 
   87700   -1206.2915    158.37932   -1047.9122    2455.4624    172931.81    10.472245    985.38997 
   87800   -1196.1866    156.77207   -1039.4145    2430.5441    180867.29    10.472245     985.6706 
   87900    -1194.223    166.09689   -1028.1261    2575.1131     184215.2    10.472245    989.50766 
   88000   -1200.6157    157.69279   -1042.9229    2444.8186    175712.51    10.472245    992.82735 
   88100   -1199.4672    159.56437   -1039.9028     2473.835    175859.27    10.472245    994.97915 
   88200   -1198.1989    165.20847   -1032.9904    2561.3394    180337.85    10.472245    994.48185 
   88300   -1206.3616    158.51013   -1047.8514    2457.4905    173612.41    10.472245     996.7827 
   88400   -1199.8766    171.99333   -1027.8832    2666.5297    179621.11    10.472245    997.36459 
   88500   -1189.8357    155.77694   -1034.0588    2415.1159    184043.31    10.472245    997.79193 
   88600   -1200.7578    148.94113   -1051.8167    2309.1358     175486.6    10.472245    998.20263 
   88700   -1200.9594    156.96378   -1043.9956    2433.5163    175839.97    10.472245    1000.6221 
   88800   -1195.3701     157.4772   -1037.8929    2441.4763    180880.08    10.472245    1001.7625 
   88900   -1192.4451    163.01278   -1029.4323    2527.2982    182317.43    10.472245    1005.6086 
   89000   -1199.6217    156.90681   -1042.7149     2432.633    177152.02    10.472245    1007.0096 
   89100   -1187.1308    150.72205   -1036.4087    2336.7466    185756.89    10.472245    1005.5212 
   89200   -1199.2251    166.46252   -1032.7626    2580.7817    177110.34    10.472245    1006.8604 
   89300   -1202.4094    161.70566   -1040.7037    2507.0329    177377.91    10.472245    1009.5428 
   89400   -1191.3282    167.99738   -1023.3308    2604.5777    183092.79    10.472245    1010.5967 
   89500   -1198.3777    163.18047   -1035.1972     2529.898    177539.55    10.472245    1010.3043 
   89600   -1203.8869    157.12168   -1046.7653    2435.9643     174204.6    10.472245     1014.293 
   89700   -1194.9139    163.79475   -1031.1191    2539.4215    180884.65    10.472245    1014.7665 
   89800    -1195.861    155.73849   -1040.1225    2414.5198    181371.39    10.472245     1012.962 
   89900   -1199.4799    153.15548   -1046.3244    2374.4737    177701.48    10.472245     1012.328 
   90000    -1201.205    171.07558   -1030.1295    2652.3012    179526.41    10.472245    1011.9712 
   90100   -1190.6719    155.69099   -1034.9809    2413.7834    180338.26    10.472245    1014.9486 
   90200   -1208.4611    151.32356   -1057.1375    2346.0721    171591.75    10.472245    1018.7743 
   90300    -1197.642    162.51903   -1035.1229    2519.6432    177900.19    10.472245     1019.705 
   90400   -1200.0669    159.35166   -1040.7153    2470.5372    177409.24    10.472245    1025.1084 
   90500   -1198.4626     158.4713   -1039.9913    2456.8885    178199.21    10.472245    1029.0261 
   90600   -1190.1676    164.44856    -1025.719    2549.5579    183081.76    10.472245    1029.9802 
   90700   -1198.9078    155.60132   -1043.3065    2412.3933    177890.51    10.472245    1030.4054 
   90800   -1198.5295    162.36884   -1036.1607    2517.3147    179858.91    10.472245    1031.4709 
   90900   -1199.0696    165.07616   -1033.9934    2559.2881    179386.33    10.472245    1032.0884 
   91000    -1193.764    143.60377   -1050.1603     2226.387    178875.39    10.472245    1030.3737 
   91100   -1186.8689    156.34238   -1030.5265    2423.8823    186064.11    10.472245     1029.655 
   91200   -1193.6755    162.22507   -1031.4504    2515.0857    183708.42    10.472245    1029.6652 
   91300   -1204.1238    151.96084   -1052.1629    2355.9524    174793.27    10.472245    1031.5099 
   91400   -1195.3421    157.61637   -1037.7258    2443.6339    178945.82    10.472245     1034.336 
   91500   -1196.2268    159.22786    -1036.999    2468.6179    180488.79    10.472245    1036.3164 
   91600   -1201.2675    156.39589   -1044.8716    2424.7119    177274.43    10.472245    1035.1385 
   91700   -1196.8902    153.55895   -1043.3312     2380.729    177933.96    10.472245    1034.8314 
   91800   -1198.4919    166.20194   -1032.2899    2576.7418    181083.63    10.472245    1035.2557 
   91900   -1200.1358    164.38914   -1035.7467    2548.6367    177191.93    10.472245    1035.8784 
   92000   -1188.9479    151.28303   -1037.6649    2345.4438     182168.7    10.472245    1036.5195 
   92100    -1189.948    164.11325   -1025.8348    2544.3594    183754.74    10.472245    1038.9256 
   92200   -1192.8167    157.07328   -1035.7435     2435.214    181599.17    10.472245    1041.9017 
   92300   -1194.5714    152.78485   -1041.7866    2368.7275    180229.35    10.472245    1042.1069 
   92400    -1192.614    164.27187   -1028.3421    2546.8186    182070.55    10.472245    1044.2288 
   92500   -1192.3764     159.0732   -1033.3032    2466.2201    182241.13    10.472245     1047.158 
   92600   -1196.8004    164.05663   -1032.7437    2543.4816    180506.77    10.472245    1049.9693 
   92700   -1186.0008    168.20112   -1017.7997    2607.7365    187631.41    10.472245    1050.1295 
   92800   -1197.2606    163.72726   -1033.5333    2538.3752    180797.16    10.472245    1052.7018 
   92900   -1204.8913    164.82048   -1040.0708    2555.3241    176358.15    10.472245    1052.0119 
   93000   -1200.0972    166.16515    -1033.932    2576.1714    177920.11    10.472245    1052.6892 
   93100   -1193.7024    168.11277   -1025.5896    2606.3668    183559.53    10.472245    1052.7927 
   93200   -1201.3817    156.02095   -1045.3608     2418.899    177192.07    10.472245    1050.7228 
   93300   -1193.5615    158.77226   -1034.7892    2461.5545    181566.97    10.472245    1049.7775 
   93400   -1202.6554    166.49217   -1036.1633    2581.2415    177162.95    10.472245    1054.6407 
   93500   -1203.1609    169.60368   -1033.5572    2629.4813     175641.3    10.472245    1055.0066 
   93600   -1191.2205    167.80014   -1023.4203    2601.5198    183407.06    10.472245    1054.4375 
   93700   -1200.1407     155.7237    -1044.417    2414.2906    177497.26    10.472245    1055.0045 
   93800   -1194.3198    165.49188    -1028.828    2565.7333    181475.51    10.472245    1058.0098 
   93900   -1199.1388    158.62344   -1040.5154    2459.2471    178909.83    10.472245    1061.2861 
   94000   -1206.3086    144.61204   -1061.6966    2242.0189    171449.13    10.472245    1062.5773 
   94100   -1205.7202    165.12089   -1040.5994    2559.9816    175454.02    10.472245    1064.4342 
   94200   -1197.7279    169.38991    -1028.338    2626.1671    180815.83    10.472245    1066.9878 
   94300   -1201.4575    155.58936   -1045.8682    2412.2078    175782.34    10.472245    1064.8924 
   94400   -1197.3909    159.41443   -1037.9764    2471.5105    178787.49    10.472245    1064.7057 
   94500   -1193.3889    159.49442   -1033.8945    2472.7505    183718.34    10.472245    1066.0175 
   94600   -1197.7536    173.92851   -1023.8251    2696.5321    182378.63    10.472245    1066.2385 
   94700   -1194.5406    172.16576   -1022.3748     2669.203    182612.88    10.472245    1069.4914 
   94800   -1203.9461    166.52565   -1037.4204    2581.7604    178496.86    10.472245     1067.043 
   94900   -1194.1743    158.51069   -1035.6636    2457.4991    180872.59    10.472245    1068.8115 
   95000   -1194.9089    166.60271   -1028.3062    2582.9553    179703.48    10.472245    1071.7024 
   95100   -1205.0294    157.32574   -1047.7036     2439.128    173187.13    10.472245    1070.9923 
   95200   -1204.1531    169.77797   -1034.3752    2632.1834    176583.03    10.472245    1074.6373 
   95300   -1192.6481    160.42802   -1032.2201    2487.2249    182719.35    10.472245     1073.949 
   95400   -1200.7424     172.7284    -1028.014     2677.926    179278.88    10.472245    1073.7518 
   95500   -1199.8752    158.92613   -1040.9491      2463.94    177565.91    10.472245    1077.8261 
   95600   -1198.5375    150.24817   -1048.2894    2329.3997    177223.87    10.472245    1079.0065 
   95700   -1186.3618    157.51062   -1028.8512    2441.9943       185146    10.472245    1081.5561 
   95800   -1199.5088    163.98634   -1035.5224    2542.3919    178584.79    10.472245     1084.873 
   95900   -1197.7907    149.46824   -1048.3225    2317.3079    177005.98    10.472245    1084.6238 
   96000   -1195.4699    161.58419   -1033.8857    2505.1497    180575.68    10.472245    1084.2637 
   96100   -1191.6565    162.26186   -1029.3946    2515.6561    181940.96    10.472245    1083.1916 
   96200   -1206.1663    166.87301   -1039.2933    2587.1459    174972.71    10.472245    1085.5941 
   96300   -1203.7737    153.03806   -1050.7356    2372.6533    173681.01    10.472245    1086.3506 
   96400   -1195.9845    167.52539   -1028.4591    2597.2602    181607.44    10.472245    1090.4347 
   96500   -1200.0008    160.65253   -1039.3483    2490.7055    177259.07    10.472245    1089.1991 
   96600   -1195.3704    161.22402   -1034.1464    2499.5657     180852.2    10.472245    1091.3658 
   96700   -1202.9272    178.62174   -1024.3054    2769.2945    175601.39    10.472245    1093.3033 
   96800     -1202.84    164.59356   -1038.2465     2551.806    175548.67    10.472245    1092.5473 
   96900   -1193.1651    165.22014   -1027.9449    2561.5203    182913.71    10.472245    1096.2842 
   97000   -1194.7902    172.03172   -1022.7584    2667.1248    183226.89    10.472245    1094.7904 
   97100   -1190.7255    155.72038   -1035.0052     2414.239    182490.43    10.472245    1094.5873 
   97200   -1201.5779    166.86648   -1034.7114    2587.0446    177454.17    10.472245    1091.9037 
   97300   -1196.4481    171.20998   -1025.2381    2654.3848    181975.63    10.472245    1093.0559 
   97400   -1200.0562    158.91423   -1041.1419    2463.7556     176299.1    10.472245    1094.1667 
   97500   -1187.9096    160.70638   -1027.2032    2491.5404    184695.61    10.472245    1092.9673 
   97600   -1199.0444    168.85301   -1030.1914    2617.8432    178003.13    10.472245    1093.5798 
   97700   -1194.2134    160.30553   -1033.9079    2485.3257    180718.13    10.472245    1093.4078 
   97800   -1193.0992    162.13595   -1030.9632     2513.704    182604.32    10.472245     1096.057 
   97900   -1205.1511    160.64621   -1044.5049    2490.6076     173873.9    10.472245    1095.5162 
   98000   -1203.1544    165.25289   -1037.9016    2562.0281    175530.22    10.472245    1097.1297 
   98100   -1193.8028     168.9261   -1024.8767    2618.9763    184575.07    10.472245     1100.019 
   98200   -1200.9257    158.28946   -1042.6362    2454.0692       176428    10.472245    1101.4058 
   98300   -1202.9941    162.20397   -1040.7901    2514.7586    174535.68    10.472245    1101.8424 
   98400   -1198.3077     163.6792   -1034.6285      2537.63    179139.85    10.472245    1104.6991 
   98500   -1185.6783    160.51493   -1025.1634    2488.5723     185398.7    10.472245    1106.8301 
   98600   -1196.2476    152.54111   -1043.7065    2364.9487    176531.46    10.472245    1108.5836 
   98700   -1192.9872    163.21186   -1029.7753    2530.3846    181287.11    10.472245    1108.5923 
   98800   -1191.1983    155.97619   -1035.2221    2418.2051    182921.35    10.472245    1111.5201 
   98900   -1203.5501    162.64321   -1040.9068    2521.5684    175869.01    10.472245     1111.438 
   99000   -1198.2967    145.90981   -1052.3869    2262.1391    177492.44    10.472245     1112.068 
   99100   -1196.6416    167.85029   -1028.7913    2602.2972    181730.63    10.472245    1117.4456 
   99200    -1202.848    162.53061   -1040.3174    2519.8227    176726.59    10.472245    1116.4302 
   99300   -1195.5428    151.98233   -1043.5605    2356.2855    179523.04    10.472245    1121.7015 
   99400   -1189.3727    163.83498   -1025.5377    2540.0453    184922.66    10.472245    1123.3106 
   99500   -1199.9026    164.01124   -1035.8914    2542.7779    177221.06    10.472245    1126.0317 
   99600   -1199.2743    155.67487   -1043.5995    2413.5335    177732.58    10.472245    1128.9335 
   99700   -1200.2431    171.62035   -1028.6227     2660.747    178089.18    10.472245     1130.734 
   99800   -1196.2657    161.64269    -1034.623    2506.0566     181052.2    10.472245    1131.3017 
   99900   -1203.4956    154.11436   -1049.3812    2389.3398    174297.05    10.472245    1136.1934 
  100000    -1192.286     162.9973   -1029.2887    2527.0581    183870.34    10.472245    1136.9302 
Loop time of 147.711 on 1 procs for 100000 steps with 500 atoms

Performance: 292.463 ns/day, 0.082 hours/ns, 676.998 timesteps/s
100.0% CPU use with 1 MPI tasks x no OpenMP threads

MPI task timing breakdown:
Section |  min time  |  avg time  |  max time  |%varavg| %total
---------------------------------------------------------------
Pair    | 87.672     | 87.672     | 87.672     |   0.0 | 59.35
Neigh   | 8.1509     | 8.1509     | 8.1509     |   0.0 |  5.52
Comm    | 1.3903     | 1.3903     | 1.3903     |   0.0 |  0.94
Output  | 0.038102   | 0.038102   | 0.038102   |   0.0 |  0.03
Modify  | 50.177     | 50.177     | 50.177     |   0.0 | 33.97
Other   |            | 0.2819     |            |       |  0.19

Nlocal:    500 ave 500 max 500 min
Histogram: 1 0 0 0 0 0 0 0 0 0
Nghost:    2145 ave 2145 max 2145 min
Histogram: 1 0 0 0 0 0 0 0 0 0
Neighs:    26326 ave 26326 max 26326 min
Histogram: 1 0 0 0 0 0 0 0 0 0

Total # of neighbors = 26326
Ave neighs/atom = 52.652
Neighbor list builds = 7384
Dangerous builds = 84
    
Total wall time: 0:02:27
