LAMMPS (3 Mar 2020)

# ---------- 1. Initialize simulation ----------
units metal
atom_style atomic
dimension 3
boundary p p p
read_data /home/modeler/RemLabs/Project/arrhenius_3/T1800.0/n3_T1800.0_timestep3.000000e-03_eqsteps3200_time600_rseed3327/20201205-100544/lammps.data
  orthogonal box = (0 0 0) to (17.469 17.469 17.469)
  1 by 1 by 1 MPI processor grid
  reading atoms ...
  217 atoms
  read_data CPU = 0.00100746 secs

pair_style meam/c
pair_coeff * * library.meam Li Si LiSi.meam Li Si
Reading potential file library.meam with DATE: 2012-06-29
Reading potential file LiSi.meam with DATE: 2020-11-07

group Li type 1
1 atoms in group Li
group Si type 2
216 atoms in group Si

velocity all create 1800.0 3327 dist gaussian

# ---------- 2. Specify equilibration ensemble  ----------
fix 1 all npt temp 1800.0 1800.0 0.15 tchain 2 iso 1.0 1.0 1.0 pchain 2
# fix 1 all nvt temp 1800.0 1800.0 0.15

# ---------- 3. Run equilibration -------------
timestep 0.003
run 3200
Neighbor list info ...
  update every 1 steps, delay 10 steps, check yes
  max neighbors/atom: 2000, page size: 100000
  master list distance cutoff = 6
  ghost atom cutoff = 6
  binsize = 3, bins = 6 6 6
  2 neighbor lists, perpetual/occasional/extra = 2 0 0
  (1) pair meam/c, perpetual
      attributes: full, newton on
      pair build: full/bin/atomonly
      stencil: full/bin/3d
      bin: standard
  (2) pair meam/c, perpetual, half/full from (1)
      attributes: half, newton on
      pair build: halffull/newton
      stencil: none
      bin: none
Per MPI rank memory allocation (min/avg/max) = 8.895 | 8.895 | 8.895 Mbytes
Step Temp E_pair E_mol TotEng Press Volume 
       0         1800   -951.04357            0   -900.78722   -114161.75    5330.9442 
    3200     1863.614   -940.08606            0    -888.0536    6175.2735    4644.2899 
Loop time of 2.26547 on 1 procs for 3200 steps with 217 atoms

Performance: 366.123 ns/day, 0.066 hours/ns, 1412.513 timesteps/s
100.0% CPU use with 1 MPI tasks x no OpenMP threads

MPI task timing breakdown:
Section |  min time  |  avg time  |  max time  |%varavg| %total
---------------------------------------------------------------
Pair    | 2.1533     | 2.1533     | 2.1533     |   0.0 | 95.05
Neigh   | 0.062728   | 0.062728   | 0.062728   |   0.0 |  2.77
Comm    | 0.015284   | 0.015284   | 0.015284   |   0.0 |  0.67
Output  | 2.3788e-05 | 2.3788e-05 | 2.3788e-05 |   0.0 |  0.00
Modify  | 0.029157   | 0.029157   | 0.029157   |   0.0 |  1.29
Other   |            | 0.004943   |            |       |  0.22

Nlocal:    217 ave 217 max 217 min
Histogram: 1 0 0 0 0 0 0 0 0 0
Nghost:    957 ave 957 max 957 min
Histogram: 1 0 0 0 0 0 0 0 0 0
Neighs:    4108 ave 4108 max 4108 min
Histogram: 1 0 0 0 0 0 0 0 0 0
FullNghs:  8216 ave 8216 max 8216 min
Histogram: 1 0 0 0 0 0 0 0 0 0

Total # of neighbors = 8216
Ave neighs/atom = 37.8618
Neighbor list builds = 107
Dangerous builds = 0

# ---------- 4. Describe computed properties----------
compute msdli Li msd
compute msdsi Si msd
thermo_style custom step pe ke etotal temp press density c_msdli[4] c_msdsi[4]
thermo 100

# ---------- 3. Run production -------------
timestep 0.003
run 200000
Per MPI rank memory allocation (min/avg/max) = 9.664 | 9.664 | 9.664 Mbytes
Step PotEng KinEng TotEng Temp Press Density c_msdli[4] c_msdsi[4] 
    3200   -940.08606     52.03246    -888.0536     1863.614    6175.2735    2.1715501            0 6.5845405e-32 
    3300   -939.62659    44.879403   -894.74719    1607.4174   -9573.1339    2.1374688   0.09423862   0.13143355 
    3400   -938.64592    50.560095   -888.08582    1810.8792    2642.1999    2.1648206   0.14439168   0.11835748 
    3500    -933.3435    49.261464   -884.08204     1764.367    10220.677    2.1739944   0.39355622   0.14674004 
    3600   -940.87753    47.799086   -893.07845    1711.9899   -8434.7523    2.1454178   0.15808524   0.16932915 
    3700   -942.14173     52.39219   -889.74954    1876.4982   -3174.5466    2.1562009    0.2271355    0.1430414 
    3800   -934.44626     53.04598   -881.40028    1899.9146    10225.811    2.1735873   0.18990725   0.14491471 
    3900   -941.19073    49.636757   -891.55397    1777.8086   -1334.9228    2.1584802   0.10093163   0.14611086 
    4000    -941.0624    48.632133   -892.43027    1741.8266   -9104.9374    2.1432276   0.09422197    0.1255548 
    4100    -938.3822    53.515491   -884.86671    1916.7308    7477.9993    2.1770722   0.21848515   0.13511734 
    4200   -943.51139    50.895223   -892.61617    1822.8823    413.91127    2.1703471    0.8516868   0.13173829 
    4300    -944.6413    49.193187   -895.44811    1761.9216   -10236.114    2.1433043  0.072010764   0.14262505 
    4400   -941.33499    53.956036   -887.37895    1932.5096    2641.3659    2.1658036   0.18548464    0.1493305 
    4500    -939.0846    48.473712   -890.61089    1736.1526    7808.8958    2.1740708   0.41320304   0.16366226 
    4600   -946.74606    47.906268   -898.83979    1715.8288   -10048.342     2.151026   0.36893461   0.17602193 
    4700   -941.04144    51.728214   -889.31322     1852.717   -2314.4609    2.1499249   0.21847492   0.15005339 
    4800   -940.75777    53.644077   -887.11369    1921.3363    8959.2895    2.1829371    1.6492166    0.1541481 
    4900   -942.87785    48.575868   -894.30198    1739.8114   -3894.2624    2.1542406    3.4296102   0.12987692 
    5000   -937.73412    50.783048   -886.95107    1818.8646   -8449.3634    2.1335839    5.0594192   0.17927314 
    5100   -935.34169    50.623604   -884.71808    1813.1539    9599.4091    2.1764686    7.5411593   0.17044718 
    5200   -941.09591     50.48041    -890.6155    1808.0252   -3269.2981    2.1551962    4.7082578   0.19355893 
    5300   -943.06124    52.161461   -890.89978    1868.2344   -10443.828    2.1396251    6.2386672    0.1932205 
    5400   -935.48064    55.929689   -879.55095    2003.1986    8301.6082    2.1669511    4.5710885   0.18359273 
    5500   -940.66293    54.145943   -886.51699    1939.3113    3867.7518    2.1725054    6.9013996   0.19733713 
    5600   -941.35418    50.064246   -891.28993    1793.1197   -9634.2019    2.1345024    11.405605   0.16652535 
    5700    -937.4782    51.438631   -886.03957    1842.3452     4589.344    2.1649001    15.145984   0.16149501 
    5800   -935.60987    54.162611   -881.44726    1939.9083    9127.6855    2.1746892    16.756788   0.16038667 
    5900   -939.33359    46.971065   -892.36252    1682.3332   -1056.6892    2.1570431    18.793442   0.13622824 
    6000     -940.145    49.166647   -890.97835     1760.971    -3960.133     2.153212    18.145905     0.145814 
    6100   -937.25924    50.351356   -886.90789     1803.403    6746.7818    2.1790712     18.19903   0.16938781 
    6200   -935.78379    47.037887    -888.7459    1684.7265    806.43332    2.1614695    17.650692   0.17032005 
    6300    -940.8467     44.46337   -896.38333    1592.5167   -542.53695     2.163229    18.646756   0.16735232 
    6400   -941.01441    50.278196   -890.73621    1800.7826    3371.0936    2.1770171    18.873079   0.14090272 
    6500   -939.52955    51.919514   -887.61004    1859.5687   -102.17783    2.1591173    15.569997   0.13253181 
    6600   -938.78239    50.412678   -888.36972    1805.5993   -7401.7794    2.1426054    19.422923   0.14349517 
    6700   -941.39992    45.268921     -896.131    1621.3686    11142.918    2.1946775    18.624853   0.13691887 
    6800   -936.42536    47.437576   -888.98778    1699.0419    4122.5556    2.1658117    19.861064   0.12904879 
    6900   -933.51218     43.56978    -889.9424    1560.5115   -14305.013    2.1136976    20.146503   0.15430652 
    7000   -944.13182    50.399347   -893.73247    1805.1218    6311.9482    2.1826171    17.541569   0.13239925 
    7100   -942.30746    45.471365    -896.8361    1628.6194    19501.521    2.2167914    17.188075   0.13853743 
    7200   -940.02315    51.107948    -888.9152    1830.5013   -14655.113    2.1213574    17.181144    0.1744509 
    7300   -939.45403    49.971579   -889.48245    1789.8008   -4054.1386     2.149706    21.258795   0.16504739 
    7400   -945.01848    50.412793   -894.60568    1805.6034    9860.6848    2.1969234    17.234633   0.12801622 
    7500   -937.10264    49.532833    -887.5698    1774.0865   -1001.8409    2.1539266    20.231325   0.15462824 
    7600   -936.61337    49.613901   -886.99946      1776.99   -6465.2456    2.1432143    17.229581    0.1543212 
    7700    -942.3727    50.974428   -891.39827    1825.7192    3012.0385    2.1715497    19.909482   0.12933145 
    7800    -949.0858    56.080306    -893.0055    2008.5932    2682.5594    2.1784564     17.40297   0.13269009 
    7900   -934.87751    52.461041   -882.41646    1878.9642   -8900.4109    2.1276258    17.109749   0.16548257 
    8000   -940.77043    49.803398   -890.96703    1783.7771    3225.8603    2.1747285    17.292841   0.17717878 
    8100   -942.08418    50.717102   -891.36708    1816.5027    4765.7683    2.1799008    14.213535   0.17555765 
    8200    -935.8861    50.989099     -884.897    1826.2446   -5870.4874     2.138095     17.32622   0.17265877 
    8300   -935.74005    50.223104   -885.51695    1798.8095   -1345.3325     2.150143    20.152856   0.16337707 
    8400   -939.10118    47.286877   -891.81431    1693.6445    11387.395    2.1908608    20.546678   0.15667131 
    8500   -938.65252    49.338476   -889.31404    1767.1253   -2924.0096    2.1532979    18.875648   0.14083764 
    8600   -936.86015    51.604709   -885.25545    1848.2935   -10105.432    2.1263151    18.638577   0.15133044 
    8700   -943.74812    47.481507   -896.26661    1700.6154    15719.748     2.207527     17.58879   0.14524923 
    8800   -940.01748    49.279355   -890.73812    1765.0078     314.0322      2.16696    12.801874   0.17905213 
    8900   -936.99525    47.765021   -889.23023    1710.7698   -15276.701    2.1218048    16.352462   0.18618902 
    9000   -940.69982    51.709053   -888.99077    1852.0308    9760.8407    2.1843585    19.033045   0.14907904 
    9100   -946.68386    48.645434   -898.03843     1742.303     10282.32    2.2036793    18.009111   0.15417154 
    9200   -936.58652    47.084891   -889.50163      1686.41   -11893.745    2.1304539    23.992608   0.15925738 
    9300   -942.63128    54.325185   -888.30609    1945.7311   -3425.1431    2.1581036    24.897946   0.14102197 
    9400    -945.4991     53.37313   -892.12597     1911.632    5827.5227    2.1846989    26.883191   0.15294256 
    9500   -943.46194    43.949155   -899.51278    1574.0994   -3162.0623     2.164819    23.303553   0.16300798 
    9600   -941.11526    49.928074   -891.18719    1788.2425   -5848.1608    2.1560014    23.187419   0.17862622 
    9700   -942.28136    54.317063    -887.9643    1945.4402    7817.7816    2.1852821    23.909124   0.19850885 
    9800    -940.9603     52.87724   -888.08306     1893.871    -8607.729    2.1423305    26.487699   0.17942391 
    9900   -936.00623    46.660228     -889.346    1671.2002   -1672.7393    2.1464257    30.019845    0.1919303 
   10000   -942.27234    46.626189   -895.64615     1669.981    12721.254    2.1985288    38.719843   0.17488699 
   10100    -937.1191    50.894418   -886.22469    1822.8535   -1092.4455    2.1522301    26.237006   0.18437885 
   10200   -941.64618    52.823233   -888.82295    1891.9367   -8279.5435    2.1383704     33.21768   0.16163582 
   10300   -943.29044    49.852124   -893.43831    1785.5223    6903.0062    2.1858522    27.560073   0.16866092 
   10400   -941.06713    50.219355   -890.84777    1798.6752    5220.1676    2.1753789    27.076812    0.1905017 
   10500   -935.84562    50.555496   -885.29013    1810.7145   -9635.3429    2.1225053     26.18403   0.17509481 
   10600   -939.67475    48.196333   -891.47842    1726.2179    3213.1146    2.1662628    30.501829   0.18068225 
   10700   -943.53337    51.459564   -892.07381     1843.095    7253.5051    2.1832113    31.682276   0.15048505 
   10800   -936.99346    53.982177   -883.01128    1933.4458   -7208.7973    2.1316495    37.250962   0.16572579 
   10900   -940.24427    48.748715   -891.49556    1746.0022    194.44564    2.1603949    29.805759   0.15970423 
   11000   -941.98198     50.12681   -891.85517    1795.3606    4544.7725    2.1733735    32.152757   0.13711901 
   11100   -937.37214    51.471022   -885.90112    1843.5053    -2064.167    2.1535745    30.855547   0.16413316 
   11200   -938.85046    51.902547   -886.94791     1858.961   -4067.5457    2.1454577     30.16216   0.15509522 
   11300   -942.03721    48.069353   -893.96786    1721.6699    4053.8129    2.1745907     31.08231   0.15687631 
   11400   -939.66624    51.338689   -888.32755    1838.7656    3634.5746    2.1669873    31.466427   0.16832305 
   11500   -935.95433    47.919135    -888.0352    1716.2896   -1906.1626    2.1492428    33.781143   0.16050195 
   11600   -941.87042    44.588484   -897.28194    1596.9978    3823.1325    2.1785175    36.367827   0.15655882 
   11700   -939.92022    50.706857   -889.21337    1816.1357     115.9007    2.1654031    34.014677   0.14391995 
   11800   -939.06132    52.219002   -886.84232    1870.2953   -2402.5535    2.1490143    34.012942   0.13960994 
   11900    -943.2072    46.873274   -896.33393    1678.8307    1190.5316      2.17349    31.329921   0.14302875 
   12000   -941.14448    49.133139   -892.01135    1759.7708   -944.67073    2.1667565    32.979321   0.15095422 
   12100   -940.30116    53.380674   -886.92048    1911.9022   -2044.7851    2.1569838    32.584067   0.15848112 
   12200   -942.79713    48.537179   -894.25995    1738.4257   -997.21101    2.1631785    33.983642   0.15484595 
   12300    -941.7935    48.524516   -893.26898    1737.9722    3015.0311    2.1721991    31.298151    0.1589334 
   12400   -936.11162    50.606975   -885.50465    1812.5583    4527.0905    2.1652866    32.803564   0.15482126 
   12500   -938.93655    46.565963   -892.37059    1667.8239   -4205.7719    2.1497055    31.875116   0.14565066 
   12600   -938.98668    46.803016   -892.18367    1676.3143    2818.9094    2.1673845     28.70791   0.15589294 
   12700   -935.87102    53.484143   -882.38687    1915.6081     4087.933    2.1605897    31.386833   0.15240217 
   12800   -940.34302    49.990889   -890.35213    1790.4923   -2622.8325    2.1533108     29.50693   0.15261424 
   12900   -938.92462    46.011341   -892.91327    1647.9594    -1086.578    2.1601055    27.614917   0.15674405 
   13000   -931.19082    47.569406   -883.62141    1703.7636    7249.3135    2.1644668    28.925604   0.17453899 
   13100    -936.7154     49.12102   -887.59438    1759.3368    936.37621    2.1535933    32.551829   0.17121991 
   13200   -941.59882    47.561311   -894.03751    1703.4737   -6186.3468    2.1500139    30.231798   0.15776055 
   13300   -944.82414    57.909925   -886.91421    2074.1235     3378.126    2.1771422    31.908283   0.15572458 
   13400   -937.37558     50.25646   -887.11912    1800.0042    1587.8466    2.1588701    30.615892   0.16663899 
   13500   -943.17329    46.731686    -896.4416    1673.7595   -6827.4589    2.1515492    29.648019   0.13780547 
   13600   -939.56859    49.433816   -890.13477      1770.54    4114.3853    2.1708609    23.126954   0.13775618 
   13700   -943.01431    57.114639   -885.89967    2045.6392    1730.7861    2.1668655    30.713058   0.14044649 
   13800   -939.88273    45.437037    -894.4457    1627.3899   -7334.9885    2.1425567    33.305705   0.16237329 
   13900   -942.20345    48.846555    -893.3569    1749.5064   -1911.1716    2.1601459    33.140601   0.16153597 
   14000   -938.52318    53.744039   -884.77914    1924.9166    13148.223    2.1887054    32.382137   0.15191659 
   14100   -939.60498    47.910066   -891.69492    1715.9648   -4301.4037    2.1489218     30.07298   0.13867241 
   14200   -940.27515    44.873636   -895.40152    1607.2109   -9190.4372    2.1425714    33.969523   0.14918889 
   14300   -941.12759    55.568348   -885.55924    1990.2567    9989.1534    2.1866357    30.435913   0.15118064 
   14400   -938.51748    50.631402   -887.88608    1813.4332    3715.6008    2.1668268    30.880307   0.15568547 
   14500   -942.06318      46.8089   -895.25428     1676.525   -11068.297    2.1383259    33.250786   0.15724124 
   14600   -935.67699     47.63733   -888.03966    1706.1964    6028.2456    2.1644943    33.702578   0.14525875 
   14700   -936.70459    51.280887   -885.42371    1836.6954    3709.8218    2.1612278    33.184762   0.15459673 
   14800   -941.55152    46.349678   -895.20184    1660.0774   -2629.7392    2.1612892    34.126171   0.15708278 
   14900   -943.01087    53.156556   -889.85431    1903.8751    -2765.655     2.156037    29.761771   0.14357502 
   15000   -937.01103    52.086282   -884.92475    1865.5417     3389.066    2.1580811    28.630789   0.14056796 
   15100   -944.09347    48.571002   -895.52246    1739.6372   -49.535184    2.1713231    31.655625   0.13766823 
   15200   -946.16576    54.873396   -891.29237     1965.366   -7814.4871    2.1486288    31.968337   0.13214308 
   15300   -941.54859    55.254374   -886.29421    1979.0113   -1263.3321     2.159701    30.598854   0.14120153 
   15400   -941.43567    46.494932   -894.94074    1665.2798    7086.9294    2.1794334    30.632356   0.12811314 
   15500   -941.42318    49.853222   -891.56996    1785.5616   -4917.4597    2.1463805    30.121097   0.12938376 
   15600   -936.51136    49.571529   -886.93983    1775.4724    872.72961    2.1509793    29.759819   0.15617746 
   15700   -940.33102    47.821337   -892.50968    1712.7869    7474.7932    2.1795817    30.573469   0.14919178 
   15800   -943.83282    48.589174   -895.24365     1740.288    -2884.977    2.1622276    33.128913   0.14507551 
   15900   -936.58539    50.829668   -885.75573    1820.5344   -10061.536    2.1272709    30.613512     0.161221 
   16000   -937.27991    46.175713   -891.10419    1653.8466    13101.135    2.1904849    25.568157    0.1353785 
   16100   -944.19935    51.098381   -893.10097    1830.1587    3674.4541    2.1808325     29.15918   0.13861883 
   16200    -935.6565    50.125129   -885.53137    1795.3003   -14453.029    2.1156245    31.574124    0.1672292 
   16300   -938.39178    50.484571   -887.90721    1808.1742    4664.9337    2.1666328    34.227619    0.1527924 
   16400   -942.32063    50.127071   -892.19356    1795.3699    13672.009    2.1972077    32.761769   0.13064171 
   16500   -944.35258    55.235053   -889.11753    1978.3193   -12468.719    2.1368159    32.306829   0.15138493 
   16600   -939.68698     54.01471   -885.67227     1934.611   -7030.5681    2.1370665    32.841284   0.14874035 
   16700   -943.29015    49.022816   -894.26733    1755.8195    9715.4597    2.1904827    30.860302   0.13699376 
   16800   -942.55794    53.885919   -888.67202    1929.9982      -1973.3    2.1583462    31.647568   0.13190575 
   16900   -939.51034    52.467322   -887.04302    1879.1892   -7401.9669    2.1399861    31.870126   0.14492274 
   17000    -941.8514    46.587322   -895.26407    1668.5889    3224.5605     2.175083    32.611515   0.12717814 
   17100   -936.97308    48.011752   -888.96133    1719.6069    4960.0783    2.1688041    33.104243   0.14183626 
   17200   -937.72991    50.554008   -887.17591    1810.6612   -1766.4123    2.1441415    33.976744   0.14055375 
   17300   -942.45913    46.877386   -895.58174     1678.978    485.44036    2.1678588    31.982541   0.14159241 
   17400    -936.6582    46.992741   -889.66546    1683.1096    6914.3576    2.1733611    30.577032   0.16513439 
   17500   -937.90466     51.09358   -886.81108    1829.9867   -1895.1636    2.1478633    35.964651   0.15835525 
   17600   -939.87056    44.199077   -895.67149    1583.0507   -1048.7891    2.1560417    33.116258   0.14221079 
   17700   -941.91228    51.856153   -890.05613    1857.2993    3735.0311    2.1755361    33.847772   0.12669577 
   17800    -939.0196    53.449952   -885.56965    1914.3834    929.13275    2.1562094    32.552843   0.12803629 
   17900   -939.92293     44.89307   -895.02986     1607.907   -7108.2248    2.1413483     34.28677   0.13742492 
   18000   -939.72787    49.116314   -890.61155    1759.1682    4915.9545    2.1685242    32.443907   0.13594476 
   18100   -938.32177    55.474406   -882.84736    1986.8921    10685.193    2.1773889    36.123018   0.14784616 
   18200   -940.52532    48.382054   -892.14327    1732.8697   -12573.816    2.1324395    31.615024   0.17191272 
   18300   -944.85347    52.421604   -892.43187    1877.5518   -8283.5684    2.1456937     34.30739   0.14829791 
   18400    -938.0918    55.312092   -882.77971    1981.0786    14559.434    2.1854998     29.57703   0.13956449 
   18500   -943.75649    53.765985    -889.9905    1925.7026   -2808.5437    2.1519042    34.302704   0.14338004 
   18600   -942.49592    46.878205   -895.61772    1679.0073   -9586.2952    2.1404276    29.209887   0.13205656 
   18700   -938.26225    51.751515   -886.51073    1853.5516    5560.8241    2.1706442    32.204795   0.13348295 
   18800   -939.94519    51.814061   -888.13113    1855.7918    3800.8729      2.16546    32.534644   0.14119849 
   18900   -946.17956    49.894572   -896.28499    1787.0426   -6504.9451    2.1527716    29.794326   0.13803632 
   19000    -932.6067    44.398098    -888.2086    1590.1789     3243.649    2.1565597    32.694047   0.17071377 
   19100   -935.63573    48.451726     -887.184    1735.3651    5611.8405    2.1671344    30.937593   0.18919452 
   19200   -947.14229    51.100655   -896.04164    1830.2402   -3498.9833    2.1640482    32.691326   0.15418214 
   19300   -938.24666    49.573076   -888.67358    1775.5278   -2782.2586    2.1457483    34.523413   0.14719926 
   19400   -934.35266    48.002833   -886.34982    1719.2874    5195.9697    2.1644584    34.055539     0.153466 
   19500   -944.14785    48.842223   -895.30563    1749.3513    1019.1022    2.1739918    31.143776   0.14212046 
   19600   -939.55467    50.983605   -888.57107    1826.0478   -6298.3598    2.1389094    39.304396   0.14616762 
   19700   -939.18116    53.344789   -885.83637    1910.6169    3019.4701    2.1615789    32.273862   0.16340218 
   19800   -946.38382    52.917276   -893.46654    1895.3049    4168.9202    2.1821303     36.04558   0.16558349 
   19900   -939.10832    50.085509   -889.02281    1793.8813    -9546.939    2.1303313    31.670037   0.16104743 
   20000   -936.73315    51.014518   -885.71863     1827.155   -3914.0532    2.1430787    33.116035   0.18071318 
   20100   -944.20613    52.549615   -891.65651    1882.1366    15294.341     2.199108    32.464702   0.13879566 
   20200   -942.95988    49.528002   -893.43187    1773.9134   -7755.6413    2.1465109    32.156378   0.14037445 
   20300   -938.26124    51.901941   -886.35929    1858.9393   -16763.598     2.112816    33.748106   0.14573684 
   20400   -942.19076    50.000279   -892.19048    1790.8287    15332.056    2.1990041    31.026034   0.12935084 
   20500   -940.38695    45.877637   -894.50931    1643.1706    3955.0424    2.1752307    30.113963   0.15322911 
   20600   -938.25434    49.950701   -888.30364     1789.053   -9616.5944    2.1277689    34.204834     0.161766 
   20700   -938.18913    50.441314   -887.74782     1806.625    4625.6039     2.165315    30.578678   0.16887319 
   20800   -945.50671    49.612613    -895.8941    1776.9439     7889.428    2.1913485    29.596327   0.15819341 
   20900    -943.8341    55.632814   -888.20129    1992.5657   -8145.6031    2.1419048    31.095708   0.16284583 
   21000   -939.87806    51.375059     -888.503    1840.0683   -4755.7232    2.1471329    34.515821   0.16634954 
   21100   -944.55829    49.526101   -895.03219    1773.8453    6695.6379    2.1842399    33.868024   0.14431636 
   21200   -940.49575    54.525918   -885.96983    1952.9206   -3076.9828    2.1476183     31.46171   0.13105595 
   21300   -937.98219    49.901485    -888.0807    1787.2902   -2725.0003    2.1483833    30.681546   0.14166457 
   21400   -941.39729    47.727994    -893.6693    1709.4437    3841.8272    2.1730481    33.729464   0.14475128 
   21500   -938.82578    51.547897   -887.27788    1846.2587    3737.4758    2.1631647    29.730409   0.16148681 
   21600   -937.77324    51.790766   -885.98247    1854.9574   -6368.8576    2.1404799    33.526583   0.17055551 
   21700   -944.36591    50.337971   -894.02794    1802.9236   -1097.6124    2.1657428    30.832069   0.16287243 
   21800   -936.60681    48.498008   -888.10881    1737.0228      11546.4    2.1845954    34.096002    0.1669036 
   21900   -933.78946     47.27702   -886.51244    1693.2914   -7874.1053    2.1326664    32.571036   0.16367439 
   22000   -943.96676    47.522657    -896.4441    1702.0892   -8678.0739    2.1482341    22.574419   0.15478264 
   22100   -941.38507    52.292818   -889.09226    1872.9391    12654.727    2.1950323     28.07937   0.15943218 
   22200   -938.63753    51.610082   -887.02745     1848.486   -1093.2476    2.1581576    31.922984    0.1690837 
   22300   -940.53743    46.279299   -894.25813    1657.5566   -14622.001    2.1307322    33.191732   0.16389733 
   22400    -945.2965    52.198312   -893.09819    1869.5542    5872.5219     2.186953    31.883119   0.16234723 
   22500   -938.78055     54.15411   -884.62643    1939.6038    6931.8414     2.170697     29.92019   0.15066981 
   22600   -944.83774     52.84259   -891.99515    1892.6299   -11250.601    2.1419731    32.916953   0.14422402 
   22700   -938.86163    45.798295   -893.06333    1640.3288    967.26827    2.1631856    35.253125    0.1556293 
   22800   -936.92934    53.920189   -883.00916    1931.2256    4620.5737    2.1645089    32.651715   0.14686716 
   22900   -940.62468    50.140183    -890.4845    1795.8395   -586.90358    2.1566209    31.613372   0.15049865 
   23000   -943.58575    49.876531   -893.70921    1786.3965   -5339.5804    2.1548795    33.611071    0.1599407 
   23100    -934.1407    50.314989   -883.82572    1802.1004    4654.6754     2.159203    28.758997   0.17008674 
   23200   -939.14186    49.205669   -889.93619    1762.3686    1628.9381    2.1682329    30.275059    0.1626087 
   23300   -943.56615    49.022672   -894.54348    1755.8143   -6320.3633    2.1497182    31.289576   0.13316478 
   23400   -938.02289    51.886157   -886.13673     1858.374    630.08324    2.1536379    30.146167   0.14616666 
   23500   -935.61007    46.191379   -889.41869    1654.4077    9223.9127    2.1750106    31.478587   0.14050071 
   23600     -939.803    44.301234   -895.50177    1586.7095   -3822.1272    2.1529938    34.511954   0.14579285 
   23700   -941.31926    52.447741   -888.87152    1878.4879    -3102.959    2.1495262    34.738676   0.13599024 
   23800   -938.69537    52.353047   -886.34232    1875.0963    10474.915    2.1787794    32.684022   0.13933031 
   23900   -943.97008    47.764084   -896.20599    1710.7363   -1043.8948    2.1642863    29.452061   0.15122304 
   24000   -940.10915    49.596022   -890.51312    1776.3497   -14989.072    2.1191391    32.785987   0.17014061 
   24100   -938.31309    52.795718   -885.51737    1890.9512    13276.692     2.186488    32.853596   0.15983273 
   24200    -943.7962     51.57067   -892.22553    1847.0744    5308.4399    2.1802641    36.212918   0.13289229 
   24300   -941.84163    49.117434    -892.7242    1759.2084   -15588.839    2.1234984    30.612525   0.13560635 
   24400   -937.97697    54.110564   -883.86641    1938.0442    1737.8206    2.1556922    35.871421   0.13751608 
   24500   -942.48643    53.545548   -888.94088    1917.8073    9955.3637    2.1841478    30.881008   0.14422873 
   24600   -946.30817    52.124835   -894.18334    1866.9226   -10019.192    2.1478204    32.554921   0.14712337 
   24700   -937.50603    52.803232    -884.7028    1891.2203   -3176.5234    2.1413636     31.76841   0.14917801 
   24800   -939.94972     52.96613   -886.98359    1897.0547    7698.3198    2.1768373    31.164588   0.15083221 
   24900   -942.76363    49.499141   -893.26449    1772.8797   -3166.5493    2.1589889    30.403568     0.145006 
   25000    -938.7015    49.666117   -889.03538    1778.8602   -5823.9819    2.1462905     29.74871   0.17384509 
   25100   -937.32719    54.921025   -882.40617    1967.0719    2587.8521    2.1621815    33.524899   0.15038926 
   25200   -944.32902    50.886486   -893.44254    1822.5694    1669.7459    2.1752316    32.205894   0.15265569 
   25300   -942.11501    50.297411    -891.8176    1801.4708   -9470.4899    2.1388063    34.652378   0.15481025 
   25400   -938.70412    52.296467   -886.40765    1873.0698    1531.8632    2.1588503    28.189844   0.15652065 
   25500   -945.25796    49.890817   -895.36714    1786.9081    6831.2684    2.1886699    28.591193   0.13779234 
   25600    -941.6918    47.876754   -893.81505    1714.7717   -6239.9735     2.145967     30.98158   0.15444147 
   25700   -938.11106    49.598881   -888.51218     1776.452   -1571.5581     2.151793    29.745033   0.17619599 
   25800   -939.09322    48.043402   -891.04982    1720.7404    7792.8892    2.1787957    34.878979   0.16699065 
   25900   -944.27761    45.616279   -898.66133    1633.8097   -2684.3619     2.163204     30.88609   0.13783684 
   26000   -939.72976     51.19383   -888.53593    1833.5773   -9001.5219     2.136066    32.673762    0.1682402 
   26100   -944.92635    56.448279   -888.47807    2021.7726    6776.2785    2.1862148    29.059888   0.13646599 
   26200   -943.11194    48.254629   -894.85731    1728.3058    839.28787    2.1755602    30.381384   0.16772698 
   26300   -936.15501    51.256729   -884.89828    1835.8301   -19111.931    2.1066529    34.041416   0.18670521 
   26400    -937.3727    51.554241   -885.81846     1846.486    17535.722    2.1918561    31.898139   0.16382403 
   26500   -942.85641    53.706917    -889.1495     1923.587    12696.763    2.1898002    32.655045   0.15319768 
   26600   -938.82117    46.183709   -892.63747     1654.133   -24543.804    2.0963537    35.556712   0.19117033 
   26700   -937.25572    51.250204   -886.00551    1835.5964    3236.8081    2.1659248    36.004988   0.17112802 
   26800   -941.67454    51.768871   -889.90567    1854.1732    7290.0314    2.1835684    34.155067   0.14075501 
   26900   -944.51168    48.708144   -895.80353    1744.5491   -6950.9593     2.151661    33.362635   0.15199317 
   27000   -944.64175    54.819573   -889.82218    1963.4383    -4777.741    2.1538084    32.492615   0.14843449 
   27100   -938.41049    52.217887   -886.19261    1870.2553     6150.752    2.1727143     30.77493   0.17127079 
   27200   -944.35384    47.718522   -896.63531    1709.1044   -1943.6323    2.1656618    30.214083     0.163147 
   27300    -942.9286    50.982094   -891.94651    1825.9937   -7167.5921    2.1425383     32.88669   0.15062575 
   27400   -943.18004    56.708277   -886.47176    2031.0848    2992.5168    2.1710695    34.035282   0.14856979 
   27500   -943.19944      49.3043   -893.89514    1765.9012    3213.5499    2.1745576     31.06413   0.15542647 
   27600   -940.50995    45.852918   -894.65704    1642.2852   -8281.0602    2.1434209    31.850867    0.1566552 
   27700   -940.50273    54.236626    -886.2661    1942.5592   -2689.5896    2.1563607    29.281824   0.16084481 
   27800   -939.07779    49.287605   -889.79019    1765.3033    10029.043    2.1829979    27.368523   0.14779334 
   27900   -940.53525    44.990727   -895.54452    1611.4047    -5020.838    2.1538184    31.540436   0.16695783 
   28000   -935.86949     50.78463   -885.08486    1818.9213   -3636.6167    2.1367881    36.144273   0.18606183 
   28100   -940.10859    54.719533   -885.38905    1959.8552    10882.828    2.1829041    56.679141   0.17843718 
   28200     -941.102     49.44728   -891.65472    1771.0223   -2473.7254    2.1530444    43.767187   0.19247472 
   28300   -938.20781    49.913009    -888.2948     1787.703   -8670.6849    2.1351095    41.090719   0.17645571 
   28400   -931.59561    51.959502   -879.63611    1861.0009    10336.157    2.1612406    41.913337   0.20393005 
   28500   -937.42465    47.714785   -889.70987    1708.9706    7218.9919    2.1732545    46.573645   0.18159576 
   28600   -935.92364     44.43024    -891.4934    1591.3301   -3994.9335    2.1378933    43.121966    0.1873463 
   28700   -939.50975    56.863362   -882.64639    2036.6394   -1442.7378    2.1452627    41.593896   0.15822244 
   28800   -943.12389    52.685036   -890.43885    1886.9869    1102.9267    2.1660817    46.240135   0.15368138 
   28900   -944.18221     51.82337   -892.35884    1856.1252   -5700.4068    2.1514987    41.380698   0.15851695 
   29000   -940.26885    53.663501   -886.60535     1922.032   -2269.9164     2.152644    49.072326   0.15837416 
   29100   -936.64593    48.843798   -887.80214    1749.4077    5378.9998    2.1592596    46.728443   0.18141203 
   29200   -945.44954    49.951611   -895.49793    1789.0856    3872.4986    2.1728382    45.028734   0.15468382 
   29300   -939.41231    50.604877   -888.80743    1812.4832   -2930.6665    2.1504791    25.073897   0.14973464 
   29400   -936.78844    49.931729   -886.85671    1788.3734   -2612.1203    2.1501225    50.856025   0.18444329 
   29500   -941.45446    44.657863    -896.7966    1599.4827    8800.0412    2.1876077    50.535714   0.14707973 
   29600   -938.59315    48.393877   -890.19927    1733.2932   -1907.1381    2.1558907    45.587952   0.16391567 
   29700   -937.86519      49.6166   -888.24859    1777.0867   -3184.2921    2.1471697     44.68316   0.15881549 
   29800   -940.63069    45.835878   -894.79481    1641.6749     6725.912    2.1811895    47.046917   0.14071619 
   29900   -943.57566    49.003003   -894.57265    1755.1099    1047.8455    2.1753404    40.490876   0.15093365 
   30000   -933.26056    45.641234   -887.61933    1634.7035   -9289.8874    2.1258473    44.756566   0.15681417 
   30100   -942.34894    50.408947      -891.94    1805.4657    2128.8285    2.1674351     43.66903   0.14418672 
   30200   -943.23524    50.173206   -893.06204    1797.0223    14360.426     2.204605    49.359115     0.148729 
   30300   -936.62571    52.711668   -883.91404    1887.9408   -11066.663    2.1211983    48.606447   0.15639802 
   30400   -940.64866    50.075668   -890.57299    1793.5288    -5227.922    2.1492154    47.182563   0.16253135 
   30500   -945.22125    53.821915   -891.39933    1927.7058    8792.2629     2.194726    52.381518   0.14809415 
   30600   -938.62666    52.032648   -886.59401    1863.6208    -2424.201    2.1511384    44.756885   0.15903403 
   30700   -936.68126    52.047275   -884.63399    1864.1446   -7962.0562    2.1308827    49.122709   0.16942734 
   30800   -941.99869     49.21264   -892.78605    1762.6183    7402.0341    2.1870929    44.799087   0.15137518 
   30900   -942.37373    53.483517   -888.89021    1915.5856    1877.4616    2.1677027    43.991297   0.13539374 
   31000   -936.88439    50.991237   -885.89315    1826.3212   -7480.3452    2.1324314    49.846549   0.16877276 
   31100    -945.3647    49.393078   -895.97162    1769.0809    3675.4055    2.1841236    48.795302   0.15660678 
   31200   -942.38794    53.003406   -889.38453    1898.3898    3974.8941    2.1706266    46.956489   0.15211436 
   31300   -939.79821     52.24428   -887.55393    1871.2006   -6914.6609    2.1438057    46.948244   0.16061285 
   31400   -947.25993    50.435591   -896.82434      1806.42   -2234.4697    2.1731118    45.430616   0.13677334 
   31500   -943.18756    52.328804   -890.85876     1874.228    3301.0155    2.1766403    43.983646   0.14754274 
   31600   -935.44778    47.779916   -887.66787    1711.3033   -1574.2238    2.1537656    43.605984   0.16800608 
   31700    -944.4026    49.042694   -895.35991    1756.5314   -3569.4728    2.1624805    40.987233   0.13957695 
   31800   -941.15603    49.081597   -892.07443    1757.9248    5855.1344     2.177805    50.137155    0.1514908 
   31900   -935.91862    49.941884   -885.97673    1788.7372   -33.678963    2.1546046    45.550642   0.16943734 
   32000    -939.3733    45.643498    -893.7298    1634.7846   -1459.5538     2.155219     49.75486   0.15369621 
   32100   -942.32968      50.8267   -891.50298    1820.4281    3775.9122    2.1734924    48.248464    0.1466075 
   32200   -938.69031    54.489641   -884.20067    1951.6213   -2423.8526    2.1512495    44.555994   0.16239467 
   32300   -941.27459    47.892321   -893.38227    1715.3293   -1871.8039    2.1593168    43.927094   0.14532736 
   32400    -937.5745    46.242533   -891.33196    1656.2398    4277.2277    2.1671876    43.027238   0.17873636 
   32500   -929.14347    45.295277    -883.8482    1622.3126     2960.617    2.1477298    45.020764   0.16678749 
   32600   -943.02306    49.296593   -893.72646    1765.6252    1370.6145    2.1698483    43.625238   0.16629598 
   32700   -936.99724    45.439446   -891.55779    1627.4762    3947.4234    2.1633617    46.967161   0.17357896 
   32800   -936.69244    51.660504   -885.03194    1850.2919   -2121.3652     2.150088    48.021599    0.1780778 
   32900   -943.51562    49.060425   -894.45519    1757.1665   -863.97586    2.1699387    48.376001   0.17140855 
   33000   -943.30675    51.078529   -892.22822    1829.4477   -1317.5704    2.1612832    47.161636   0.15136037 
   33100   -937.47652     51.54952     -885.927    1846.3169    1387.8058    2.1545617     48.90928   0.15694376 
   33200   -942.19131    47.440922   -894.75038    1699.1618    1237.8929    2.1717699       46.531   0.15285941 
   33300   -943.54991    50.721561   -892.82835    1816.6624    -4530.303    2.1573674    43.952798   0.16031006 
   33400   -939.49251     52.86187   -886.63064    1893.3205   -796.36459    2.1546401    48.805938   0.18337629 
   33500   -943.44674    49.697404   -893.74934    1779.9808    3076.8158    2.1745853     49.88792   0.18653041 
   33600   -940.02689    46.044889     -893.982    1649.1609   -917.09158    2.1613009    51.238517   0.17978922 
   33700   -935.90993    49.596908   -886.31302    1776.3814   -1522.9722    2.1470887    48.497338   0.17774024 
   33800   -943.80712    51.892852   -891.91427    1858.6138    515.18188    2.1727192    45.791768   0.15810848 
   33900   -946.30404    51.188813   -895.11522    1833.3977   -594.11698    2.1744963    42.429894   0.14830772 
   34000   -936.98534    51.846076   -885.13927    1856.9384   -8603.0561      2.13626     46.55028    0.1564399 
   34100   -939.50838    48.406042   -891.10234    1733.7289    4134.8546    2.1728381    45.800274   0.15977058 
   34200   -941.73046    48.555406   -893.17506    1739.0785    6012.3311    2.1801347    46.677006   0.16610193 
   34300    -932.4947    48.247998    -884.2467    1728.0683   -5572.9544     2.133523    45.414458   0.19125824 
   34400   -941.43055    49.943875   -891.48667    1788.8085    -1625.831    2.1648505    48.330331   0.17425284 
   34500   -942.49215    49.976146     -892.516    1789.9643    7266.6053    2.1846579    45.136205   0.15684906 
   34600   -935.92486    49.991183   -885.93368    1790.5029   -2650.8607    2.1449875      43.1234   0.16438372 
   34700   -939.90907    51.472992   -888.43608    1843.5759   -9644.0245    2.1360872    45.685006   0.15474889 
   34800   -942.15125    48.571273   -893.57998    1739.6469    12047.108      2.19578    45.590068   0.14012417 
   34900   -936.90927    50.682869    -886.2264    1815.2766    2985.3622    2.1649543    44.653496   0.13825073 
   35000   -937.12379    48.768067   -888.35572    1746.6953     -11646.1    2.1235913    51.123942   0.16255198 
   35100    -943.7039    48.535537   -895.16836    1738.3669    3981.3069    2.1778605     45.50908   0.16067625 
   35200    -943.7709    54.491695    -889.2792    1951.6949    9886.8493    2.1910703    49.625768   0.16195443 
   35300   -942.52818    55.046963   -887.48122    1971.5826   -10878.331    2.1309442    45.425671   0.17780327 
   35400   -944.59887    49.287275   -895.31159    1765.2914   -4118.3799     2.155999    43.865948   0.13957638 
   35500   -944.21618    52.743308   -891.47287     1889.074    5794.6453    2.1851074    42.162957   0.14349994 
   35600    -941.5627    55.519149   -886.04355    1988.4946   -4315.3154    2.1483185    44.105155   0.14723911 
   35700   -944.38786    49.558705   -894.82916    1775.0131   -5172.4069     2.154924    47.254042   0.12531725 
   35800   -944.31236    52.388174   -891.92419    1876.3544    1854.6006    2.1728454    48.657929   0.14693588 
   35900   -940.47856    55.346065    -885.1325    1982.2953   -1078.9372    2.1564567    50.072129   0.15330227 
   36000   -941.98095     47.84396   -894.13699    1713.5972   -2162.2587    2.1593049    44.412746   0.17233488 
   36100    -942.1167    49.553716   -892.56298    1774.8344   -546.46402    2.1653005    45.493264   0.15204278 
   36200   -937.22368    52.344397   -884.87929    1874.7865    1567.5445    2.1601613    41.086658   0.17420211 
   36300    -946.9295    53.428369   -893.50113    1913.6104   -6300.2109    2.1603647    45.853864   0.13684587 
   36400   -945.82133    53.033143   -892.78818    1899.4548   -4217.6545    2.1585082    43.002823   0.14026085 
   36500   -937.85721     53.24745   -884.60976    1907.1305    4841.8515    2.1631283     53.08648   0.15361034 
   36600   -940.63311    48.102264   -892.53085    1722.8486    770.81874     2.166647    46.449123   0.14873512 
   36700   -939.91958    46.534938   -893.38464    1666.7127   -4980.1356    2.1501781    48.884628   0.17012185 
   36800   -935.59581    51.221067   -884.37475    1834.5529    1267.7151    2.1580304     48.98837   0.19090187 
   36900   -940.20639    49.298645   -890.90774    1765.6987    8896.5239    2.1807522     41.74979    0.1584234 
   37000   -941.75166    47.401929   -894.34973    1697.7652   -6217.7719    2.1500088    48.920794   0.16911614 
   37100     -934.942    49.654652   -885.28734    1778.4496   -4826.9076    2.1415478    48.001205   0.18233243 
   37200   -941.20602    50.331612   -890.87441    1802.6958    11928.533    2.1944112    46.680901   0.15759253 
   37300   -942.75198     48.42463   -894.32735    1734.3946   -3948.7292    2.1578783    44.120518   0.14142704 
   37400   -936.48631    48.858379   -887.62793      1749.93   -6665.7068    2.1348236    49.013866   0.16047294 
   37500    -935.7799    48.262484   -887.51742    1728.5872    10364.577    2.1791376    47.539847   0.15799437 
   37600   -942.75698    47.416621   -895.34036    1698.2914    8811.6524     2.187095    45.548964   0.14490884 
   37700   -939.59776    50.775101   -888.82266      1818.58   -11681.496    2.1319097    44.960886   0.17994052 
   37800   -938.34813    51.159554   -887.18857    1832.3497    1626.5133    2.1589478    42.566169   0.17060731 
   37900   -942.02986    47.547347   -894.48251    1702.9735    13431.287    2.1979184    43.259906   0.14960096 
   38000   -940.74593    53.876077   -886.86985    1929.6457   -7566.5107    2.1406379    45.937934   0.15843391 
   38100   -936.31949    49.056041   -887.26345    1757.0095   -474.06114    2.1508695    47.376162   0.16887623 
   38200   -944.39281    51.539012    -892.8538    1845.9405    2590.0446    2.1782168    51.674798    0.1348788 
   38300   -940.58972    50.136189   -890.45353    1795.6965    1086.5223    2.1634297    45.315224   0.16469791 
   38400   -936.30958    51.848236   -884.46135    1857.0158   -4245.1041    2.1392786    46.012631   0.14807165 
   38500    -943.2316    50.874892    -892.3567    1822.1541    967.05918     2.171156    43.744665   0.14611112 
   38600   -943.67125    52.112784   -891.55847    1866.4909    1051.2893    2.1719616     43.23858   0.16592021 
   38700   -934.23062    51.263811   -882.96681    1836.0838   -2574.8776    2.1379535    42.790343   0.17283002 
   38800   -945.88824    53.161285   -892.72695    1904.0445    675.47171    2.1698579    48.566886   0.15174675 
   38900   -942.35959    50.996968   -891.36262    1826.5264    3453.3304    2.1712596    47.730515   0.15732337 
   39000   -938.53235    53.795703   -884.73665     1926.767   -5266.0782    2.1421749    48.144206   0.16088016 
   39100   -939.11998    46.552936   -892.56704    1667.3573    2131.7099    2.1649306    53.282972   0.14187373 
   39200   -940.45545    47.487478   -892.96798    1700.8292    6042.4732    2.1709336    52.523551   0.14846902 
   39300   -938.63515    51.511947    -887.1232    1844.9711    1746.9256    2.1597458    46.205821   0.15675573 
   39400   -940.21319    47.771529   -892.44166    1711.0029   -5795.1878    2.1492367    45.473149   0.16161367 
   39500   -944.98885    49.426401   -895.56245    1770.2745    1101.2797    2.1779243    43.064802   0.16891371 
   39600   -939.82032    54.041825   -885.77849    1935.5822    3856.3653    2.1709367     47.52487   0.16965413 
   39700   -941.12617    49.967645   -891.15853    1789.6598   -10427.922    2.1358576    45.848729   0.16420373 
   39800   -944.12283    50.396365   -893.72647     1805.015    -2840.508    2.1623232     47.64129    0.1467595 
   39900   -935.64104     51.32047   -884.32057    1838.1131    14617.934    2.1883289    45.509826   0.16447817 
   40000   -937.45914    51.199508   -886.25963    1833.7807   -5801.9752    2.1398603    46.502655   0.15037066 
   40100   -941.89886    48.569339   -893.32952    1739.5776   -7716.8855    2.1407931    46.712018   0.14190714 
   40200   -944.51166     55.67253   -888.83913    1993.9881    8709.8591    2.1880213    40.951293   0.14454948 
   40300    -936.3251      54.2086    -882.1165    1941.5555    570.10799     2.154608    43.777494   0.16924197 
   40400   -943.72312    51.228362   -892.49476    1834.8142   -9558.4066    2.1449319    46.727431   0.15402479 
   40500   -940.91733      49.2495   -891.66783    1763.9385    300.14116    2.1688236    47.071486   0.15892338 
   40600   -935.22144    48.513264   -886.70818    1737.5692     7771.471    2.1728181    46.935581   0.17192501 
   40700   -936.71432    48.552777   -888.16154    1738.9844   -5846.0063    2.1422304    47.162988   0.16282445 
   40800   -942.67474    46.949725   -895.72502    1681.5689    1484.4165    2.1715078    46.241973   0.15428247 
   40900    -939.0051    50.351183   -888.65391    1803.3968    5383.1851    2.1743185     46.42659   0.15792331 
   41000   -938.26672    48.887207   -889.37952    1750.9625   -3501.0424     2.150263    45.128602   0.17599959 
   41100   -944.01148    44.799403   -899.21208    1604.5521   -1136.6668    2.1710813     44.95088   0.15602267 
   41200   -938.96007     48.22955   -890.73052    1727.4076    2145.7106    2.1689368    47.113788   0.16509027 
   41300   -942.15526    53.655714   -888.49954    1921.7531    737.82392    2.1622169    47.928945   0.15047434 
   41400   -940.85759    46.057412   -894.80017    1649.6095   -1508.1554    2.1601875    48.173368   0.15135894 
   41500   -943.76228    47.899997   -895.86229    1715.6042    2102.7233    2.1735898     48.24819   0.15121917 
   41600   -940.93179    53.181743   -887.75005    1904.7772    952.10752    2.1589838    46.901537   0.16016009 
   41700   -941.37935    50.212683   -891.16666    1798.4362    232.73888    2.1582783    46.113875   0.14781552 
   41800   -946.62708    49.689696   -896.93738    1779.7047   -619.17892    2.1718482    41.311094   0.14565547 
   41900   -934.24934    47.711007   -886.53834    1708.8352    3616.7594    2.1620579    50.899126   0.16526168 
   42000   -938.24844    50.267214   -887.98123    1800.3893    3651.9361    2.1619074    48.319093   0.14847286 
   42100    -940.4428    47.764257   -892.67855    1710.7425   -251.01352    2.1607546    51.133673   0.16517011 
   42200   -940.17364    50.524848   -889.64879    1809.6168    1190.9602    2.1608131    45.098723   0.17261121 
   42300   -934.86785    51.397656    -883.4702    1840.8776   -1638.3323    2.1446263    48.580822   0.17633823 
   42400   -934.88404    43.439318   -891.44472    1555.8388    4753.4494    2.1622985    45.414337   0.17377484 
   42500    -939.8394      48.9793    -890.8601    1754.2609    3267.9582    2.1690157    45.870613   0.16237837 
   42600   -936.91452    55.876956   -881.03756    2001.3099   -4021.1718    2.1417716     48.53729   0.15833534 
   42700   -936.90503    47.034053   -889.87098    1684.5892    1106.1259    2.1575707    42.859298   0.16580948 
   42800   -942.14198    50.408762   -891.73322     1805.459   -1346.3571    2.1596545    47.325626   0.13736582 
   42900   -936.62368    50.087474   -886.53621    1793.9517    5702.0581     2.163265    44.061519   0.15348904 
   43000   -937.03342    54.604258   -882.42916    1955.7265   -2800.9896    2.1429078    46.706036   0.15489379 
   43100   -944.74526    51.069784   -893.67548    1829.1345    532.68237    2.1685921    45.865952   0.13594969 
   43200   -943.22501    52.572587   -890.65242    1882.9594     2147.365    2.1710545    45.118094    0.1562604 
   43300   -938.55902    50.403795   -888.15522    1805.2811     -4626.67    2.1470407    47.934132   0.16293952 
   43400   -934.20698    53.394607   -880.81237    1912.4012   -362.78055    2.1415079    46.256627   0.16831929 
   43500   -935.69279    54.841432   -880.85136    1964.2212    995.68107    2.1514599    46.444946   0.16689214 
   43600   -940.40655    51.877346    -888.5292    1858.0584   -3567.9857    2.1477967    46.429189   0.15783882 
   43700   -938.27185    48.173838   -890.09801    1725.4122    2794.5417    2.1622873    45.719096   0.15145618 
   43800   -940.22692    48.309132   -891.91778    1730.2579    2803.8042    2.1663679    50.514854   0.15219691 
   43900   -940.48368    50.720955   -889.76273    1816.6407   -2499.1614     2.154675     47.90736   0.14860922 
   44000   -939.99863    57.438809   -882.55982    2057.2498   -8346.0805    2.1334534    43.168844    0.1535502 
   44100   -939.62234    50.632516   -888.98983    1813.4731    3959.0091    2.1644207    45.631005   0.16203082 
   44200   -938.64514    47.609158   -891.03598    1705.1874     6052.463    2.1752852    46.659754   0.15233356 
   44300   -937.28435    46.739767   -890.54458    1674.0489   -5473.8447    2.1409207    49.681441   0.16886935 
   44400   -934.17209    53.466301   -880.70579     1914.969   -4753.5637    2.1329268    47.433891   0.17393766 
   44500   -943.49725    55.104078   -888.39317    1973.6282    11891.881    2.1933756    48.312886   0.15391092 
   44600   -938.30495    46.421022   -891.88393    1662.6326   -3715.1291    2.1483742    46.825295   0.15512457 
   44700   -939.12601    52.077268   -887.04875    1865.2189   -10770.372    2.1265025    48.902704   0.14895852 
   44800   -934.74082    55.823673   -878.91715    1999.4015    11470.187    2.1700702    45.972542   0.16426729 
   44900   -939.75257    50.066882   -889.68569    1793.2142    5918.6535    2.1725577    42.455162   0.15480835 
   45000   -941.46856    49.770191   -891.69837    1782.5878   -10225.105    2.1362876    46.145961   0.17028826 
   45100   -936.95257    50.970417   -885.98216    1825.5755    3546.6778    2.1619807    49.125249   0.16894208 
   45200   -936.81134    57.433449   -879.37789    2057.0579    3594.4544    2.1548257    48.200888   0.18042714 
   45300   -942.48402     51.40694   -891.07708    1841.2102   -3064.9544     2.156321    41.668974   0.17761823 
   45400   -940.89443    49.970468   -890.92396    1789.7609   -3633.4972    2.1560789    48.809219   0.16203129 
   45500   -941.84989    53.178255   -888.67163    1904.6522    3407.3926    2.1687491    46.168476   0.14096584 
   45600   -939.15068    55.077259   -884.07342    1972.6677   -1457.2452    2.1532579    42.164423   0.16820117 
   45700    -931.6807    51.308451   -880.37225    1837.6826   -7019.6161    2.1247743    43.919748   0.18155951 
   45800   -941.74148    52.699469   -889.04201    1887.5039    3745.6026    2.1727672    41.786676   0.17084896 
   45900   -940.94683    50.965855   -889.98098    1825.4121    7258.1858     2.178928    41.789761     0.167051 
   46000   -940.56883    47.699709   -892.86912    1708.4306   -8715.0409    2.1459676    48.664549   0.19212809 
   46100   -947.58165    45.069818   -902.51183    1614.2374   -872.94921    2.1812627    48.193105   0.16658026 
   46200   -942.08677     49.46331   -892.62346    1771.5964     4813.053    2.1813865    45.904686   0.17516114 
   46300   -943.45436    53.407331   -890.04703    1912.8569    -4254.129    2.1551808     45.10157    0.1526545 
   46400   -943.14463    53.064802   -890.07983    1900.5888   -7135.9132    2.1478008    40.495624   0.14579505 
   46500   -944.50856    44.549715   -899.95885    1595.6092    11252.161    2.2053783    42.984574   0.15749706 
   46600    -941.2293      47.1559    -894.0734    1688.9533   -2774.1746    2.1583752    50.797767   0.16684793 
   46700   -939.20266    48.500994   -890.70166    1737.1297   -11388.158    2.1309655    47.852489   0.16232452 
   46800    -941.7654    53.853203    -887.9122    1928.8264    12653.746     2.190255    46.255357   0.16868817 
   46900   -944.67773    48.760937   -895.91679    1746.4399    6552.6235    2.1826166    43.631942   0.16030307 
   47000   -941.27996    47.313671   -893.96629    1694.6041   -12963.469    2.1291112    46.519354   0.16210663 
   47100   -939.32975     51.47921   -887.85054    1843.7986    3442.3523    2.1654463    44.666783   0.16950534 
   47200   -941.70673    52.431099   -889.27563    1877.8918    6091.9912     2.176482    47.615671   0.13564663 
   47300   -943.44784    48.578376   -894.86946    1739.9013   -7143.9771     2.147356    44.988827    0.1513453 
   47400   -942.79623    55.347254   -887.44898    1982.3379   -1664.6026    2.1593783    45.835357   0.16517075 
   47500   -936.98797    51.539816   -885.44816    1845.9693     5719.546    2.1715519    47.562994   0.16050411 
   47600   -938.21919    45.880492    -892.3387    1643.2729    -4140.642     2.151127    47.125861    0.1811726 
   47700   -940.40263     50.50961   -889.89302    1809.0711   -2427.8814    2.1538506    48.069583   0.16031908 
   47800   -938.13211    57.043337   -881.08878    2043.0855    172.31124    2.1563129    50.575635   0.17060487 
   47900   -941.44023    50.748707   -890.69152    1817.6347    1435.8852    2.1635293    50.781082   0.15628828 
   48000   -940.88062    49.337285   -891.54334    1767.0826   -5217.5616    2.1435574    46.532001   0.15824815 
   48100   -938.53575    55.136942    -883.3988    1974.8053    1714.7787    2.1571678    44.824265   0.16661178 
   48200   -942.15532     50.39204   -891.76328    1804.8601      6760.34    2.1823095    41.932549   0.14538131 
   48300   -938.28091      44.9015   -893.37941    1608.2089   -10212.056    2.1255267    53.105631    0.1442234 
   48400   -940.70319    52.534381   -888.16881     1881.591    3453.1367    2.1646878    48.139427   0.15170025 
   48500   -943.05674    54.041667   -889.01508    1935.5765     17186.55    2.2029441    49.607186   0.15416362 
   48600   -944.57662    46.041538   -898.53508    1649.0409    -16858.56     2.127122    44.802154   0.15149918 
   48700   -940.12473    47.549049   -892.57568    1703.0345   -4595.7164    2.1462693    47.400959   0.15693807 
   48800   -942.72737    56.589764    -886.1376    2026.8401    9361.7412    2.1838526    42.669631   0.14591695 
   48900   -940.20535    46.393409   -893.81194    1661.6437   -3272.5154    2.1567617    45.922016   0.16168247 
   49000   -941.72837    48.496409   -893.23196    1736.9655   -6849.9295    2.1501382    46.628184   0.15941002 
   49100   -941.70874    56.745752   -884.96299    2032.4271   -1554.8647      2.15801    47.007006   0.15649711 
   49200   -941.51883    50.442513   -891.07631    1806.6679    2333.1253    2.1696383    40.709256   0.14537613 
   49300   -938.03304    43.949367   -894.08367    1574.1069   -1726.4267    2.1580002    45.285642   0.16830204 
   49400   -935.59486    52.041775   -883.55309    1863.9477   -743.64605    2.1449289    46.659105   0.16481515 
   49500   -941.28318    51.833947   -889.44923     1856.504    6835.7518    2.1785355    44.327397   0.16600201 
   49600   -939.84008    46.395737   -893.44435     1661.727   -2357.9769    2.1569227    47.069937   0.16176079 
   49700   -937.66316    52.103417   -885.55974    1866.1555   -3758.1543    2.1417291     45.06795    0.1492208 
   49800   -943.26605    55.024956   -888.24109    1970.7944    5071.8405    2.1753495    45.696441   0.13026051 
   49900   -942.98626    49.086875   -893.89939    1758.1139    25.737536    2.1671049    47.179346   0.13835284 
   50000   -940.26155    51.025826   -889.23573      1827.56   -4917.9302     2.146154    45.377593   0.14895914 
   50100   -936.69537    51.709801   -884.98556    1852.0576    2563.9565    2.1603885     45.44185   0.16938452 
   50200   -942.25677    46.737983   -895.51878     1673.985    9631.8556    2.1900835    46.403985   0.14836115 
   50300   -940.09548    49.644758   -890.45072    1778.0952   -11729.064     2.131159    46.137582   0.16686203 
   50400   -937.97284    49.963537    -888.0093    1789.5127   -1355.3964    2.1530199    53.668371   0.17598939 
   50500   -944.17653     51.44546   -892.73107    1842.5898    13419.925    2.2056234    47.861323   0.15044143 
   50600   -945.51048    46.386062   -899.12442    1661.3805   -9527.8132    2.1542552    49.500537   0.15378095 
   50700    -938.1425    48.698279   -889.44422    1744.1958    -11659.89    2.1275801    46.136999    0.1696694 
   50800   -942.47393    54.331372   -888.14255    1945.9527    11177.234    2.1909831     48.37596    0.1549359 
   50900   -945.64036       50.421   -895.21936    1805.8974   -1425.3529    2.1714754    46.359974   0.14473721 
   51000   -934.02362    48.304562   -885.71906    1730.0942   -5746.5236    2.1334838    43.563806   0.18078196 
   51100   -941.91831    55.119848   -886.79846    1974.1931    3829.5271    2.1681434    46.300607   0.15810755 
   51200   -945.30368    52.913967   -892.38972    1895.1864     2197.742    2.1735977    44.599856   0.13208145 
   51300   -937.55967    49.913543   -887.64612    1787.7221    -2607.468    2.1475285    48.613702   0.16284174 
   51400   -936.41711    52.584896   -883.83221    1883.4003    -3469.627     2.146556    45.022768   0.17796515 
   51500   -941.35633    48.879803   -892.47653    1750.6973    6651.7484    2.1796819     48.25078   0.13317056 
   51600   -940.85034    51.353095   -889.49725    1839.2816   -821.01739    2.1585552    47.102013   0.16856519 
   51700   -937.13724    52.634156   -884.50308    1885.1646   -7566.3826    2.1347197    44.692873   0.17494836 
   51800   -945.76651    50.661336   -895.10518    1814.5053    7375.5729    2.1931692    45.302912   0.15028804 
   51900   -940.28227    49.997639   -890.28463    1790.7341    836.29277    2.1629838     43.65412   0.16031918 
   52000   -937.26009    49.286165   -887.97392    1765.2517   -10980.485    2.1270504    42.623859   0.15116866 
   52100   -945.57863    48.633071   -896.94556    1741.8602     4695.195    2.1870611    46.133282   0.13293695 
   52200   -943.31934    50.412911   -892.90643    1805.6077    8275.8263    2.1866146    44.257321   0.14684736 
   52300   -941.58098    52.933045   -888.64793    1895.8697   -14016.361    2.1243646    49.219421   0.16050935 
   52400   -938.52225    48.371993   -890.15026    1732.5094   -2211.0369    2.1481947    47.966706   0.14620965 
   52500   -946.42289    51.225202   -895.19769    1834.7009    17774.666     2.214227    47.653692   0.15111234 
   52600   -939.62267    54.602452   -885.02021    1955.6618   -11906.257    2.1285547    48.719475   0.16206109 
   52700    -940.1957     50.98154   -889.21416    1825.9739   -7709.5168    2.1361484    48.423622   0.15391302 
   52800   -943.56515    52.295722   -891.26943    1873.0431    10487.733    2.1922488    46.883919    0.1403235 
   52900   -943.95966    50.419729   -893.53993    1805.8518   -1528.9123    2.1648129    47.335209   0.14626249 
   53000   -935.96645    54.038665   -881.92779     1935.469   -7785.5248    2.1282759     47.23042   0.16851006 
   53100   -939.49046    50.919173   -888.57129    1823.7401    7515.3007    2.1765725    46.481631   0.15459163 
   53200   -938.71264    46.977096   -891.73554    1682.5492    3205.4897    2.1678236    46.375238   0.15976139 
   53300   -938.17983      51.8933   -886.28653    1858.6298   -6134.5796    2.1442122    50.068435   0.17033542 
   53400   -936.32944    53.580408   -882.74904    1919.0559   -508.62905     2.150375    48.539037   0.17393371 
   53500    -941.3551    50.463124   -890.89197    1807.4061    3658.7649    2.1720932    46.718883   0.17381604 
   53600    -939.6662    49.363176   -890.30303      1768.01   -312.79821    2.1575145    48.664367   0.17429503 
   53700    -936.0458    53.957459   -882.08835    1932.5605   -4284.0808    2.1391064    44.993121   0.18297408 
   53800   -942.92911    54.697826   -888.23128    1959.0778     1995.092     2.165644    48.934147   0.15269063 
   53900   -938.85382    47.346339   -891.50748    1695.7741   -563.31001     2.157334    44.617654   0.16220684 
   54000   -940.21493     50.29853    -889.9164    1801.5109   -276.98624    2.1626774     46.68877    0.1538116 
   54100   -935.97258    50.506911   -885.46567    1808.9744    4896.8697    2.1636694    46.858759   0.16532072 
   54200   -934.80893    56.183535   -878.62539    2012.2905   -5052.6316    2.1331971    45.923389   0.18149147 
   54300   -937.57314    47.435827   -890.13732    1698.9793    981.01929    2.1640715    42.216493   0.18604235 
   54400   -940.72223    51.073754   -889.64848    1829.2766    7082.4241    2.1816868    39.345275   0.17367346 
   54500   -936.30537    44.027917   -892.27745    1576.9203   -4042.7183    2.1463165    46.805241   0.16594718 
   54600   -941.12976    46.102885   -895.02688    1651.2381   -5433.6983    2.1516389    48.307988   0.15124469 
   54700   -950.61659    48.796102   -901.82049    1747.6994    14979.792    2.2217393    47.145041   0.11122806 
   54800   -941.00541    47.964658   -893.04075    1717.9201   -2671.3555    2.1556179     50.41058   0.14188314 
   54900    -940.5475     49.38442   -891.16308    1768.7708   -10510.943    2.1331996    45.006995   0.16162932 
   55000   -938.43153    51.783148   -886.64839    1854.6846    8556.2547    2.1790485    44.296094    0.1512383 
   55100   -940.71689     45.05412   -895.66277    1613.6752    1902.6007    2.1677747    43.623553   0.17382981 
   55200   -938.24165    43.530684   -894.71097    1559.1112   -3386.2055    2.1466803    44.265962   0.16197013 
   55300    -937.9905    49.906253   -888.08425     1787.461    4991.2973      2.16697    49.112297    0.1520739 
   55400   -941.68974    50.285863   -891.40388    1801.0572    1786.0862    2.1650434     47.63845   0.15918055 
   55500   -944.08733    46.453006   -897.63432    1663.7782   -4327.7234    2.1586782    46.855642   0.14055253 
   55600   -939.66643    52.524202   -887.14223    1881.2264   -3612.3621    2.1483247    45.540588   0.16662334 
   55700   -941.81252    54.154889   -887.65763    1939.6317    6194.7465    2.1738615    44.623637   0.15814275 
   55800   -939.95066    49.503182   -890.44748    1773.0245   -2533.8557    2.1512816    39.358285   0.17478287 
   55900   -935.88698    45.935844   -889.95113    1645.2554   -5259.7017    2.1428518    24.536363   0.17520272 
   56000   -934.78869    54.607747   -880.18094    1955.8514   -665.84424     2.142011    19.375553   0.15137026 
   56100   -937.84255    50.399002   -887.44355    1805.1095     8665.735    2.1759906        18.85   0.15492199 
   56200   -938.53344    46.932999   -891.60045    1680.9698   -4662.9803    2.1502765    21.814601   0.15989983 
   56300   -940.76801    52.045666   -888.72234     1864.087   -5211.6183    2.1441047    22.036401   0.14938403 
   56400   -934.85147    54.879061   -879.97241    1965.5689    6896.2001    2.1658967    25.562861   0.18634911 
   56500   -936.16716    47.229238   -888.93792      1691.58    5053.9152    2.1690088    19.051292   0.15390758 
   56600   -939.14942    46.876389   -892.27303    1678.9422   -16732.046    2.1202803     21.96617   0.16672807 
   56700   -938.72064    53.137554   -885.58308    1903.1945     8255.178    2.1798895    21.462305   0.16946057 
   56800   -942.88517    52.717425   -890.16775     1888.147    12716.717    2.1985124    22.324051   0.15801477 
   56900   -942.52485    46.375449    -896.1494    1661.0004   -13842.062    2.1354117    24.757004   0.16687278 
   57000   -940.35058    49.411106   -890.93948    1769.7266   -201.16542    2.1629136    22.035254   0.17338556 
   57100   -940.98721     54.75516   -886.23205    1961.1313    8945.6956    2.1832426    20.923654   0.15628551 
   57200   -944.64939    50.276132   -894.37326    1800.7087   -8193.5319    2.1485181    20.063789   0.15306837 
   57300   -938.99508    44.703637   -894.29144    1601.1221   -2274.2232    2.1561114    20.101697   0.14972854 
   57400   -939.23075    53.080961   -886.14979    1901.1675    7557.2119    2.1774999    19.330437   0.14721607 
   57500   -942.53765    50.855983   -891.68167    1821.4769    -3136.733    2.1606351    24.117797   0.15630857 
   57600   -941.29661    43.954241   -897.34237    1574.2815   -5453.3855    2.1562434    24.009083    0.1568613 
   57700   -934.86383    47.629367   -887.23446    1705.9112    9738.0882    2.1724631    20.646569   0.16721035 
   57800   -940.74908     52.86874   -887.88034    1893.5666    4671.9644    2.1766409    24.955878    0.1472004 
   57900   -936.73974    42.865236    -893.8745    1535.2773    -6906.527    2.1446422    22.215419   0.16542502 
   58000   -936.81907    49.420804   -887.39826     1770.074    1762.5388    2.1599904    20.235957   0.15206865 
   58100   -936.32453    52.606932    -883.7176    1884.1895    8484.9623    2.1732514    19.021244   0.15588189 
   58200   -936.44909    44.586878   -891.86221    1596.9403   -4072.8331     2.147443    28.575037   0.17569398 
   58300      -935.03    47.102826   -887.92718    1687.0524    846.15287    2.1560927    34.419854   0.19924187 
   58400   -930.68783    49.761217   -880.92662    1782.2663    6870.9862    2.1625991    35.557588   0.19211327 
   58500   -944.77853    53.778854   -890.99968    1926.1635   -3190.7405    2.1635092    32.432082   0.18405333 
   58600   -943.10389    52.348645   -890.75525    1874.9386   -6241.1022    2.1502937    32.079976   0.17783896 
   58700   -937.78389    51.754331   -886.02955    1853.6525    3100.1794    2.1667774    33.103447    0.1982059 
   58800   -940.90709    50.952395    -889.9547      1824.93   -3387.1804    2.1572643    33.253365   0.18131045 
   58900   -942.31001    46.649417   -895.66059    1670.8129   -1189.7667    2.1649614    32.903193   0.18283731 
   59000   -943.11774    54.563931   -888.55381    1954.2821    1888.2478    2.1629232    30.010856   0.16083533 
   59100   -939.75548    52.345687    -887.4098    1874.8327   -21.669558    2.1581359     19.86277   0.15552639 
   59200   -942.53032    45.359596   -897.17072    1624.6162   -2954.8301     2.161789    22.580968   0.18187057 
   59300    -940.4933    48.232407   -892.26089    1727.5099   -3646.9926    2.1580797    27.260226   0.18805354 
   59400   -936.51801    49.525641   -886.99237    1773.8289    6999.2542    2.1693998    24.527759   0.19207102 
   59500    -941.6439    50.771676   -890.87223    1818.4573   -2314.7225    2.1562401    11.506319   0.15912985 
   59600   -945.71487    46.204061    -899.5108    1654.8619   -4525.0484    2.1650858    13.422211   0.15842091 
   59700   -939.77448    49.685258   -890.08922    1779.5458      2892.55    2.1710024    14.472528   0.15375626 
   59800   -936.32691    48.829136   -887.49778    1748.8826    4513.0237    2.1650983    17.670147   0.17495622 
   59900   -938.63866    46.456331   -892.18233    1663.8973   -15354.844    2.1232604    17.287445   0.16814242 
   60000   -942.64943    45.928733    -896.7207    1645.0007    8152.1994    2.1846447    14.126161   0.15862569 
   60100   -941.05121    55.581572   -885.46963    1990.7303    7519.2675    2.1800708    11.510942   0.16368933 
   60200   -936.05837    48.584205   -887.47416      1740.11   -12461.225    2.1233565    15.371713   0.19317957 
   60300   -937.61238    48.592877    -889.0195    1740.4206     2576.283    2.1597879    23.554665   0.18118415 
   60400   -944.50961    48.795983   -895.71363    1747.6952    11139.764    2.1971169    17.094684   0.17857614 
   60500   -936.53528    51.277825   -885.25746    1836.5857   -6452.1709    2.1371436    14.273286    0.1859716 
   60600   -939.09623    52.693329    -886.4029     1887.284   -4124.7985    2.1506998    19.200813   0.14923996 
   60700   -937.61306    47.059427   -890.55364     1685.498    8186.1354    2.1753756    23.819074   0.17183616 
   60800   -939.04911     46.56258   -892.48653    1667.7027    552.18893    2.1644962    17.619475   0.18593836 
   60900   -929.35861    48.325695   -881.03291    1730.8512   -5434.2717    2.1285636    19.140376   0.17960282 
   61000   -937.46605    49.365424   -888.10062    1768.0905     7389.226    2.1707559    21.532726   0.17274361 
   61100   -939.24463    48.036529    -891.2081    1720.4943    3337.7815    2.1641242    20.051525   0.17259657 
   61200   -935.54883    50.933373   -884.61546    1824.2487   -2388.9744    2.1411129    21.579421   0.18009716 
   61300   -936.35519     53.02582   -883.32937    1899.1926    548.76534    2.1468233    24.227088    0.1970676 
   61400   -939.41666    48.623626   -890.79304    1741.5219    3046.8861    2.1658953    32.230597   0.17071828 
   61500   -937.91708    49.054276   -888.86281    1756.9463     430.9716    2.1490709    35.796281   0.17216814 
   61600   -934.45563    53.244869   -881.21076    1907.0381    1768.4185    2.1440288    28.643202   0.17123188 
   61700   -941.90783    50.752464   -891.15537    1817.7692     7522.975    2.1862848    28.270168   0.16205643 
   61800    -937.7725    47.024592   -890.74791    1684.2503   -13941.086    2.1183776    34.140809   0.17010148 
   61900   -938.01368    50.019419   -887.99426    1791.5142    2041.6608    2.1569877    31.250372   0.16489034 
   62000   -937.64676    50.864231   -886.78253    1821.7723    23151.287    2.2086758    31.892927   0.17950998 
   62100   -927.11752    52.127409   -874.99011    1867.0148    -9749.812      2.10796    27.922086   0.21734194 
   62200   -935.53687    53.020294   -882.51658    1898.9947   -4876.6319    2.1347595    28.964286   0.18554825 
   62300   -939.21005    52.329263   -886.88079    1874.2444    8744.2218     2.175216    29.964011    0.1756419 
   62400   -943.15228    52.986352   -890.16593     1897.779   -4129.0143    2.1529458    32.128451   0.15985346 
   62500   -940.14585    54.129629   -886.01622     1938.727   -8017.5726    2.1386191    31.559341   0.18351327 
   62600   -938.42208    58.541175    -879.8809    2096.7326   -3122.6733    2.1414765    32.158365   0.16893975 
   62700   -941.83019     53.31037   -888.51982    1909.3841    1560.2806    2.1647254    31.680584   0.16351161 
   62800   -939.09801     49.48326   -889.61475    1772.3109   -2684.5653    2.1487857    25.914754   0.19325525 
   62900   -935.04673    52.511349   -882.53538    1880.7661   -1052.6892    2.1445421    26.800844   0.17425428 
   63000   -937.96132     55.32744   -882.63388    1981.6282   -165.83934    2.1554615    28.233264   0.18170954 
   63100   -939.55582    49.737797   -889.81802    1781.4275   -3591.8682    2.1470126    31.123502   0.17566122 
   63200   -939.03002    50.362031   -888.66799    1803.7853     1678.031    2.1630851    26.887618   0.17819055 
   63300   -936.80667    52.493775   -884.31289    1880.1366    3141.5305    2.1586585    30.094349   0.18096689 
   63400   -934.78509    54.721114   -880.06398    1959.9118   -11556.304    2.1168658    31.418977   0.18644968 
   63500   -941.98726    52.264833   -889.72242    1871.9368    1659.8774    2.1655714    19.090984   0.16209775 
   63600   -942.92711    55.873516   -887.05359    2001.1867    9063.4601    2.1873044    31.591697   0.14566466 
   63700   -939.20417    49.839767   -889.36441    1785.0797   -12778.142    2.1271826    25.528252   0.17949029 
   63800   -945.54553    46.423804   -899.12173    1662.7323    -584.5031    2.1723345    23.505892   0.15697021 
   63900    -937.0422    47.694329   -889.34787    1708.2379    11737.666    2.1868772    16.743557   0.17652689 
   64000   -935.92885    48.756619   -887.17223    1746.2853   -5294.0217    2.1462762    16.976257   0.19389288 
   64100    -934.8993    47.399892   -887.49941    1697.6922   -6924.2748    2.1356858    21.491199    0.1910567 
   64200    -943.3876    47.336506    -896.0511     1695.422     11454.08    2.2023098    29.181045   0.15340522 
   64300   -942.09889    53.799422   -888.29946    1926.9002   -5803.3366     2.150585    30.960069   0.18671551 
   64400   -938.09827    50.518939   -887.57933    1809.4052   -1606.4538    2.1482947    29.924676   0.16963139 
   64500   -944.10822    52.637634   -891.47058    1885.2892    1412.9603    2.1722365    23.846899   0.17915121 
   64600    -947.0075     49.08218   -897.92532    1757.9457   -2356.1325    2.1688692    20.055907   0.16668503 
   64700   -937.00034    50.290686   -886.70966      1801.23   -5643.1856    2.1413017    18.285373   0.17852677 
   64800   -938.49554    50.699199   -887.79634    1815.8614    5330.7416    2.1712576    26.193539   0.19485767 
   64900   -938.67457    48.372549   -890.30202    1732.5293   -1390.7241    2.1575035      33.1032   0.19174541 
   65000   -931.25061    51.046452   -880.20416    1828.2988   -399.60156    2.1372084    36.653656   0.19844789 
   65100   -938.42158     54.06449   -884.35709     1936.394    4516.4629    2.1678444    36.343775   0.18275325 
   65200   -938.25544    49.086694   -889.16875    1758.1074   -2100.9857     2.148682    32.160318   0.15667023 
   65300   -942.37235    56.452257    -885.9201    2021.9151   -4446.9649    2.1505842    33.156611   0.16101646 
   65400   -932.68722    52.866813   -879.82041    1893.4975    4859.2496    2.1546323    34.280382   0.17053667 
   65500   -938.33412    47.175215    -891.1589    1689.6451    2036.8249    2.1652195    38.466759   0.18408619 
   65600   -933.43862    43.800191   -889.63843     1568.764   -83.005862    2.1468376    33.801325   0.16052063 
   65700   -937.11385    51.074406   -886.03944       1829.3     726.2793    2.1608904    34.217876   0.17919109 
   65800   -939.37964    47.357248   -892.02239    1696.1649    1231.6421    2.1628449    34.899628   0.16306488 
   65900   -942.19939    47.881908   -894.31748    1714.9563    250.79016    2.1642678    37.804346   0.16266316 
   66000   -939.25642    51.582133   -887.67429    1847.4849    1526.6117    2.1608246    33.840674   0.17865083 
   66100    -937.4718    50.145586   -887.32621     1796.033    -575.4451     2.155621    35.062034   0.18434377 
   66200   -944.84616    47.945863    -896.9003    1717.2469   -1056.5575    2.1662853    30.304222   0.14213307 
   66300   -936.52341    47.228659   -889.29475    1691.5593    4195.7122    2.1638157    29.621053    0.1707007 
   66400   -936.61918    50.831073   -885.78811    1820.5847    4075.1138    2.1660033    35.273218   0.19734107 
   66500   -942.55725    50.076119   -892.48113     1793.545   -7737.7841    2.1469417    44.634818   0.18195116 
   66600   -941.95189    49.947495   -892.00439    1788.9381   -3844.3382    2.1569536    33.552123   0.19860088 
   66700   -936.24776    52.300143   -883.94762    1873.2014    9895.8638    2.1737186    35.006969   0.17753471 
   66800   -938.66749    48.873338   -889.79415    1750.4657   -5565.0377     2.143536     38.91605   0.13398186 
   66900   -940.33651    44.530727   -895.80578    1594.9291   -8691.0793    2.1405721    32.467744   0.15866318 
   67000   -938.47429    49.885891    -888.5884    1786.7317    15900.591    2.1995833     35.94251   0.16492954 
   67100   -938.06642    52.193298   -885.87312    1869.3746     1421.903    2.1608608    35.746563   0.18477503 
   67200   -942.91294    48.227632   -894.68531    1727.3389   -14042.025    2.1327164    34.489823   0.18306395 
   67300   -942.55099    51.911621   -890.63937     1859.286    5237.6327    2.1772278    34.972524   0.15919923 
   67400   -938.68394    55.127043   -883.55689    1974.4508    2624.7501    2.1687116    36.276838   0.17901857 
   67500   -941.23579     49.02793   -892.20786    1756.0026   -7750.3367    2.1433231    35.726707    0.1641952 
   67600   -944.27141    51.425975   -892.84543    1841.8919   -3187.6835    2.1585016    33.680981   0.13455267 
   67700   -935.81624    51.462618   -884.35362    1843.2043    8792.0158    2.1728816    33.902727   0.14870229 
   67800   -940.43298    48.720839   -891.71214    1745.0038   -3666.6592    2.1553717    36.713625   0.16527223 
   67900   -944.84162    50.124022   -894.71759    1795.2607   -5896.2928    2.1541971    35.523978   0.14741116 
   68000   -938.20664    52.997705   -885.20893    1898.1856    5371.0678    2.1655344    35.489266   0.15633001 
   68100   -944.03808    53.180727   -890.85735    1904.7408    1400.2426    2.1680317    37.010847   0.13732088 
   68200    -945.4087    49.472768   -895.93593    1771.9351   -6954.8231    2.1541052     35.86458   0.15050628 
   68300   -939.05282    52.961759   -886.09106    1896.8981   -1478.9371    2.1517663    36.774199    0.1484186 
   68400    -944.2279    54.486781   -889.74112    1951.5189    4119.0764    2.1759789    34.569451   0.13002874 
   68500   -942.73362    47.322365   -895.41125    1694.9155   -3317.5957    2.1598344    34.226435   0.14077094 
   68600   -938.96278    52.357789   -886.60499    1875.2661   -5682.3504    2.1373971    33.572566   0.14535068 
   68700   -944.13464    55.297768   -888.83687    1980.5655    8002.2586    2.1827233    35.752395    0.1580347 
   68800   -943.40701    49.378705   -894.02831    1768.5661    2500.0717    2.1734261    39.037712   0.15102071 
   68900   -936.56702    48.687425    -887.8796     1743.807   -17086.657    2.1095638    38.144862   0.16989845 
   69000   -936.25129    51.193338   -885.05795    1833.5597     9819.042    2.1759397    34.105944   0.16152982 
   69100   -941.40837    50.858885   -890.54948    1821.5808    15803.975    2.1952596    77.647511   0.16056041 
   69200   -938.04533     48.02277   -890.02256    1720.0015   -13468.771    2.1184582    81.126404   0.15880707 
   69300   -933.49499    51.314978   -882.18001    1837.9164   -794.70676     2.143686    98.285142   0.17767908 
   69400    -945.3402    54.297324   -891.04288    1944.7332    8239.3405    2.1933595    96.684228   0.15007387 
   69500   -940.00228    46.704025   -893.29825    1672.7688   -5247.9512    2.1482105    93.471451   0.17727248 
   69600   -939.29991    53.796425   -885.50349    1926.7929   -8013.5424     2.137263    103.22748   0.17541284 
   69700   -942.40292    50.370119    -892.0328     1804.075    7263.5947    2.1825622    90.266576   0.14459202 
   69800   -941.43894    47.059672   -894.37926    1685.5068    344.17893    2.1684645    94.371337   0.15288328 
   69900   -936.45908    47.936021   -888.52306    1716.8944   -4532.1882    2.1434443     93.11722   0.18055779 
   70000   -938.96221    51.083893   -887.87832    1829.6398    3614.7981    2.1660862    88.000493   0.16264791 
   70100   -944.44641    48.139849   -896.30657    1724.1948    5349.2257     2.187153    91.351874   0.16230253 
   70200   -939.56422    51.934102   -887.63012    1860.0912   -10668.245    2.1376478    98.292322    0.1696569 
   70300   -939.81424    51.450801   -888.36344    1842.7811    -263.1091    2.1600466    98.575331   0.15889949 
[...]
  186800   -933.95033    50.013671   -883.93666    1791.3083    4619.5409    2.1613238    1211.7788   0.17925134 
  186900   -942.23456    49.672844   -892.56172    1779.1011    -9881.411    2.1429288     1226.582   0.16832168 
  187000    -941.1394    49.608095   -891.53131    1776.7821    1944.3691    2.1684508    1189.8673   0.17020346 
  187100   -935.25632     53.42511   -881.83121    1913.4937    6750.7165    2.1635736    1199.6396   0.17063911 
  187200    -938.4658    47.942411   -890.52339    1717.1233   -1210.3242    2.1553466    1201.7151   0.15487733 
  187300   -937.12293     44.57384   -892.54909    1596.4733    446.18983     2.157554    1193.6782   0.15965544 
  187400   -934.94514    51.489835   -883.45531    1844.1792    8000.8554    2.1645797    1212.1664   0.15957841 
  187500   -939.32605    49.145999   -890.18005    1760.2314    522.24576    2.1619629    1207.2499   0.16885947 
  187600   -945.93659    52.247892   -893.68869      1871.33   -6363.3072    2.1564424    1207.3064   0.16228319 
  187700   -938.23218    52.548819   -885.68336    1882.1081    3001.6431    2.1586694    1212.7417   0.14485522 
  187800   -942.38678    51.573491   -890.81329    1847.1754   -1392.2241    2.1636927    1212.2799   0.14744689 
  187900   -943.20936    48.128085   -895.08128    1723.7735   -3082.5846    2.1624944    1210.9968   0.14809451 
  188000   -940.37501    53.341761   -887.03325    1910.5084    3719.1117    2.1612831    1205.7705    0.1382719 
  188100   -940.15148    49.636593   -890.51489    1777.8027    33.720851    2.1616197    1232.1736    0.1554236 
  188200   -945.17712     48.02662    -897.1505    1720.1394   -514.59908    2.1699455    1218.5777    0.1418661 
  188300   -936.04628    48.351979   -887.69431    1731.7925    61.028757    2.1516986    1199.2795     0.158499 
  188400   -939.17882    50.009204   -889.16961    1791.1483     3982.311    2.1690454     1213.542   0.15767566 
  188500   -946.63267    50.380553   -896.25212    1804.4487   -1724.6325    2.1685336     1205.338   0.15037645 
  188600   -938.39547    51.709225   -886.68625    1852.0369   -6928.2542    2.1385419    1225.1804   0.15085355 
  188700   -937.41473    48.897694   -888.51704    1751.3381    7787.0087    2.1763912    1228.4875   0.15373915 
  188800   -941.42738    47.645758   -893.78162    1706.4983    3405.8176    2.1725549    1210.8389   0.14044204 
  188900   -937.20988    50.958102   -886.25178    1825.1344   -11581.101    2.1265966    1234.7019   0.14860612 
  189000   -936.21322    50.579027    -885.6342    1811.5573    3728.4877     2.167059    1222.1723   0.17043867 
  189100   -943.17818     51.29139   -891.88679    1837.0716    8888.8806    2.1885254    1194.0977   0.14159785 
  189200   -942.00093    52.501227   -889.49971    1880.4036   -9992.3143    2.1372697    1213.4077   0.14708121 
  189300   -939.08895    55.071395   -884.01755    1972.4577   -4458.5449    2.1405114    1219.7329   0.14054815 
  189400   -942.90337    50.333849   -892.56952    1802.7759    13590.278    2.1972125    1203.3021   0.14018775 
  189500   -939.28302    47.572336   -891.71068    1703.8686   -2432.4706    2.1539031    1210.9056   0.13528939 
  189600   -937.97384    51.808433    -886.1654    1855.5902   -9984.7496    2.1267782    1245.0908   0.16768149 
  189700   -945.39831    50.970341   -894.42797    1825.5728    7573.7826    2.1870449    1194.7151   0.13696859 
  189800   -944.52834    51.612041   -892.91629    1848.5561   -508.65306    2.1688547    1216.5956   0.16148245 
  189900     -937.125    49.743551   -887.38145    1781.6336   -7231.0271    2.1315902    1214.8473   0.16085077 
  190000   -944.02355    50.383261   -893.64029    1804.5457    1501.3063    2.1680654    1214.2876   0.14093944 
  190100   -943.09689    48.581392    -894.5155    1740.0093    5241.5708    2.1795252    1180.5721   0.13302926 
  190200   -937.94913    50.910371   -887.03876    1823.4249   -6465.5828    2.1409616    1207.4076   0.15193856 
  190300   -942.20374    49.789834    -892.4139    1783.2913   -4492.0618    2.1556302    1201.3946      0.16659 
  190400   -942.62722    48.243755   -894.38347    1727.9163    5089.8718    2.1793879    1199.4908   0.14877618 
  190500   -935.00247    49.665703   -885.33676    1778.8454   -450.93052    2.1489856    1189.3778   0.17801164 
  190600   -942.14604    50.292737    -891.8533    1801.3035    -3133.693    2.1604134      1220.02    0.1655851 
  190700   -944.62393    50.978352   -893.64557    1825.8597    455.11835    2.1751182    1182.3552   0.16700581 
  190800   -939.90111    55.450754   -884.45035    1986.0449    -2567.041    2.1519598    1223.5915   0.16467749 
  190900   -943.24263    51.288755   -891.95388    1836.9772   -5310.5571    2.1597288    1197.6413   0.15628303 
  191000   -941.22383    48.032456   -893.19138    1720.3484     1545.649    2.1655028     1209.054     0.133132 
  191100   -939.13467    54.729625   -884.40504    1960.2167     678.5453    2.1567808    1198.7136   0.14439231 
  191200   -937.29118    45.149323   -892.14186     1617.085    3801.9144    2.1671767    1229.7496   0.15586251 
  191300     -937.647     43.80637   -893.84063    1568.9853   -461.81748    2.1607954    1208.5651   0.16151553 
  191400    -935.6045    50.408347   -885.19615    1805.4442    -437.2567    2.1481495    1225.7573   0.16739807 
  191500   -939.70213    47.661052   -892.04107     1707.046    7627.3026     2.177446    1198.4019   0.17274088 
  191600   -944.34694    50.196035    -894.1509    1797.8399   -7634.8969    2.1517821    1210.5499   0.15829909 
  191700   -940.06758    53.184798   -886.88278    1904.8866   -6565.2235    2.1394366    1228.1125   0.14767606 
  191800   -944.98362    53.469103   -891.51452    1915.0694    10153.738    2.1950803    1220.7258   0.12348901 
  191900   -943.30492    47.891904   -895.41302    1715.3143    608.42646    2.1691236    1199.1344   0.13367254 
  192000   -937.55623    48.405815   -889.15042    1733.7208   -9750.0979    2.1308005    1220.2097   0.15655091 
  192100   -940.94901    54.492664   -886.45635    1951.7296    6050.3137    2.1714431     1207.135   0.15431291 
  192200   -947.02144    51.426264   -895.59518    1841.9023    7324.7375    2.1930922    1196.5919   0.13665037 
  192300    -939.4403    50.975874   -888.46443    1825.7709   -10095.204    2.1306825    1222.3364   0.16049798 
  192400   -938.01336    50.834179   -887.17918     1820.696    518.18116    2.1542601    1213.8689    0.1638584 
  192500   -943.23923    50.443455   -892.79578    1806.7016    8742.7753    2.1870517    1208.8974   0.14738062 
  192600   -943.39764    51.520722   -891.87692    1845.2854   -6478.8527    2.1516202    1209.9384   0.15386324 
  192700   -937.18882    52.146633   -885.04219    1867.7033   -8774.1707    2.1299484    1221.0893   0.14888013 
  192800   -939.54005    47.998369   -891.54168    1719.1275    7774.3793    2.1806539    1183.2995   0.15187471 
  192900   -944.15602    51.200824   -892.95519    1833.8278    3659.2626    2.1750585    1205.4818   0.14676043 
  193000   -933.95893    50.248023   -883.71091     1799.702   -8476.3776    2.1217214    1229.9899   0.17967243 
  193100   -943.11366    50.579174   -892.53448    1811.5626   -363.46043    2.1674734    1186.6293   0.16051299 
  193200   -940.31472    48.442064   -891.87265    1735.0191    6759.8943     2.181238    1193.4841   0.17222655 
  193300   -937.60066    51.429617   -886.17104    1842.0224   -6474.4496    2.1442677    1200.1204   0.18380873 
  193400   -940.61446    54.058471   -886.55599    1936.1784   -7010.8009    2.1451044    1188.6197   0.17010181 
  193500   -942.86671    49.125157   -893.74155     1759.485    8044.7762    2.1895372    1205.1819   0.13491472 
  193600    -939.9916    51.885313   -888.10629    1858.3437    1954.6152    2.1614086    1187.7982   0.16732641 
  193700   -937.61516    49.666934   -887.94823    1778.8895   -7450.7354    2.1369166    1231.5628   0.16715647 
  193800   -943.41174    46.631659   -896.78008    1670.1769    4212.6029    2.1806339    1209.7758   0.14611654 
  193900   -943.37759    55.274736   -888.10286    1979.7406   -1013.8116    2.1627163    1197.5097   0.15172011 
  194000   -940.51096    52.126526   -888.38444    1866.9831   -1161.6433    2.1556612    1224.8282   0.14334078 
  194100   -946.16546    49.500969   -896.66449    1772.9452   -897.35575    2.1727022    1208.9502   0.13714861 
  194200   -937.37962    48.405583   -888.97404    1733.7124    1223.8385    2.1634447    1203.6676   0.16711648 
  194300   -936.53505    49.143608   -887.39144    1760.1458    2864.5545    2.1601259    1210.9547   0.16803137 
  194400   -942.73461     47.89104   -894.84357    1715.2834   -4287.3109    2.1634698     1208.992   0.14399103 
  194500   -938.48113    48.984693   -889.49644    1754.4541    2864.3976    2.1664007    1208.3305   0.16294882 
  194600   -937.58812    51.871035   -885.71709    1857.8324    984.62786    2.1593232    1211.8358   0.16634539 
  194700   -942.12082    48.399895   -893.72092    1733.5087    -4053.522    2.1580342    1220.4576   0.15259624 
  194800   -939.04723    49.314719   -889.73251    1766.2744   -83.184283    2.1603465    1208.5266   0.17183254 
  194900   -939.17638     55.74135   -883.43503     1996.453    216.15747    2.1601026    1226.7526   0.14463407 
  195000   -942.47407    49.532705   -892.94136    1774.0819   -1675.0058    2.1628903    1205.0018   0.14432387 
  195100   -939.38086    48.601072   -890.77978    1740.7141   -2051.9233     2.153252    1235.4115   0.16757038 
  195200    -936.6835    53.985822   -882.69767    1933.5764    3540.3949    2.1587901    1211.1436   0.14700237 
  195300   -943.65835    50.820833   -892.83752     1820.218     3120.937    2.1754954    1190.0986   0.14578447 
  195400   -939.57536    47.709187   -891.86617    1708.7701   -8136.0461    2.1424417    1198.2621   0.17036653 
  195500   -935.47617    50.335124   -885.14105    1802.8216    4495.8496    2.1556303    1205.5735   0.15022049 
  195600   -941.96291     48.40322   -893.55969    1733.6278    12484.582    2.1898518    1185.7138   0.13397327 
  195700   -941.33947    48.370288   -892.96918    1732.4483    -8650.887    2.1409938    1194.2701   0.15819255 
  195800   -941.24498    53.975789   -887.26919     1933.217    -7120.312    2.1390978    1226.8013   0.14973049 
  195900   -943.07669     51.42889    -891.6478    1841.9963    10941.024     2.193276     1186.211   0.16240682 
  196000   -943.37703    47.118687   -896.25835    1687.6205    10.319272    2.1697925    1198.0697   0.15513655 
  196100   -939.53763    53.023573   -886.51406    1899.1121   -13971.872    2.1167502    1158.9399   0.16362687 
  196200   -939.73771    50.363907    -889.3738    1803.8525    9118.4567    2.1745887    1131.8714   0.17582028 
  196300   -943.87231    50.695025   -893.17729     1815.712    5067.6008    2.1809865    1143.1414   0.14573153 
  196400   -934.03165    50.216577   -883.81507    1798.5757   -8544.9754    2.1231677    1137.0568   0.20434923 
  196500   -939.84479    50.773337   -889.07146    1818.5168   -1055.8973    2.1559701    1122.1859   0.17262381 
  196600   -944.44399    52.814689    -891.6293    1891.6306    1702.3918    2.1729672    1119.2023   0.17032628 
  196700   -935.07955     50.79771   -884.28184    1819.3898    6.2073566    2.1446034    1144.4478   0.18262099 
  196800   -936.65115    50.230305   -886.42084    1799.0674   -3358.9695    2.1431729    1158.1199   0.20142651 
  196900   -939.26545    47.610885   -891.65456    1705.2492    3420.9104    2.1671845    1143.1093   0.20781759 
  197000   -936.52971    50.097817    -886.4319    1794.3221    2366.6625     2.160439    1133.9687   0.19454693 
  197100   -938.66618    52.740161   -885.92602    1888.9613   -5502.7755    2.1361403    1142.5548   0.17510821 
  197200   -942.43195     48.05317   -894.37878    1721.0903    2336.0662     2.171569    1195.8137   0.14054136 
  197300   -937.65128    50.173857   -887.47742    1797.0456    7363.9836     2.169988    1222.6027   0.13183173 
  197400   -939.86809    49.463448   -890.40464    1771.6013   -5680.1253     2.139804    1217.0267   0.15205102 
  197500   -944.11712    45.726895   -898.39023    1637.7715    854.72779    2.1715613    1193.5956   0.13599346 
  197600    -940.9334    52.505623   -888.42777     1880.561    7185.1934    2.1763766    1222.0199   0.15161878 
  197700    -943.9301    54.926195    -889.0039    1967.2571   -6070.8187    2.1471384    1224.8841   0.16509794 
  197800   -942.74714    47.690474   -895.05666    1708.0998   -8304.5848    2.1454271    1215.2478   0.16200175 
  197900   -945.02609    51.646985    -893.3791    1849.8077    14815.236     2.206099    1206.5645   0.16206832 
  198000    -939.0028    53.807521   -885.19528    1927.1903   -556.59304    2.1511543    1202.1508   0.14473612 
  198100   -941.24074    49.158967   -892.08177    1760.6959    -17189.71    2.1195035    1209.5234   0.15846073 
  198200   -941.58799    50.834847   -890.75315    1820.7199    9506.7996    2.1852358    1184.5995   0.15137452 
  198300    -937.8566    56.666559   -881.19004    2029.5907    5420.4797    2.1653836    1203.3004   0.14382121 
  198400   -936.69279    48.537587    -888.1552    1738.4404   -8288.7209    2.1298875    1221.7114   0.18327302 
  198500   -941.36506    48.642757    -892.7223    1742.2071   -291.16104    2.1591618    1212.4771   0.15855136 
  198600   -940.40265    52.930513   -887.47214     1895.779    9535.8835    2.1780131    1210.6092   0.16214778 
  198700   -941.20335    55.980253    -885.2231    2005.0097    -8786.599    2.1327369    1228.1531   0.16090423 
  198800    -941.1593    46.058842   -895.10046    1649.6607   -2638.2922    2.1583212    1219.8046    0.1424237 
  198900   -942.93202    53.325982   -889.60604    1909.9433    4399.7087    2.1737648    1191.6807   0.14922489 
  199000   -940.51966    54.138534   -886.38113     1939.046   -2921.7087    2.1461242    1207.7178   0.14777689 
  199100   -942.34663    45.513773   -896.83285    1630.1383   -1005.6634    2.1587474    1217.9657   0.14620484 
  199200   -941.50187    49.324812   -892.17706    1766.6359   -12.729074    2.1604287    1212.1901   0.15840501 
  199300   -937.04477    50.041944   -887.00283     1792.321    3911.6962     2.162217    1209.1776   0.15736524 
  199400   -940.24338    45.708588   -894.53479    1637.1159     112.2928    2.1619988    1216.1953   0.15613314 
  199500   -941.33353    46.384629    -894.9489    1661.3292    -2392.765    2.1576244    1228.8481   0.14697135 
  199600   -935.92451     48.59721    -887.3273    1740.5758    10369.389    2.1767162    1236.0404   0.16380809 
  199700    -940.4745    48.919284   -891.55522    1752.1113    569.95497    2.1604143    1216.0036   0.15552931 
  199800   -946.98331    48.190146   -898.79317    1725.9963   -10755.236    2.1476756    1213.8575   0.13405767 
  199900     -937.926    47.635873   -890.29012    1706.1442    10962.087    2.1835781    1206.2961   0.14922836 
  200000   -936.96178    49.382153   -887.57962    1768.6896    9075.7061    2.1787395    1211.6237   0.14145114 
  200100   -941.27952    47.461563   -893.81796    1699.9011   -12559.103    2.1322585    1231.3706   0.15512202 
  200200   -944.70978    55.372725   -889.33705    1983.2502   -2979.8377    2.1632473    1214.5507   0.15277201 
  200300   -938.38307    55.653638   -882.72943    1993.3115    8551.9241    2.1712083    1212.3295   0.13952945 
  200400   -943.01882    51.614239   -891.40458    1848.6349   -6941.0449    2.1473274    1211.3459   0.13340026 
  200500   -939.61992    48.252522    -891.3674    1728.2304   -3307.4931    2.1550633    1206.6146   0.13094959 
  200600    -934.3708    52.627361   -881.74344    1884.9212    9660.3014    2.1710076    1188.2508   0.13842006 
  200700   -939.81877    51.660839   -888.15793    1850.3039   -2483.2463    2.1509932    1215.9775   0.15165381 
  200800   -941.64129    47.956241   -893.68504    1717.6187   -8674.4757    2.1461595    1212.6714   0.15891121 
  200900   -941.48678    55.052581    -886.4342    1971.7838    4008.3225     2.174015    1222.1368   0.15346727 
  201000   -936.24842    48.637936   -887.61048    1742.0345    4615.8493      2.16046    1185.1349   0.14459822 
  201100   -945.64192    49.394905   -896.24702    1769.1464    -5528.187    2.1581487    1210.7425   0.13095471 
  201200   -938.07349    48.660457   -889.41303    1742.8411    1359.4627    2.1618502    1208.2561   0.15079841 
  201300   -934.75608    47.728162   -887.02792    1709.4497    4768.6131    2.1603086    1207.2692   0.15468038 
  201400   -944.14949    46.988236   -897.16125    1682.9482   -1860.7453    2.1635886    1214.3817   0.13358419 
  201500   -942.56603    51.589792   -890.97623    1847.7593   -1353.1573    2.1585734    1199.8668   0.14130636 
  201600    -936.5893    49.679904   -886.90939     1779.354    3203.5345    2.1648501    1206.8683   0.18349217 
  201700   -941.70113    46.076091   -895.62504    1650.2785   -673.86805     2.167866    1213.6072   0.16735711 
  201800   -941.60075    49.758905   -891.84185    1782.1835   -1159.1125    2.1597673    1216.5437   0.16752193 
  201900   -935.96682    49.796046   -886.17077    1783.5138    3799.5516    2.1611651    1210.4267    0.1603203 
  202000   -940.20568    46.999623   -893.20606    1683.3561    1022.8292    2.1674203    1228.1476   0.15439405 
  202100   -939.40764    46.042087   -893.36556    1649.0606    1157.4002    2.1685357    1193.9916    0.1727367 
  202200   -935.72243    50.617331    -885.1051    1812.9292    -1956.632    2.1496016    1217.4343   0.17665888 
  202300   -940.65195    48.631437   -892.02051    1741.8017   -926.28827    2.1656076      1216.14   0.18313289 
  202400   -942.80855    50.079391   -892.72916    1793.6622    3322.4213    2.1742309    1206.8267   0.16949557 
  202500   -932.90807    50.153715   -882.75435    1796.3242   -1764.3458    2.1440973    1206.9039    0.1979898 
  202600    -937.3419    47.022312   -890.31959    1684.1687   -95.363101    2.1615797    1169.4489   0.16464619 
  202700   -943.46374    52.839513   -890.62423    1892.5197   -901.72634    2.1659451    1169.5014   0.17073369 
  202800   -935.16393    52.988847   -882.17508    1897.8683   -264.99957    2.1505814    1161.0781   0.18909446 
  202900    -938.4229    46.855338   -891.56756    1678.1883    2128.3499    2.1643092    1200.6782   0.15607355 
  203000   -939.93067    47.548029   -892.38264     1702.998    390.40063    2.1608514    1209.0082   0.15163347 
  203100    -935.6075    51.117443   -884.49006    1830.8414    1558.6158    2.1556094    1209.3755   0.16211258 
  203200   -937.23635    45.275053   -891.96129    1621.5882    3111.3935     2.166598    1212.0775   0.14816428 
Loop time of 141.181 on 1 procs for 200000 steps with 217 atoms

Performance: 367.188 ns/day, 0.065 hours/ns, 1416.620 timesteps/s
100.0% CPU use with 1 MPI tasks x no OpenMP threads

MPI task timing breakdown:
Section |  min time  |  avg time  |  max time  |%varavg| %total
---------------------------------------------------------------
Pair    | 134.3      | 134.3      | 134.3      |   0.0 | 95.12
Neigh   | 3.7191     | 3.7191     | 3.7191     |   0.0 |  2.63
Comm    | 0.95358    | 0.95358    | 0.95358    |   0.0 |  0.68
Output  | 0.068326   | 0.068326   | 0.068326   |   0.0 |  0.05
Modify  | 1.8345     | 1.8345     | 1.8345     |   0.0 |  1.30
Other   |            | 0.3089     |            |       |  0.22

Nlocal:    217 ave 217 max 217 min
Histogram: 1 0 0 0 0 0 0 0 0 0
Nghost:    953 ave 953 max 953 min
Histogram: 1 0 0 0 0 0 0 0 0 0
Neighs:    4146 ave 4146 max 4146 min
Histogram: 1 0 0 0 0 0 0 0 0 0
FullNghs:  8292 ave 8292 max 8292 min
Histogram: 1 0 0 0 0 0 0 0 0 0

Total # of neighbors = 8292
Ave neighs/atom = 38.212
Neighbor list builds = 6302
Dangerous builds = 117
Total wall time: 0:02:23
