LAMMPS (3 Mar 2020)

    # ---------- Initialize simulation ---------------------
    units metal
    atom_style atomic
    dimension  3
    boundary   p p p
    read_data /home/modeler/RemLabs/Lab4/ProblemEC1_v4_size_3/temp_1231/lammps.data
  orthogonal box = (0 0 0) to (12.27 12.27 12.27)
  1 by 1 by 1 MPI processor grid
  reading atoms ...
  108 atoms
  read_data CPU = 0.000929813 secs

    pair_style eam
    pair_coeff * * /usr/share/lammps-stable/potentials/Ag_u3.eam
Reading potential file /usr/share/lammps-stable/potentials/Ag_u3.eam with DATE: 2007-06-11

    velocity  all create 1231 87287 dist gaussian

    # ---------- Describe computed properties------------------
    compute msdall all msd
    thermo_style custom step pe ke etotal temp press density c_msdall[4]
    thermo 100

    # ---------- Specify ensemble  ---------------------
    #fix  1 all nve
    #fix  1 all nvt temp 1231 1231 0.25
    fix 1 all npt temp 1231 1231 0.25 tchain 2 iso 1.0 1.0 1.0 pchain 2

    # --------- Compute RDF ---------------
    compute rdfall all rdf 100 1 1
    fix 2 all ave/time 1 125000 125000 c_rdfall[*] file /home/modeler/RemLabs/Lab4/ProblemEC1_v4_size_3/temp_1231/lammps.rdf mode vector

    # --------- Run -------------
    timestep 0.005
    run 500000
Neighbor list info ...
  update every 1 steps, delay 10 steps, check yes
  max neighbors/atom: 2000, page size: 100000
  master list distance cutoff = 7.55
  ghost atom cutoff = 7.55
  binsize = 3.775, bins = 4 4 4
  2 neighbor lists, perpetual/occasional/extra = 1 1 0
  (1) pair eam, perpetual
      attributes: half, newton on
      pair build: half/bin/atomonly/newton
      stencil: half/bin/3d/newton
      bin: standard
  (2) compute rdf, occasional, copy from (1)
      attributes: half, newton on
      pair build: copy
      stencil: none
      bin: none
Per MPI rank memory allocation (min/avg/max) = 3.723 | 3.723 | 3.723 Mbytes
Step PotEng KinEng TotEng Temp Press Density c_msdall[4] 
       0       -307.8    17.025759   -290.77424         1231    9844.4014    10.472245            0 
     100   -295.85014    7.5225326   -288.32761    543.89574   -2885.5983    9.9583333  0.073218283 
     200   -294.92831    8.9982143    -285.9301    650.59079   -6133.5761    9.8775671  0.089125438 
     300   -294.53402    10.778506   -283.75551    779.30985    10750.311    10.020805  0.081054727 
     400   -295.04662    13.429483   -281.61714    970.98131   -2242.7831    9.8869745  0.092048024 
     500   -291.77474      12.3775   -279.39724    894.92065   -7482.0406    9.7002275   0.11984826 
     600   -292.99852    15.580471   -277.41805    1126.5025    -2820.996    9.7944342   0.11341098 
     700   -290.73617    15.711677    -275.0245     1135.989    15711.949    9.9054251   0.14580572 
     800   -288.33866      15.1323   -273.20636    1094.0988   -999.99231     9.621952   0.15579404 
     900   -288.60796    17.470844   -271.13711    1263.1807   -16912.211    9.4441649   0.15574629 
    1000   -285.83523    17.341685   -268.49354    1253.8422   -1496.3759    9.5241902   0.19447457 
    1100   -287.20376    18.994271   -268.20949    1373.3278   -3000.9309     9.540859   0.22678263 
    1200   -289.92508    17.425908   -272.49917    1259.9317    2585.3864     9.729457   0.15701088 
    1300   -289.53651     17.42951   -272.10699    1260.1921     4823.176     9.715729   0.14344347 
    1400   -284.88619    14.994403   -269.89179    1084.1285    10192.451    9.6085559   0.19696034 
    1500   -285.04873    18.313812   -266.73491    1324.1291   -6329.1698    9.4061011   0.19560341 
    1600   -288.64175    18.285328   -270.35643    1322.0697   -13403.184    9.4939725   0.16191096 
    1700   -289.40379    17.586669   -271.81712     1271.555    20250.865    9.8997768   0.14019346 
    1800   -287.01956    18.537266    -268.4823    1340.2854    6027.4999    9.6207162   0.17617908 
    1900   -287.06735     19.43881   -267.62854    1405.4689    -233.2757    9.5767717   0.16852726 
    2000   -288.14873    16.375781   -271.77295    1184.0052    14713.833    9.7838058   0.15736001 
    2100   -287.73031    16.140015    -271.5903    1166.9588   -2409.9956    9.5965078   0.15691389 
    2200   -284.42347    16.280517   -268.14295    1177.1174   -2354.6857     9.422779   0.20506696 
    2300   -285.78279    16.245311   -269.53748     1174.572   -3549.2662    9.4744745   0.18001814 
    2400   -288.94168    15.945483    -272.9962    1152.8937   -1912.5429     9.624699   0.12249218 
    2500   -286.81804    17.783285   -269.03475    1285.7708    6473.9969    9.6210044   0.17842679 
    2600   -286.15394    17.665877   -268.48806     1277.282    -5132.687    9.4822466   0.17647602 
    2700    -286.4183    17.942757   -268.47554     1297.301    1531.7599    9.5621719   0.19894493 
    2800   -286.93956    17.845518   -269.09404    1290.2704    5831.1533    9.6045071   0.19191394 
    2900   -287.88316    15.569174   -272.31398    1125.6857    -14436.12    9.4626217   0.18326112 
    3000   -284.77432     16.22702    -268.5473    1173.2494     3874.813     9.551947   0.22279549 
    3100   -286.22915    17.443782   -268.78537     1261.224    11942.296    9.6541205   0.17925301 
    3200    -290.5365    17.580702    -272.9558    1271.1236   -2246.9745    9.6788714   0.13695234 
    3300   -285.32352    15.767976   -269.55554    1140.0595   -7799.0576    9.4413158    0.2197225 
    3400   -284.89239    17.344185   -267.54821    1254.0229    3288.4254    9.5066234   0.21040876 
    3500   -287.51269    16.459666   -271.05302    1190.0703    6712.2721     9.679264   0.16339718 
    3600   -287.80292    15.476747   -272.32617    1119.0031    -599.3263    9.6051732   0.17320385 
    3700   -282.15607    14.752295   -267.40377    1066.6236   -6265.8627    9.2973276   0.25317215 
    3800   -285.71258    15.989288   -269.72329    1156.0609    3819.6047     9.571687   0.18559503 
    3900   -289.60065    18.409603   -271.19104     1331.055    3557.7628    9.7050323   0.14320522 
    4000   -285.07915    17.401081   -267.67806    1258.1367   -1010.9489    9.4979368   0.21378746 
    4100   -283.01066    17.033504   -265.97715      1231.56   -3491.5558    9.3560439   0.22180009 
    4200   -288.88089    17.776331   -271.10456    1285.2681   -5138.1669    9.5866265   0.15086543 
    4300   -287.85713    17.909689   -269.94744    1294.9101    13753.253    9.7428799   0.14604273 
    4400   -286.44706    18.897841   -267.54922    1366.3557   -1205.4182    9.5267262   0.19301663 
    4500     -282.727    18.271227   -264.45577    1321.0501   -12470.639    9.2520836   0.27661366 
    4600   -286.75578    16.846738   -269.90905    1218.0564   -2937.2568    9.5212252   0.18677435 
    4700   -286.34987    17.012923   -269.33695     1230.072    20978.503    9.7630965   0.16417317 
    4800   -288.15469    19.258792    -268.8959    1392.4532    14848.459    9.7895757   0.16255622 
    4900   -285.79271    16.385076   -269.40763    1184.6773    1283.0245    9.5379021   0.16341421 
    5000   -288.59199    14.112138   -274.47985    1020.3388   -5549.8084    9.5997528   0.16329888 
    5100   -287.75703    16.765763   -270.99127    1212.2017   -3293.0496    9.5529092   0.17483575 
    5200   -287.64802    18.777809   -268.87021    1357.6772    8918.0141    9.6685311   0.18240958 
    5300    -286.3183    17.519881   -268.79842    1266.7261    -11315.41    9.4111676   0.20930387 
    5400   -281.11088    17.813986    -263.2969    1287.9906    -9158.676    9.1994796   0.24349482 
    5500    -284.5372    18.966143   -265.57106    1371.2941   -894.58904    9.4441291    0.2318514 
    5600   -286.02592    16.067364   -269.95855    1161.7059    19922.671     9.739404   0.15682726 
    5700   -286.21005    16.568884   -269.64116     1197.967    2650.4699    9.5819363   0.18152599 
    5800   -284.19304    17.158376   -267.03466    1240.5885   -45.753973    9.4560733   0.21398237 
    5900   -283.33391    17.869851   -265.46406    1292.0298    7999.6359    9.4920938   0.24565633 
    6000   -289.04337    18.242219   -270.80115    1318.9527   -9222.5716    9.5474068   0.15638703 
    6100   -287.93337    17.726614   -270.20676    1281.6734    1800.0947    9.6185026   0.15712325 
    6200    -285.8151    16.651358   -269.16374      1203.93   -2517.6263    9.5115617   0.21849856 
    6300   -282.87376    18.275186   -264.59857    1321.3364   -12672.001    9.2602164   0.30084958 
    6400   -285.87042      17.5866   -268.28382    1271.5501   -5796.7729    9.4416854   0.21190169 
    6500   -287.75649    17.817112   -269.93938    1288.2166    2444.9892     9.626683   0.17010596 
    6600   -287.80199    19.532971   -268.26901     1412.277    18476.889    9.7821523   0.15623837 
    6700   -285.63756    20.870384   -264.76718    1508.9749    4867.2105    9.5352152   0.18162551 
    6800   -286.43195    16.604067   -269.82788    1200.5108   -3910.7743    9.5294421   0.22809433 
    6900   -286.43949    16.346436   -270.09305    1181.8835    3476.2096    9.5871175   0.18738052 
    7000   -283.99066    16.572977   -267.41768    1198.2629   -1304.6105    9.4192303   0.20498755 
    7100   -280.93234    16.425865   -264.50647    1187.6264    2008.8365    9.2952334   0.29557784 
    7200   -285.72468    15.847055   -269.87763    1145.7771    22633.619    9.7826924   0.17729796 
    7300   -287.13722    17.584233   -269.55299    1271.3789    13592.611    9.7314382   0.16108087 
    7400   -286.67995    17.326217   -269.35373    1252.7238   -13845.039    9.4181177   0.19076365 
    7500   -288.61747    14.167305   -274.45017    1024.3275   -2864.6034     9.630577   0.16389818 
    7600   -287.74718    15.988302   -271.75888    1155.9896    5204.1514     9.655424   0.16552355 
    7700   -285.42686    16.088951   -269.33791    1163.2668   -5833.0059    9.4472148   0.21236454 
    7800   -283.10899    14.581325   -268.52766    1054.2621    20441.516    9.6635544   0.23107262 
    7900   -288.28246    15.689118   -272.59334     1134.358    7119.9257    9.7276766    0.1703582 
    8000   -287.16965    15.633876   -271.53577    1130.3638   -15311.814    9.4498189   0.16163458 
    8100   -287.88688    19.786207   -268.10068    1430.5865    573.57923    9.5905913   0.16105613 
    8200   -286.64706    17.556789   -269.09027    1269.3947    9587.1861    9.6747479    0.1804449 
    8300   -289.71983    15.818108   -273.90172    1143.6842    6911.0802    9.7514982   0.13820429 
    8400   -286.55827    14.447989   -272.11028    1044.6215   -5152.9452     9.506879   0.19981376 
    8500   -285.00103    16.284697   -268.71633    1177.4196   -12203.376    9.3663711   0.21830304 
    8600   -287.41435     19.29578   -268.11857    1395.1276    9498.3131    9.6655509    0.1841581 
    8700   -288.32232     17.77906   -270.54326    1285.4654   -1759.2956    9.5946516   0.18472193 
    8800   -288.81703    15.716336    -273.1007    1136.3259    275.60047    9.6372468   0.16164143 
    8900   -285.74002    16.547646   -269.19237    1196.4314   -2179.8294    9.5056586   0.18273699 
    9000   -285.93529     16.47358   -269.46171    1191.0762    234.50467    9.5405345   0.17524205 
    9100   -288.47186    15.498156    -272.9737    1120.5509    5900.9223    9.7072981   0.14373191 
    9200   -289.78174    17.677412   -272.10433     1278.116    4841.9458    9.7582536   0.13311814 
    9300   -286.33106    17.684913   -268.64615    1278.6584    7225.4284    9.6260176   0.18247205 
    9400   -285.70211    16.674141   -269.02797    1205.5773    -2396.968    9.4786543   0.21526493 
    9500    -288.4702    15.359557   -273.11064      1110.53    3599.2204    9.6656685   0.18939256 
    9600    -287.8211    15.933057   -271.88804    1151.9953   -16474.189    9.4269821    0.2062407 
    9700   -285.27968     16.13854   -269.14114    1166.8521    5046.1599    9.5553603    0.1980857 
    9800    -286.8673    17.667398    -269.1999     1277.392    12206.091     9.693176   0.17672398 
    9900   -285.06251    14.639815   -270.42269     1058.491    12197.978    9.6520671   0.19750998 
   10000   -289.48293    13.748205   -275.73473    994.02563   -11607.979    9.5667032   0.14739187 
   10100   -286.57777    13.892041   -272.68573    1004.4253    -4610.744    9.5255779   0.20123924 
   10200   -287.31496    17.148941   -270.16602    1239.9064    1275.8185    9.5994147   0.16755107 
   10300   -287.82804    18.604732   -269.22331    1345.1633   -1138.0188    9.5817701   0.16656481 
   10400   -284.62204    17.342852   -267.27919    1253.9266    18246.996    9.6858333   0.19908299 
   10500   -281.81016    18.834606   -262.97555    1361.7837    2336.8722    9.3642238    0.2855705 
   10600   -286.77668    17.917711   -268.85897    1295.4902   -6665.1173    9.4580191   0.17766358 
   10700   -285.05164    15.437993   -269.61364     1116.201    10566.267    9.6097082   0.21242421 
   10800   -285.29721    16.563359   -268.73385    1197.5675   -9269.6011    9.4124502   0.19540842 
   10900   -287.54714     14.55363   -272.99351    1052.2596    4108.4029    9.6663293   0.18402352 
   11000   -288.37893    16.555626    -271.8233    1197.0084    4334.3949    9.6615108   0.16877164 
   11100    -284.9466     15.66272   -269.28388    1132.4493   -2681.1395    9.4635877    0.1966524 
   11200   -286.77323    19.217271   -267.55596    1389.4512   -4742.9625    9.4919452    0.1788575 
   11300   -287.30798    17.601291   -269.70669    1272.6122   -4109.7253    9.5247874   0.17453702 
   11400   -287.94723    15.915792   -272.03144    1150.7469   -102.83393    9.6014961   0.16058471 
   11500   -285.85132     16.29974   -269.55158    1178.5072    8258.0791    9.6068687   0.15159805 
   11600   -286.49592    18.206796   -268.28913    1316.3916   -207.50332    9.5431823    0.1804183 
   11700   -281.73257    18.176329   -263.55624    1314.1888     9089.191    9.4740435   0.26071824 
   11800   -286.00397    17.552909   -268.45106    1269.1142    7220.3501    9.5940132   0.19978195 
   11900   -285.82205    15.861272   -269.96078     1146.805   -6468.0622    9.4609057   0.19815447 
   12000   -286.23891    17.305313    -268.9336    1251.2124    679.92924    9.5498824   0.18620037 
   12100   -287.65014     17.46343   -270.18671    1262.6446    3605.2374    9.6361376   0.20809522 
   12200   -290.30955    15.034736   -275.27482    1087.0447   -4677.8692    9.6583402   0.15988329 
   12300   -286.21884    14.692832   -271.52601    1062.3243   -10655.396    9.4258137   0.19519487 
   12400   -284.33631    14.830256   -269.50606    1072.2603    1618.2036    9.4616508   0.20013739 
   12500   -287.07856    17.792207   -269.28635    1286.4159    492.61807    9.5568483   0.19256205 
   12600   -288.75149    15.298471   -273.45302    1106.1133    4941.2868    9.7013639    0.1778432 
   12700   -287.92768    15.705031   -272.22264    1135.5085    2050.3982    9.6432005   0.15386682 
   12800   -285.85506    16.792108   -269.06295    1214.1065   -1729.3997    9.4969708   0.18142722 
   12900   -285.97372    17.095423    -268.8783    1236.0369    1618.3625    9.5485602   0.19951534 
   13000   -283.47733    18.007198   -265.47014    1301.9602    18928.312    9.6294689   0.22912197 
   13100    -282.7892    19.549844   -263.23936    1413.4969    3633.6381    9.4284436   0.25562759 
   13200    -285.2268    17.165113   -268.06169    1241.0757    1167.4453    9.5080892   0.20797404 
   13300   -284.29618    14.260339   -270.03585    1031.0541   -9195.8251    9.3499029   0.21997909 
   13400   -286.58752    17.451836   -269.13568    1261.8063   -5944.9146    9.4701917   0.18692479 
   13500   -281.98891    16.563095   -265.42581    1197.5484    4005.6835    9.4239075   0.34505686 
   13600   -283.12912    20.961692   -262.16743    1515.5767   -933.65059    9.3986445    0.2514326 
   13700   -285.11793    16.979845   -268.13809    1227.6804    3409.4756    9.5229505   0.21969284 
   13800   -285.96779    17.264534   -268.70326     1248.264   -8125.5976    9.4452857   0.19686111 
   13900   -285.34362     13.92923   -271.41439    1007.1141    6387.7191    9.6026558   0.18439329 
   14000   -287.76474    15.533208   -272.23153    1123.0853    1540.6151    9.6133637   0.17386221 
   14100   -286.05542    18.812058   -267.24336    1360.1534   -603.92807    9.5263354   0.19003101 
   14200   -287.62757    18.324918   -269.30265    1324.9321    10785.635    9.6946251   0.15877392 
   14300     -288.427    16.349943   -272.07706    1182.1371   -9351.2472    9.5149623    0.1625022 
   14400   -284.04088    15.990878      -268.05    1156.1759   -2389.6739    9.4104839   0.22840293 
   14500   -286.24777    19.053094   -267.19468    1377.5808    2330.0779    9.5314838   0.19279993 
   14600   -285.86697    15.583735   -270.28323    1126.7385    3578.3136    9.5587386   0.18888008 
   14700   -287.31517    15.273436   -272.04173    1104.3032   -15394.122    9.4230126   0.22703097 
   14800    -285.3841    18.315604    -267.0685    1324.2587    -7335.795    9.4239269   0.22188882 
   14900   -287.41277    18.782582   -268.63019    1358.0222    3863.5295    9.6141497    0.1950202 
   15000   -288.27661    16.578091   -271.69852    1198.6327    10768.488    9.7607803    0.1471473 
   15100   -285.81694    18.313003   -267.50394    1324.0707   -14140.438    9.3773148    0.1915064 
   15200   -282.70266    15.457249   -267.24542    1117.5933   -2776.1196    9.3855486   0.29662007 
   15300   -287.28594    15.894792   -271.39114    1149.2286   -2081.0595    9.5629227    0.1778184 
   15400   -288.47045    17.118166   -271.35228    1237.6813    128.81868    9.6578232   0.14949149 
   15500   -286.63502    18.881426   -267.75359    1365.1689   -2205.5721    9.5298316   0.18633492 
   15600   -285.59328    17.490043   -268.10323    1264.5688    8202.3766    9.6126599   0.17552168 
   15700   -288.66041     17.01241     -271.648    1230.0349    6214.3468    9.7051265     0.134245 
   15800   -286.14021    16.795155   -269.34505    1214.3269    6528.0512     9.605711   0.16450149 
   15900   -284.63827    17.513853   -267.12441    1266.2903   -8356.7882     9.379964   0.22685812 
   16000   -285.79067     15.54399   -270.24668    1123.8648   -840.23906     9.537338    0.2077674 
   16100    -287.5225    16.359138   -271.16336    1182.8019    1777.6612    9.6203011   0.17476506 
   16200   -285.21063    16.445348   -268.76529     1189.035   -12915.906    9.3596982   0.24586544 
   16300   -283.06891    14.813787   -268.25512    1071.0696   -3303.4525    9.3760682   0.27778753 
   16400     -283.958    21.653236   -262.30476    1565.5769    5694.5904      9.47555   0.23150474 
   16500   -284.76678    18.358953   -266.40783    1327.3929    1580.8478    9.4940607   0.20024348 
   16600   -287.63243    17.960117   -269.67231    1298.5562   -6496.3074    9.5435884   0.16635515 
   16700   -287.04424    15.978713   -271.06553    1155.2963     7391.145    9.6661387   0.16460792 
   16800   -289.04084    16.398019   -272.64282    1185.6131   -14705.156    9.4957141   0.15175767 
   16900   -284.06936    17.214598   -266.85476    1244.6535   -5235.3106    9.3674794   0.24596623 
   17000   -286.41361     18.43512   -267.97849    1332.8999    -1086.461    9.5253756    0.1920875 
   17100   -288.32625    18.631173   -269.69508     1347.075    3890.2945    9.6522015   0.16511062 
   17200   -287.85135    16.516614   -271.33473    1194.1877    8787.1785    9.7018636   0.16887043 
   17300   -286.47927     17.07593   -269.40334    1234.6275    543.16281    9.5432413   0.17276781 
   17400   -284.24865    17.513239   -266.73541    1266.2459   -2949.9248    9.4250909   0.22037652 
   17500    -286.6577    17.223821   -269.43388    1245.3204   -3021.1523    9.5386013   0.17171242 
   17600   -288.29796    18.580007   -269.71796    1343.3756   -8407.9491     9.521911   0.15202443 
   17700   -288.12559    17.919012   -270.20658    1295.5842   -465.30149    9.6217349   0.15057466 
   17800   -291.47609    16.551465   -274.92463    1196.7076    11571.238    9.8831641   0.10413713 
   17900    -287.7567    15.424536   -272.33217    1115.2281    11631.209    9.7404633   0.17085367 
   18000   -286.81952    16.429336   -270.39018    1187.8773    -16503.99    9.3917009    0.1955242 
   18100   -286.67981    17.616808   -269.06301    1273.7342   -2960.8142     9.522514   0.17337437 
   18200   -286.02177    19.589591   -266.43218    1416.3708    1429.6906    9.5420788   0.18836092 
   18300   -290.17922    18.617924   -271.56129    1346.1171    1137.3298    9.7103028   0.13352158 
   18400   -287.01926    15.791907   -271.22736    1141.7898   -1835.6683    9.5607597   0.16955261 
   18500    -285.9612     16.13857   -269.82263    1166.8543   -2513.8797    9.4848603   0.19968657 
   18600   -283.93253    16.104333    -267.8282    1164.3789   -8528.5739     9.369791   0.24244297 
   18700   -289.83743    17.965366   -271.87206    1298.9357   -6807.6998    9.6068675   0.16256066 
   18800   -288.03184    16.184491   -271.84735    1170.1745    16954.125    9.7908927   0.16084427 
   18900   -286.21287    17.825374    -268.3875     1288.814    5834.3615    9.5930794   0.20088517 
   19000    -286.0257    17.810612   -268.21509    1287.7467    2041.4763    9.5495882   0.17885767 
   19100   -289.81762    16.529267   -273.28835    1195.1026   -2253.2301    9.6441874   0.13880025 
   19200   -285.34296    15.254559    -270.0884    1102.9384   -18.074258    9.4903225   0.18414315 
   19300   -285.49446    16.878081   -268.61638    1220.3226   -1255.6856    9.4940649   0.18919289 
   19400    -289.1022    17.614902    -271.4873    1273.5964    4442.9593    9.6976524    0.1433041 
   19500   -291.26271    17.027597   -274.23512    1231.1329    7851.3606    9.8429642   0.11672764 
   19600   -287.72187    18.208712   -269.51316    1316.5302   -5705.7791    9.5276986    0.1730666 
   19700   -285.96202    16.507442   -269.45458    1193.5246   -4804.6509    9.4742537   0.17602832 
   19800   -288.36821    17.409801   -270.95841    1258.7671   -10794.183    9.4905277   0.16735396 
   19900   -287.42356    14.062005   -273.36156     1016.714    2058.0485     9.637334   0.18443377 
   20000   -285.08044    17.313761   -267.76668    1251.8232   -567.51898    9.4894799   0.22464092 
   20100   -284.57794    16.677402   -267.90053    1205.8131    -319.5115    9.4985519   0.22256641 
   20200   -287.59325    17.881457    -269.7118    1292.8689       1276.1    9.6190255   0.17669255 
   20300   -289.89569    17.912267   -271.98343    1295.0965    15074.541    9.8504222   0.13644155 
   20400   -286.94872    19.459418    -267.4893    1406.9589    -6165.795    9.4835351   0.19673745 
   20500   -284.95208    16.143105   -268.80897    1167.1822    1080.2591    9.5058344   0.24895703 
   20600   -287.91578    16.990145   -270.92564     1228.425   -10520.191    9.4967541   0.17007139 
   20700   -290.91995    15.966315   -274.95363    1154.3999   -2224.9183    9.7069284   0.12676053 
   20800   -287.83084    16.869073   -270.96177    1219.6713    4553.4692    9.6537873   0.17278933 
   20900   -286.16606     16.85603   -269.31003    1218.7282    2192.0986    9.5503106   0.20355509 
   21000   -286.12497    16.358221   -269.76675    1182.7356   -7619.4245    9.4385823   0.20413087 
   21100   -287.31274    13.721845   -273.59089    992.11974    2610.2529    9.6393124   0.21110073 
   21200   -287.07893    16.708727    -270.3702    1208.0779    6426.1152    9.6312797    0.1920685 
   21300   -285.09969    17.574693   -267.52499    1270.6892    6769.9457    9.5614904   0.22341833 
   21400   -285.97714      16.5472   -269.42994    1196.3992   -7931.5691    9.4364735   0.20664537 
   21500   -288.02314    15.270986   -272.75215    1104.1261   -10664.757    9.5139934   0.16524666 
   21600   -286.54581    18.048038   -268.49777    1304.9131   -3220.9297    9.5223088   0.20215151 
   21700    -286.1191    17.658296    -268.4608    1276.7338    14217.082    9.7014554   0.16706547 
   21800   -288.26139    18.142194   -270.11919    1311.7208    6388.5406    9.6767204   0.14739188 
   21900   -288.33794    17.432499   -270.90544    1260.4082    1962.8942    9.6422948   0.12891928 
   22000   -282.85946    17.528967   -265.33049    1267.3831   -923.53372    9.4032551   0.21209311 
   22100    -286.1578    17.776719   -268.38108    1285.2961   -2052.4974     9.514568   0.19187737 
   22200   -288.20172    17.167685   -271.03403    1241.2616   -6026.7446    9.5760529   0.16963702 
   22300   -288.13911    18.491303    -269.6478    1336.9621   -433.33894    9.6123933   0.17450727 
   22400   -285.55503     18.56454   -266.99049    1342.2573   -2512.5448    9.4691513     0.237905 
   22500   -286.88716    17.664464    -269.2227    1277.1798   -878.91209    9.5511485   0.18428475 
   22600   -287.65029    15.148434   -272.50186    1095.2653    12369.502    9.7390885   0.15352231 
   22700   -285.99628     18.10513   -267.89115    1309.0409   -2302.9252    9.4941645   0.19316668 
   22800     -286.156    17.182821   -268.97318    1242.3559    2523.3391    9.5702463    0.1925261 
   22900    -287.8645    15.889797    -271.9747    1148.8674    3487.8796    9.6476944   0.15469503 
   23000   -285.29247    16.775899   -268.51658    1212.9346    793.03801    9.5001902   0.19338376 
   23100   -285.83337    17.886915   -267.94646    1293.2635   -9644.6121    9.4058435   0.18991034 
   23200   -287.58613    16.536924    -271.0492    1195.6562   -6094.4607    9.5446399   0.18588812 
   23300   -288.15548    17.095123   -271.06035    1236.0152    3422.9483    9.6764477   0.18141042 
   23400   -284.69901    18.297948   -266.40106    1322.9821   -8081.1969    9.3800236   0.19897305 
   23500   -285.66803    16.049615   -269.61842    1160.4227   -8184.8319    9.4434396   0.21242482 
   23600   -285.75231    14.843431   -270.90888    1073.2129    12673.554     9.663562   0.22714415 
   23700   -284.71433    18.301244   -266.41309    1323.2204    2008.2288    9.4989228   0.25926138 
   23800   -285.43562    18.049067   -267.38655    1304.9875   -20025.757    9.2992192   0.22904193 
   23900   -287.85368      16.4022   -271.45148    1185.9154   -5670.8353    9.5723185   0.16240169 
   24000   -286.15677      16.5365   -269.62027    1195.6256    8224.0954    9.6317125   0.19054892 
   24100   -284.78713    18.035828   -266.75131    1304.0302   -3858.2926    9.4302907   0.25561022 
   24200   -287.97149    17.269529   -270.70196    1248.6252    5743.5309     9.676716   0.15005997 
   24300   -288.13908    16.014811   -272.12427    1157.9063   -4290.0563    9.5818467   0.15506302 
   24400   -286.31816    16.678521   -269.63964     1205.894   -7366.5778    9.4515372   0.21838737 
   24500   -284.79837    17.164806   -267.63356    1241.0535   -11087.861    9.3338556    0.2165765 
   24600   -287.19692    15.282599   -271.91433    1104.9657    11587.141    9.7284325   0.19637037 
   24700   -287.53424    17.253369   -270.28087    1247.4568   -1100.9105    9.5894126    0.1753634 
   24800   -285.77658    18.361798   -267.41478    1327.5986    4249.7571    9.5698145   0.18938278 
   24900   -289.21361    17.988544   -271.22507    1300.6115    4932.8127    9.6989939   0.14946961 
   25000   -287.38411    15.020172   -272.36394    1085.9916   -9408.3233    9.5014536   0.15405462 
   25100     -284.103    16.325204   -267.77779    1180.3484   -4359.3264     9.407356   0.19881003 
   25200   -285.07044    16.308711   -268.76173    1179.1559    13661.332    9.6485356   0.24838533 
   25300   -287.66587    17.001162   -270.66471    1229.2216   -1892.0089    9.5773323   0.17747241 
   25400   -288.60658    15.817741   -272.78884    1143.6576    5035.7086    9.7169453    0.1678573 
   25500   -286.32205    17.439211   -268.88283    1260.8935    4689.6784    9.5896154   0.17404181 
   25600   -285.03811    16.372625   -268.66549     1183.777   -7280.8022    9.4125382   0.21655329 
   25700   -285.09244     18.33251   -266.75993     1325.481   -9747.4514    9.4125667   0.18980606 
   25800   -281.54273    19.337681   -262.20505    1398.1571    10794.854     9.457861   0.28373576 
   25900   -285.34408    18.250868   -267.09321    1319.5781     271.5713    9.4769958   0.21122097 
   26000   -285.37243    15.507387   -269.86504    1121.2184   -2525.6298    9.5248817   0.18563991 
   26100   -286.58153    15.864053   -270.71747    1147.0061    18619.137    9.7515101   0.18738383 
   26200   -284.47176    18.581736   -265.89002    1343.5006   -3330.2908      9.39836   0.26290115 
   26300   -284.04676    17.212576   -266.83418    1244.5073   -14574.113    9.2885576   0.24684014 
   26400   -284.76317    14.957279   -269.80589    1081.4444   -7361.9901    9.4088753   0.23270491 
   26500   -287.44772    16.937182   -270.51054    1224.5958     1906.712    9.6006947   0.16688222 
   26600   -288.42006    16.253768   -272.16629    1175.1834    4193.5767    9.6688961   0.15482375 
   26700   -290.63064    15.162395   -275.46824    1096.2747   -4056.7978    9.6776705   0.13613485 
   26800   -288.19536    16.994326   -271.20103    1228.7274   -10392.694    9.5053185   0.16401243 
   26900   -287.23234    17.098378   -270.13396    1236.2505   -133.38374    9.5821896   0.17895073 
   27000   -283.59427    16.685062   -266.90921    1206.3669    15160.857    9.6028807   0.20465791 
   27100   -286.84885    18.754509   -268.09434    1355.9925   -4075.0277     9.531486   0.17014181 
   27200   -288.08757     16.44761   -271.63996    1189.1986     3287.674    9.6418543   0.18313388 
   27300   -287.26645    17.419962   -269.84649    1259.5018   -8144.4365    9.4834218   0.21709592 
   27400   -283.53894     16.78453   -266.75441    1213.5586   -422.70387    9.4203418     0.269524 
   27500   -282.75928    15.473737   -267.28554    1118.7854    2898.9064    9.4404453    0.2548131 
   27600   -285.98931    14.317716   -271.67159    1035.2025    7724.2914    9.6154077   0.24891677 
   27700   -287.23135    17.663805   -269.56754    1277.1322   -1227.0746    9.5563344   0.18841637 
   27800   -283.12581     14.57066   -268.55515    1053.4909    -2388.947    9.4023026   0.25373371 
   27900   -284.27146    18.219969   -266.05149    1317.3441   -17742.425    9.2626541   0.25076844 
   28000   -288.44141    16.665703   -271.77571    1204.9672    1945.0676    9.6715372   0.17957292 
   28100   -288.48454     18.16099   -270.32355    1313.0797   -10142.936    9.5016344   0.17751093 
   28200   -286.08891    17.471073   -268.61783    1263.1972   -3945.1807    9.5068891   0.16316927 
   28300   -286.52149     17.54402   -268.97747    1268.4714    13759.078    9.7198354   0.18860487 
   28400   -289.35931    14.723269   -274.63604    1064.5249    9456.0401    9.7825189   0.14430582 
   28500   -286.98894    15.005068   -271.98387    1084.8996    79.981272    9.5901922   0.16352456 
   28600   -286.02222    16.077519    -269.9447    1162.4402    1907.2061    9.5598167   0.19612413 
   28700   -285.32608    16.905671   -268.42041    1222.3174    7071.5564    9.5633019   0.19850477 
   28800   -285.02107    18.347481   -266.67359    1326.5634    409.80198    9.4835941    0.1893944 
   28900   -282.57154    21.955717   -260.61583    1587.4469   -8114.6455     9.260937    0.2659036 
   29000   -282.45956    16.549774   -265.90978    1196.5853    3265.3324    9.4404329   0.27215286 
   29100   -286.36338    18.230101   -268.13327    1318.0766   -8594.4603    9.4264864   0.23957872 
   29200   -287.05287    16.874809   -270.17806     1220.086    2933.0629     9.604173   0.18313131 
   29300   -287.21337    15.381153   -271.83222    1112.0914    5280.6089    9.6385261   0.20402801 
   29400   -285.31767    18.862143   -266.45552    1363.7746   -5210.2097    9.4281351   0.21936625 
   29500   -284.93164    15.952254   -268.97938    1153.3833    2165.2261    9.5379568   0.20632362 
   29600   -285.87464    15.645563   -270.22907    1131.2088    6993.9574    9.5907666   0.20054978 
   29700   -281.53965    15.078062   -266.46159    1090.1772   -7978.7635    9.2774395   0.26400462 
   29800    -285.1479    18.194207   -266.95369    1315.4814   -2264.6691    9.4585058     0.205749 
   29900   -287.61799    17.178214   -270.43978    1242.0229    8757.2529     9.661839    0.1884998 
   30000   -285.49835    15.646264   -269.85209    1131.2595   -5039.8885    9.4742804   0.20333693 
   30100   -285.26948    16.553342   -268.71614    1196.8432   -8813.6399    9.4035677   0.21205666 
   30200   -289.18153    15.559327   -273.62221    1124.9738   -2586.3768    9.6254737   0.16639684 
   30300   -287.66301    15.959915    -271.7031    1153.9371    18048.299    9.7984368    0.1728951 
   30400    -285.9806    16.936639   -269.04396    1224.5564     -2683.51     9.524724   0.19011051 
   30500   -285.41927    15.426941   -269.99233     1115.402    1252.7531    9.5270084   0.19884238 
   30600   -288.82403    14.506068   -274.31796    1048.8208   -3919.0095    9.6341395   0.14366467 
   30700   -288.61522    17.362083   -271.25313     1255.317    4290.4563    9.6637866   0.16554423 
   30800   -286.26344    17.176814   -269.08662    1241.9217   -7996.8251    9.4541619   0.19200679 
   30900    -286.2826    16.313572   -269.96903    1179.5073    1034.9722    9.5642591   0.18324193 
   31000   -289.56317    16.541053   -273.02212    1195.9547     14794.16    9.8460573   0.13839324 
   31100   -290.05342     16.71684   -273.33658    1208.6645   -8001.8305    9.6199417   0.14517206 
   31200   -285.11442    15.647296   -269.46713    1131.3341    4071.7516    9.5327393   0.21108231 
   31300   -285.71773    16.252392   -269.46534    1175.0839    1073.5849    9.5269458    0.2478829 
   31400   -284.05982    16.600048   -267.45977    1200.2202   -12119.258    9.3267507   0.22959492 
   31500   -286.57761    14.676256   -271.90136    1061.1258    477.32785    9.5789868   0.17360563 
   31600   -288.31673    16.698442   -271.61829    1207.3343    13733.597    9.7814135   0.15758075 
   31700   -287.96444    20.019014   -267.94542     1447.419    16994.594     9.778549   0.13201066 
   31800   -286.16249    17.038668   -269.12383    1231.9334   -668.86327    9.5276231   0.19604897 
   31900   -287.80803    15.606513   -272.20152    1128.3854   -20928.855    9.3924177    0.1766837 
   32000   -289.15483    16.297637    -272.8572    1178.3552    2688.3256    9.6914909   0.16026299 
   32100   -285.64201    16.757194   -268.88481    1211.5822   -2934.7222    9.4714819   0.21140153 
   32200   -286.87636    17.338819   -269.53755     1253.635   -7856.7209    9.4761442   0.17202221 
   32300   -290.17603    16.805681   -273.37035    1215.0879   -5957.4889    9.6246452   0.14202509 
   32400    -286.9351    17.775765   -269.15933    1285.2271   -1182.1302    9.5670987   0.16926986 
   32500   -286.62742    17.102781   -269.52464    1236.5689   -4173.2379    9.5110575   0.20633548 
   32600   -288.27964    14.916819   -273.36282     1078.519   -8717.3954    9.5289367   0.20019776 
   32700   -286.19391    16.593033   -269.60088     1199.713   -4262.4811    9.4696815   0.18598228 
   32800   -284.25729    16.094734   -268.16256    1163.6849    9962.8006    9.5570947   0.25429441 
   32900   -283.37921     14.56046   -268.81875    1052.7535    4799.3294    9.4547097   0.21654551 
   33000    -286.7651    13.375395   -273.38971    967.07062   -7482.1405    9.5145492   0.18086627 
   33100   -286.38521    16.381475   -270.00373    1184.4169     9226.706    9.6619529   0.17068664 
   33200   -287.41079    18.516174   -268.89461    1338.7603    11259.767    9.6831174   0.15539972 
   33300   -287.40145    17.043952    -270.3575    1232.3154    628.47218    9.6042639    0.1727405 
   33400   -289.78212     14.40886   -275.37326    1041.7925   -6247.1339    9.6324565   0.15569417 
   33500     -286.054    14.651124   -271.40287    1059.3087   -8704.2398     9.435444   0.22672318 
   33600   -283.86407     14.73038   -269.13369     1065.039    9162.9785    9.5754717   0.21224581 
   33700   -285.16577    15.237046   -269.92873    1101.6721    4134.3289    9.5446802   0.21604602 
   33800   -285.30386    17.452799   -267.85106     1261.876   -3031.2408    9.4597892   0.19730868 
   33900    -282.7686    17.674869   -265.09373    1277.9322   -9880.6148    9.2620284   0.26566549 
   34000    -286.7858    17.203306    -269.5825    1243.8371    -5011.309    9.4965642   0.17377034 
   34100   -286.22476    15.910758     -270.314     1150.383    10451.058    9.6728557   0.18962205 
   34200   -285.08083     17.65709   -267.42374    1276.6467    646.12572    9.5019481   0.20971996 
   34300   -283.04798    16.820595   -266.22739    1216.1662   -6520.2615    9.3282935   0.24565744 
   34400   -287.42407    16.516664   -270.90741    1194.1914   -4764.0745    9.5293757   0.16701807 
   34500   -287.19607    17.880841   -269.31523    1292.8244    15513.555    9.7549983   0.14276881 
   34600   -287.38957    19.623626   -267.76595    1418.8316     2828.259    9.6049478   0.18148064 
   34700   -289.10998    16.699524   -272.41045    1207.4125   -13413.657    9.5061566   0.19217472 
   34800   -287.52468    15.561085   -271.96359    1125.1008   -12855.835    9.4673916   0.20111596 
   34900   -285.55024    16.083921   -269.46632     1162.903      7761.75    9.5994616   0.19916345 
   35000   -285.78421    18.442191   -267.34201    1333.4112     5583.508    9.5626042   0.19371261 
   35100   -286.35636    18.730929   -267.62543    1354.2876   -2985.4995    9.4977242   0.19207605 
   35200   -287.18226    16.318137   -270.86412    1179.8374    13255.338    9.7183186   0.15068227 
   35300   -286.69173    18.211882   -268.47985    1316.7593    10850.568    9.6612577   0.17741595 
   35400   -283.61419    16.846372   -266.76782    1218.0299    8309.7584    9.5235671   0.20708975 
   35500   -288.70178     16.41117   -272.29061    1186.5639   -6712.3079    9.5554791   0.15154462 
   35600   -285.81494    15.410287   -270.40465    1114.1978   -6810.9084    9.4754131   0.18610242 
   35700    -285.6361    18.013942   -267.62216    1302.4478    14704.165    9.6712514   0.17574161 
   35800   -288.94516    18.230127   -270.71503    1318.0785    1358.1546    9.6605293   0.18444773 
   35900   -286.95618    15.346586   -271.60959    1109.5921    -10041.84    9.4880133   0.19634345 
   36000   -284.21948    15.869839   -268.34964    1147.4245   -1782.0264    9.4310893   0.22623603 
   36100   -286.71059    17.457777   -269.25282    1262.2359    10475.546    9.6738906    0.1679272 
   36200   -288.57164    15.352206   -273.21944    1109.9984    3753.2416    9.6937627    0.1663272 
   36300   -285.53932    15.861929   -269.67739    1146.8525   -4665.9016    9.4651672   0.25427803 
   36400   -285.36493    17.611135    -267.7538     1273.324   -12969.486    9.3692977    0.2252422 
   36500   -288.07345    16.770637   -271.30281    1212.5541    1758.0818    9.6256996   0.16997155 
   36600   -288.40892    18.443053   -269.96587    1333.4735    22274.443    9.8594966   0.13772744 
   36700   -286.84272    20.818606   -266.02411    1505.2313    9781.3026    9.6527403    0.1513288 
   36800    -286.0842    17.418164   -268.66603    1259.3718   -5449.1844      9.44884   0.22145973 
   36900    -287.1489    16.433381   -270.71552    1188.1698   -8468.8405    9.5015746   0.19339995 
   37000     -289.216    15.727706   -273.48829     1137.148    1443.6734    9.6786912   0.15278102 
   37100   -290.56738    18.995422   -271.57195     1373.411    3121.0731    9.7446466    0.1331218 
   37200   -285.47768    17.084751   -268.39293    1235.2653    1189.3419    9.5172767   0.22158961 
   37300   -286.36776    17.051061    -269.3167    1232.8294   -11664.606    9.4102495   0.21355505 
   37400   -287.30017    15.646168     -271.654    1131.2526    13080.825    9.7508712    0.1634132 
   37500   -290.14259    16.815464   -273.32712    1215.7952    16012.175    9.8726926   0.12884802 
   37600    -284.4926    16.255523   -268.23707    1175.3103    8843.7692    9.5657467   0.18620604 
   37700   -286.29068    16.729692   -269.56099    1209.5937    -12502.62    9.4064741   0.20187737 
   37800   -285.75116    16.489782   -269.26137    1192.2477    2944.2134    9.5850004   0.22381652 
   37900    -284.8604    20.237595    -264.6228    1463.2229    4093.9268    9.5127619   0.20063645 
   38000   -286.11216    17.655769   -268.45639    1276.5511    1411.4361    9.5512632   0.19133612 
   38100   -287.06676    15.688733   -271.37803    1134.3301   -4976.9304    9.5498541   0.17279289 
   38200   -285.47648    16.994308   -268.48218    1228.7261     4072.832    9.5566301   0.18014126 
   38300   -285.25348    17.626916   -267.62656     1274.465    15422.533    9.6653383   0.20218108 
   38400   -288.06428    16.737088   -271.32719    1210.1285    2525.3407    9.6553101   0.16328209 
   38500    -288.3638    16.691939   -271.67186    1206.8641   -8534.0302     9.537798   0.17072121 
   38600   -285.06164    18.021323   -267.04032    1302.9815   -6197.0747    9.4182171   0.21589027 
   38700   -285.10208    15.828496   -269.27358    1144.4353    8127.9596    9.6023414   0.19238321 
   38800   -287.40406    15.714635   -271.68943    1136.2029    8182.3643    9.6929783   0.18267585 
   38900   -283.80303    16.794442   -267.00858    1214.2753    836.07693    9.4446554   0.24545304 
   39000   -284.13331    16.813179   -267.32013      1215.63   -2554.7347    9.4320432   0.24320995 
   39100   -286.57553    16.044935   -270.53059    1160.0843   -4643.1812    9.5117606   0.19788768 
   39200   -288.71414    17.329199   -271.38494    1252.9394    3498.0262    9.6956903   0.16765631 
   39300   -284.76426    18.617911   -266.14635    1346.1162    1249.2174    9.5006873   0.21983556 
   39400   -285.70352    18.145208   -267.55831    1311.9387     1996.216    9.5546153   0.20235615 
   39500   -287.83331    17.586508   -270.24681    1271.5434   -601.18485    9.6029885   0.15304908 
   39600   -289.13906    17.181029   -271.95803    1242.2264   -5094.1285    9.5919689    0.1378157 
   39700   -284.92714     18.02588   -266.90126     1303.311   -1357.5003    9.4734603    0.2487418 
   39800   -285.55802    17.282672   -268.27535    1249.5754   -2104.4169     9.490627   0.20547598 
   39900   -287.32386    15.516968   -271.80689    1121.9111   -2580.5069    9.5734968   0.19207295 
   40000   -287.53079    18.710646   -268.82015    1352.8211   -4106.6093    9.5298539   0.17104431 
   40100    -286.6086    20.063175   -266.54542    1450.6119   -3959.8014      9.51104   0.19450097 
   40200   -288.81103     17.83661   -270.97442    1289.6263    2738.5101    9.6776141   0.14937907 
   40300   -286.86306    15.991664    -270.8714    1156.2327   -14191.604    9.4096401   0.15835655 
   40400   -282.65716    16.046922   -266.61024    1160.2279    8613.4268    9.4643537   0.21377121 
   40500   -286.73531    16.337822   -270.39748    1181.2607    11407.119     9.694887   0.17150968 
   40600   -287.77684    16.547275   -271.22956    1196.4046   -2025.9237    9.5853153   0.17391186 
   40700    -283.3358     16.13553   -267.20027    1166.6345   -11906.495    9.2747837   0.25492702 
   40800   -284.43432    18.212477   -266.22185    1316.8023    512.93225    9.4574582   0.19201923 
   40900   -287.54622    17.671447   -269.87477    1277.6847    11218.919    9.7129356   0.17436701 
   41000   -286.95804    17.189659   -269.76838    1242.8504    4204.1947    9.6340103   0.15685674 
   41100   -286.42128    14.930572   -271.49071    1079.5134   -10002.242    9.4624852   0.18808779 
   41200   -289.13476    14.326948   -274.80781      1035.87   -7962.7818    9.5895587   0.14720963 
   41300   -285.57287    15.053918   -270.51895    1088.4315    -1860.131     9.493279   0.20222412 
   41400   -286.23897    16.457115   -269.78185    1189.8858    3095.1019    9.5649761   0.18980852 
   41500   -285.55679    17.816519   -267.74027    1288.1737    5457.8161    9.5772052   0.16969154 
   41600   -283.41331    17.728276   -265.68503    1281.7936    4628.5854    9.4948214   0.21176743 
   41700   -278.78588    18.193812   -260.59207    1315.4528   -3616.4748    9.1729769   0.32810934 
   41800   -284.53553    17.064502   -267.47103    1233.8012    3169.7938    9.5095535   0.20203031 
   41900   -286.09241    17.063178   -269.02923    1233.7055   -7400.1699    9.4421846   0.18615461 
   42000   -286.94291    17.075767   -269.86714    1234.6157    5385.0454    9.6132904   0.18817073 
   42100   -287.01242    19.094158   -267.91826    1380.5498    5276.8114     9.625988   0.18274656 
   42200   -284.29832    20.425828   -263.87249    1476.8326   -7709.5289     9.349909   0.25045682 
   42300   -287.46108    17.940059   -269.52102    1297.1059   -2229.7266    9.5519222   0.18169129 
   42400   -287.58925    17.296097   -270.29316    1250.5461    1008.3714    9.5974264   0.20733807 
   42500   -284.42995    17.107616   -267.32233    1236.9185   -16733.018    9.2933152     0.254679 
   42600   -284.84508    17.820453   -267.02463    1288.4581   -14426.777     9.303956   0.23659042 
   42700   -289.32994    18.102163   -271.22778    1308.8264    7950.1374    9.7325199   0.14982847 
   42800   -287.55917    17.593146   -269.96602    1272.0234    2999.7803    9.6246363   0.19710036 
   42900   -283.73027    18.349652   -265.38062    1326.7204   -13701.099    9.2726916   0.24426913 
   43000   -285.49168    16.066985   -269.42469    1161.6785    3277.8675    9.5454845   0.20448836 
   43100   -287.81811    17.901728   -269.91638    1294.3345    3793.6691    9.6310076   0.17456171 
   43200   -284.41315    16.959113   -267.45403    1226.1814    9875.8477     9.598133   0.20868634 
   43300   -283.56543     19.37568   -264.18975    1400.9045   -6624.8586    9.3510785   0.26331628 
   43400   -286.14678     16.68391   -269.46286    1206.2836     8766.154       9.6357   0.17251339 
   43500   -288.92302    18.674007   -270.24901     1350.172   -2161.4682    9.6141722   0.16501808 
   43600   -285.23027    18.463992   -266.76628    1334.9874   -1641.6204    9.4721167   0.21978269 
   43700   -283.66541    17.465543   -266.19987    1262.7974    2275.6898     9.417764   0.28439353 
   43800   -286.56355     16.98373   -269.57982    1227.9612   -1564.1503    9.5339681   0.18918811 
   43900   -288.12912    16.448398   -271.68072    1189.2555     5293.027    9.6799774   0.16560547 
   44000     -285.708    18.763591   -266.94441    1356.6491   -4436.3122    9.4669468    0.2155282 
   44100    -285.0776    16.673747   -268.40385    1205.5488   -4293.9642    9.4437712   0.18310219 
   44200   -287.48239     16.02455   -271.45784    1158.6104    6779.8882    9.6856608    0.1601369 
   44300   -286.34431    18.518977   -267.82534     1338.963    5132.7638    9.5983105   0.17033647 
   44400    -285.0322    17.871682   -267.16052    1292.1621   -4120.8532    9.4470659   0.20809496 
   44500   -286.95082     14.93872    -272.0121    1080.1025    3084.3556    9.6273371   0.16163982 
   44600   -287.10093    16.828145   -270.27279    1216.7121    5522.4454    9.6531381   0.15904475 
   44700   -286.78449    20.778026   -266.00647    1502.2973   -1054.6719    9.5378135   0.17210061 
   44800    -287.0688    17.599139   -269.46966    1272.4566    20731.838    9.8045821   0.16269076 
   44900   -288.04487    16.276255   -271.76862    1176.8092   -6705.1539    9.5414423     0.153191 
   45000   -284.78909    17.352973   -267.43611    1254.6584   -6544.1765    9.4091083   0.22766303 
   45100   -284.48632    16.774611   -267.71171    1212.8415    1007.6409    9.4929749   0.22306313 
   45200   -287.57963     16.97933    -270.6003    1227.6431    2200.1179    9.6274003   0.18834211 
   45300    -284.5221    16.118616   -268.40348    1165.4116    6448.9301    9.5445615   0.19536767 
   45400   -282.92114    18.721267   -264.19987     1353.589   -16648.511    9.1844883   0.27330789 
   45500   -285.26311    16.090569   -269.17254    1163.3837   -6287.8989    9.4408128   0.24617246 
   45600   -287.31025    17.844277   -269.46597    1290.1807    9921.8494    9.6695989   0.20948465 
   45700    -284.1469    15.424006   -268.72289    1115.1897    -1671.596    9.4591792   0.21765391 
   45800   -285.33617    19.435526   -265.90065    1405.2315    10732.042    9.6052425   0.17858941 
   45900   -286.80422    17.787094   -269.01712    1286.0462    3102.3822    9.5946104   0.16138278 
   46000   -287.39758    16.214785   -271.18279    1172.3648    1480.5979    9.6131168   0.15108041 
   46100   -286.67276    16.934532   -269.73823    1224.4041   -1900.1561    9.5274153   0.20837025 
   46200    -282.8325     16.04676   -266.78574    1160.2162    1385.9174    9.4117104   0.28894023 
   46300   -282.36616    16.842398   -265.52376    1217.7427   -5205.9613    9.3256195   0.25973772 
   46400   -286.50878    16.806485    -269.7023     1215.146    -4654.174    9.5069141   0.17179191 
   46500   -288.35904    17.175192   -271.18385    1241.8043   -5735.3128    9.5785882   0.18464979 
   46600   -283.99545    17.495762   -266.49969    1264.9823    5123.5049    9.5208591   0.26420798 
   46700   -286.43574    19.453528   -266.98221    1406.5331   -18631.374    9.3442003   0.26347501 
   46800   -289.08354    17.899163   -271.18438    1294.1491   -251.00719    9.6414313   0.16707877 
   46900   -288.47881    18.122228   -270.35658    1310.2772    4167.5296    9.6875314   0.14163017 
   47000   -283.39017    17.046466    -266.3437    1232.4972    3566.0277    9.4525598   0.21388862 
   47100   -286.82803    16.227647   -270.60038    1173.2948   -12069.541    9.4362897   0.17450901 
   47200   -287.57803    16.635716   -270.94231     1202.799    1559.5336    9.6113319   0.17085322 
   47300   -284.89855    17.437278   -267.46127    1260.7538    8984.1517    9.6142527   0.18649486 
   47400   -286.72849    16.411633   -270.31686    1186.5974   -3732.2085    9.5301785   0.16699378 
   47500   -287.88742    14.910003   -272.97742    1078.0262    4815.5347     9.661949   0.16709914 
   47600   -286.74504    18.232574   -268.51247    1318.2555    8568.4391    9.6368588   0.19194411 
   47700   -285.15015    16.021929   -269.12822    1158.4209    10752.867    9.6330691   0.20040113 
   47800   -288.11002    14.818562   -273.29146    1071.4148   -17853.247    9.4331919   0.17756011 
   47900   -287.31888    16.455399   -270.86348    1189.7617   -7302.8106    9.5183896   0.21846256 
   48000   -284.84262    16.580569   -268.26205    1198.8118    1213.6677    9.5009388   0.22617921 
   48100   -285.26359    15.523999   -269.73959    1122.4194    4482.5119    9.5556325   0.20162316 
   48200   -290.61493    17.514759   -273.10017    1266.3558   -12540.378    9.5888936   0.14756532 
   48300   -286.75274    18.471583   -268.28116    1335.5363   -1281.1823    9.5543971   0.20389532 
   48400   -285.03596    17.295676   -267.74028    1250.5156    16757.655    9.6798605    0.1948496 
   48500    -286.0414    15.058612   -270.98279     1088.771   -325.37982    9.5580334   0.21255415 
   48600   -286.81297      16.1665   -270.64647    1168.8737   -14920.027    9.3993032   0.19031506 
   48700   -284.35665    17.949623   -266.40703    1297.7974    4625.9816    9.4946418   0.24954475 
   48800   -286.59618    17.907012   -268.68916    1294.7166   -341.81949    9.5465773   0.17675984 
   48900   -287.78885    16.305197   -271.48365    1178.9018    11633.204    9.7487903   0.16089066 
   49000   -285.56187    17.258126   -268.30374    1247.8006   -3297.1555    9.4882765   0.19666824 
   49100    -283.7144    17.975826   -265.73857     1299.692   -5361.9735    9.3658691   0.22407912 
   49200   -287.46472    17.535909   -269.92881     1267.885    4697.1129    9.6324153   0.17156384 
   49300    -287.2993    17.192865   -270.10643    1243.0822    8162.7778    9.6739312   0.16235582 
   49400   -284.60158    16.950141   -267.65144    1225.5327    2924.0687    9.5057614   0.19736609 
   49500   -282.71786     18.38631   -264.33155    1329.3709    854.97738    9.4050741   0.24639245 
   49600   -287.44972    18.135923   -269.31379    1311.2674   -12920.753     9.428383   0.18476238 
   49700   -286.66329    16.917483    -269.7458    1223.1714   -8238.3941    9.4571729   0.20032029 
   49800   -287.81459    18.359641   -269.45495    1327.4427   -4249.1609    9.5553264   0.17765132 
   49900   -290.41452    16.915068   -273.49945    1222.9968    6891.6801     9.781853    0.1200508 
   50000   -287.86503    14.652693   -273.21233    1059.4221    3785.8099    9.6666402   0.15397308 
   50100      -287.36    17.223747   -270.13625     1245.315   -19341.207    9.3716593   0.18545567 
   50200   -285.67289    16.875606   -268.79728    1220.1437   -2423.1729    9.5072797   0.22204916 
   50300   -286.94165    15.431749    -271.5099    1115.7496    3609.2297    9.6225828   0.17416491 
   50400   -289.78292    16.702561   -273.08036    1207.6321   -2204.2684      9.66174   0.14443064 
   50500    -287.5192    18.431487   -269.08771    1332.6373    945.30861    9.5802424   0.16439674 
   50600   -285.52918    17.303791   -268.22539    1251.1024    11750.856    9.6239883   0.17335716 
   50700   -289.56967    17.126938   -272.44274    1238.3155   -4593.0919    9.6334004   0.15546746 
   50800   -288.65038    16.594285    -272.0561    1199.8035   -5607.1471    9.5865624   0.16023949 
   50900   -285.42222    16.375034   -269.04719    1183.9512   -6266.9304    9.4388543   0.19687747 
   51000   -285.02573    16.867191   -268.15853    1219.5352   -602.48107     9.473946   0.19779381 
   51100   -289.41723    16.102944   -273.31428    1164.2784   -2958.9819    9.6472175   0.14715165 
   51200   -286.62569    16.254391    -270.3713    1175.2285   -12698.649    9.4345816   0.18026568 
   51300   -285.94851    17.490315   -268.45819    1264.5885    3097.9509    9.5492642    0.1904518 
   51400    -285.0372    18.979749   -266.05745    1372.2779     28745.53    9.7783651   0.20462247 
   51500   -284.07714    16.372702   -267.70444    1183.7826   -10735.633    9.3270996   0.26015733 
   51600   -287.34383    15.346389   -271.99744    1109.5779   -1506.0691     9.577131   0.20110301 
   51700   -286.40975    17.837962   -268.57178    1289.7241    540.76114    9.5564187   0.19964586 
   51800   -285.68221    17.184334   -268.49788    1242.4654   -6630.4003    9.4289459   0.20121679 
   51900   -287.90201    14.601486   -273.30052    1055.7198    2004.2198    9.6369823    0.1600938 
   52000    -287.3995    17.300383   -270.09912    1250.8559   -865.62143     9.575784   0.15821817 
   52100   -284.45509    16.277417   -268.17767    1176.8933   -568.65152    9.4605991   0.22092039 
   52200   -287.30229    16.003659   -271.29864    1157.0999   -13511.929    9.4619479   0.20139495 
   52300   -288.05035    15.971968   -272.07838    1154.8086   -4380.0385    9.5965566   0.19073349 
   52400    -285.9717    17.928389   -268.04331    1296.2622    8539.3838    9.6174558   0.19757974 
   52500   -285.56022    17.203092   -268.35713    1243.8216    831.11726    9.5419015   0.18357902 
   52600   -289.81293    17.674178   -272.13875    1277.8821    14104.627     9.827533   0.13416028 
   52700    -287.6162    18.818137   -268.79807     1360.593    9816.9956    9.6803543   0.14767841 
   52800   -285.94008    17.751778    -268.1883    1283.4928   -8381.1379    9.4294173   0.20549255 
   52900   -288.55873    15.694656   -272.86408    1134.7583   -10397.647    9.5284246   0.15118189 
   53000   -288.98107    18.008642   -270.97243    1302.0646   -6647.1354    9.5583924   0.14245726 
   53100   -287.27546    18.177308   -269.09816    1314.2596    2567.9472    9.6252704   0.15834248 
   53200   -288.17309    17.033787    -271.1393    1231.5805    2889.3465    9.6585654   0.16896027 
   53300   -288.10177    14.655982   -273.44579    1059.6599    2334.2727    9.6518654   0.15439678 
   53400   -285.88303    17.625101   -268.25793    1274.3338   -17485.394    9.3408905   0.21208261 
   53500   -284.89558    15.596997   -269.29858    1127.6974    4433.3345      9.55514   0.17331552 
   53600    -287.7575    15.602032   -272.15547    1128.0614    9521.9297    9.7192268   0.15361692 
   53700   -287.84962    16.811191   -271.03843    1215.4863    1573.4025    9.6257283   0.16757797 
   53800   -286.45168    18.748018   -267.70366    1355.5232   -1399.8952    9.5186045   0.21537323 
   53900   -285.32442    16.436812   -268.88761    1188.4179    -4576.307    9.4413618    0.1937378 
   54000   -286.38865    14.188221   -272.20043    1025.8398   -5698.0394    9.4899929   0.18363376 
   54100   -286.55949    15.935418   -270.62407     1152.166   -7683.1625    9.4714661   0.22311538 
   54200   -285.44319    17.921225   -267.52197    1295.7442    2450.8891    9.5006651    0.2188515 
   54300   -284.21422    15.188678   -269.02555     1098.175    10248.546    9.5765163   0.20385312 
   54400   -287.95589    16.745794    -271.2101     1210.758   -13763.891    9.4668877   0.16214472 
   54500   -290.04038    15.878598   -274.16178    1148.0578    546.75517    9.6941787   0.14197039 
   54600   -286.35215    17.741682   -268.61046    1282.7629    8602.5595    9.6289571   0.16712029 
   54700   -286.98101    18.389326   -268.59169    1329.5889    19712.083    9.7905811    0.1769922 
   54800   -287.67048    18.731365   -268.93912    1354.3191    1296.9213    9.6200573   0.18138842 
   54900   -287.74188    14.577568   -273.16431    1053.9904    -12476.37    9.4851892    0.1984232 
   55000   -287.42122    14.868257   -272.55296    1075.0079   -7946.8425    9.5155522   0.18008301 
   55100   -285.36559    15.821886   -269.54371    1143.9574    9888.0228    9.6463956   0.19927564 
   55200   -286.47471    18.542734   -267.93197    1340.6807    6100.5241    9.5971742   0.18783023 
   55300   -283.84667    18.642267    -265.2044    1347.8772   -8384.7036    9.3310369    0.2495181 
   55400   -280.38142    16.702426   -263.67899    1207.6224    -1791.673    9.2569567   0.28405244 
   55500   -284.41637     16.90595   -267.51042    1222.3376   -6236.2514    9.4042424   0.24953045 
   55600   -285.60622    15.993071   -269.61315    1156.3344    4388.3217    9.5690692   0.17904993 
   55700   -288.55065    17.302798   -271.24785    1251.0306   -2712.3093    9.6008927   0.18135106 
   55800   -284.03166    18.235106   -265.79655    1318.4385    -13710.37    9.3005943   0.23542979 
   55900   -285.58741    17.975462   -267.61194    1299.6657    13939.417    9.6722508   0.20571243 
   56000   -287.34374    16.380999   -270.96274    1184.3825    8211.4042    9.6872171    0.1706756 
   56100   -287.73028    18.684562   -269.04571    1350.9352   -5416.6822     9.530773   0.17966582 
   56200    -282.8132    17.466628   -265.34657    1262.8758    134.63447    9.3895621   0.25892654 
   56300   -287.82404    17.502376   -270.32167    1265.4605   -1456.1958     9.579744   0.16296981 
   56400   -287.27839    17.556579   -269.72181    1269.3795    12936.768    9.7281788   0.16192036 
   56500   -285.57325    18.064717   -267.50853     1306.119    19547.976    9.7294715   0.16900581 
   56600   -287.66225     16.10187   -271.56038    1164.2008   -9473.2273    9.4787122   0.19938375 
   56700   -287.42878    15.840382   -271.58839    1145.2946   -13712.502    9.4551438   0.18490214 
   56800   -285.76513    17.677172   -268.08795    1278.0987    4330.1088     9.562607   0.23219753 
   56900   -284.68955    16.022328   -268.66722    1158.4497   -5.5861525     9.472994   0.21266012 
   57000   -289.89807    16.453362   -273.44471    1189.6144    -13957.53     9.554412    0.1487084 
   57100   -285.72416    15.785472   -269.93869    1141.3245    6088.3792    9.5952406   0.17971338 
   57200   -287.14836    18.144399   -269.00396    1311.8802   -1271.5918     9.559342   0.17739347 
   57300   -288.19092    16.137444   -272.05348    1166.7729    4372.9368    9.6599038    0.1511194 
   57400    -288.0243    14.918314   -273.10599    1078.6271   -10068.932    9.5361682   0.17389201 
   57500   -285.34811    16.802724   -268.54539    1214.8741    6093.9538    9.5722077   0.19034287 
   57600   -288.11261    19.736112   -268.37649    1426.9645    24752.568    9.8657691   0.16345455 
   57700   -288.43207    16.871926   -271.56015    1219.8776   -3190.9011    9.5838488   0.16595005 
   57800   -289.57494    14.687203   -274.88774    1061.9173   -13142.057    9.5539053   0.14667402 
   57900   -286.31271    16.635357   -269.67736    1202.7731   -4060.8529    9.4835658   0.19472335 
   58000   -287.53674    18.192808   -269.34393    1315.3803   -6651.9771    9.5170194   0.17674515 
   58100   -286.52058    16.087141   -270.43344    1163.1358    3985.5956    9.5970152    0.1820693 
   58200   -290.09591    16.204381   -273.89153    1171.6126   -13322.168    9.5580395   0.17745145 
   58300   -288.15973    17.265815   -270.89391    1248.3566   -8766.8515    9.5304655   0.16805045 
   58400   -286.54367    17.627423   -268.91625    1274.5017    4136.4277    9.5927959   0.18562547 
   58500   -286.61661    17.300477   -269.31613    1250.8628    4924.6381    9.6089667    0.1518281 
   58600   -288.12201    15.597206    -272.5248    1127.7125   -8250.9921    9.5478403   0.17601742 
   58700   -286.41295    14.417458   -271.99549    1042.4141    11953.226    9.6846196   0.20316971 
   58800   -284.20397    15.084773    -269.1192    1090.6624   -11216.661    9.3497022   0.27128916 
   58900   -285.92491    17.219198   -268.70572    1244.9861    -25889.12    9.2603276   0.19777476 
   59000   -287.54467    15.858647   -271.68602    1146.6153    12433.687    9.7415845   0.17185337 
   59100   -286.94826     18.28416    -268.6641    1321.9852    12344.883    9.7015136   0.17013274 
   59200   -285.77719    18.709715   -267.06748    1352.7538   -3714.9884    9.4748719   0.20476422 
   59300    -289.2171    18.446251   -270.77085    1333.7047    -7531.825    9.5492879   0.14576266 
   59400   -289.17182    18.865571   -270.30625    1364.0225    3416.8009    9.6957053   0.15489636 
   59500   -287.55656    21.540685   -266.01587    1557.4391   -4835.5503    9.5288223   0.18033087 
   59600   -288.04894    17.169585   -270.87935     1241.399    4674.0889    9.6519972   0.16137071 
   59700   -286.72147    15.723935   -270.99754    1136.8753   -10825.379    9.4433865   0.16415568 
   59800   -284.01521    16.902797   -267.11241    1222.1096    3097.1485    9.4831165   0.26667394 
   59900   -284.94881    19.037967   -265.91084    1376.4872    2770.0757    9.5135277   0.19155334 
   60000   -287.14383    16.342799   -270.80103    1181.6205   -4962.3255    9.5165359    0.1641282 
   60100   -287.42206    17.415509   -270.00655    1259.1798   -7173.3254    9.5214426   0.17949875 
   60200   -284.66333    19.065174   -265.59816    1378.4542    2562.4448    9.5112895   0.21706397 
   60300   -287.42636    18.646822   -268.77954    1348.2065    2723.8362    9.6210171   0.20009497 
   60400   -285.65527    14.993572   -270.66169    1084.0684   -6660.3992    9.4572312   0.23994847 
   60500   -285.08377    16.545186   -268.53858    1196.2536   -11463.275    9.3768344   0.22192736 
   60600   -286.24493    16.284389   -269.96054    1177.3974   -3971.0798    9.5095183   0.22003645 
   60700   -289.81396    16.400434   -273.41352    1185.7877    3003.3463    9.7215894   0.15082114 
   60800   -285.83191    17.081101   -268.75081    1235.0014    1340.3136    9.5361944   0.18771833 
   60900   -284.96592    16.521647   -268.44427    1194.5516   -4125.0175    9.4356639   0.24966199 
   61000   -286.56423     18.94042   -267.62381    1369.4342    9859.7559      9.65815   0.19494372 
   61100   -288.48984    16.026721   -272.46312    1158.7674    1326.1835    9.6526057   0.14978692 
   61200   -285.36225     16.37989   -268.98236    1184.3023   -5643.9121    9.4309884   0.19183064 
   61300   -285.71103    16.925071   -268.78596    1223.7201   -3927.0841    9.4563589   0.21097835 
   61400   -288.37147    15.718097   -272.65337    1136.4532    8385.3939    9.7255549    0.1485627 
   61500   -288.55088    17.400524   -271.15035    1258.0963    3357.9919     9.680375   0.14742957 
   61600   -285.58383     17.57198   -268.01185     1270.493   -8910.1257    9.4137097   0.19856217 
   61700   -286.79991    16.102038   -270.69787     1164.213   -9168.3022    9.4822148   0.18473476 
   61800   -287.42504    15.098072   -272.32696     1091.624    -1007.064    9.5885835   0.16752628 
   61900    -284.9798    18.068628   -266.91117    1306.4017    -1216.625    9.4788119   0.19324046 
   62000    -286.6605    17.473987   -269.18651    1263.4079    4965.6785    9.5968207   0.17761547 
   62100   -287.17196    15.913602   -271.25836    1150.5886   -3674.6772    9.5364276   0.19152637 
   62200    -284.1798    17.272367   -266.90744    1248.8304    -5048.917     9.442329   0.18981532 
   62300   -287.80235    17.703571   -270.09878    1280.0073    3219.5218    9.6469252    0.1732038 
   62400   -287.66095    16.371499   -271.28945    1183.6956     1298.033    9.6309979    0.1921466 
   62500   -285.42907    18.352386   -267.07669    1326.9181   -1704.7749    9.4866945   0.23660283 
   62600   -285.31809    17.018411   -268.29968    1230.4688   -5756.9075    9.4388211   0.22113544 
   62700    -286.7479    14.539595   -272.20831    1051.2448    7625.5907    9.6669339   0.17987538 
   62800   -286.65136    17.502675   -269.14869    1265.4822   -4980.9627     9.491185   0.20359586 
   62900   -283.77861    15.802584   -267.97603    1142.5618   -6430.8819    9.3500424   0.22832867 
   63000    -286.5427    14.450364   -272.09233    1044.7933     -4549.84    9.5196458   0.20708507 
   63100   -286.95785    17.048361   -269.90949    1232.6342   -1186.7021    9.5410969   0.19970856 
   63200   -286.49252    18.677257   -267.81526     1350.407    758.50383     9.543696   0.21676317 
   63300   -284.58192     17.32348   -267.25844     1252.526    12192.561    9.6179688   0.18653985 
   63400   -288.63243    15.906424     -272.726    1150.0696    8062.1757    9.7311197   0.14691554 
   63500   -288.68643    17.353868   -271.33257     1254.723   -10881.825    9.5278122   0.17931221 
   63600   -287.08785    18.536598   -268.55125    1340.2371   -5216.9161    9.5150222   0.16979728 
   63700   -286.78196    16.299834   -270.48213    1178.5141    7049.2169    9.6558277   0.18669036 
   63800   -289.68725    16.663272   -273.02398    1204.7914   -2040.0583    9.6512026   0.14575561 
   63900   -284.93095     16.80895     -268.122    1215.3243   -2326.2664    9.4676472   0.22337658 
   64000   -284.43231    15.781208   -268.65111    1141.0162   -5317.6638    9.4032718   0.22862902 
   64100    -286.7909    15.248531   -271.54237    1102.5025   -564.05087    9.5674526   0.17536929 
   64200   -288.66122    16.260838   -272.40038    1175.6945    6106.2744    9.7210125   0.13683092 
   64300   -285.57913    17.779449   -267.79968    1285.4935    8591.9102    9.6142085   0.16291555 
   64400   -288.14413    18.490024   -269.65411    1336.8696   -2305.9044    9.5787524   0.15073316 
   64500   -287.68471    14.294856   -273.38986    1033.5497   -1478.2467    9.5878066   0.15841927 
   64600   -284.51765    15.219051    -269.2986    1100.3711   -19682.974    9.2674816   0.26705897 
   64700   -285.36854     16.79421   -268.57433    1214.2585    2294.9324    9.5070839   0.19202698 
   64800   -286.20143    16.946142   -269.25528    1225.2435    13355.484    9.6551347   0.17115278 
   64900   -286.25166    17.312465   -268.93919    1251.7295   -7467.7994    9.4730752   0.16104603 
   65000   -289.40869    15.326367   -274.08233    1108.1303   -7374.9928    9.5994251   0.16006934 
   65100   -288.08362    17.016366   -271.06725    1230.3209   -11524.433    9.4846705     0.192417 
   65200   -288.65646    19.495791   -269.16067    1409.5888    462.28117    9.6377523   0.17066855 
   65300   -288.89711    19.397076   -269.50003    1402.4515    11480.089    9.7828433   0.14854898 
   65400   -289.42883    17.027074   -272.40176    1231.0951   -2307.1003     9.644549   0.14580408 
   65500   -284.01982    16.279473   -267.74035    1177.0419   -17935.822    9.2663531   0.22210593 
   65600    -282.9805    15.100885   -267.87962    1091.8274    6987.1996     9.484553    0.2199605 
   65700   -288.46022    17.450314    -271.0099    1261.6963    346.27185    9.6392973   0.18919037 
   65800   -287.20016    17.104045   -270.09611    1236.6603   -537.73213    9.5625674   0.17320945 
   65900   -283.15452    18.253134   -264.90139     1319.742   -4302.6488    9.3213402   0.29469817 
   66000   -286.00578    17.599431   -268.40635    1272.4778    -974.3612    9.5276625   0.18804407 
   66100   -287.09609     16.94092   -270.15517     1224.866    4563.7222    9.6318777    0.1585157 
   66200   -286.00804    17.244416   -268.76363    1246.8094    4401.9621    9.5742497   0.20754669 
   66300     -282.512    15.868066   -266.64394    1147.2962   -16463.559    9.2192504    0.2763449 
   66400   -287.87279    16.437015   -271.43578    1188.4326   -4241.0905    9.5707299   0.15909969 
   66500    -287.9418    16.801271   -271.14053     1214.769    6752.5096    9.6905888   0.17224145 
   66600   -286.24798    18.296172   -267.95181    1322.8537    4174.0135     9.587096   0.18372438 
   66700   -285.31778    15.428607   -269.88917    1115.5224    8969.0736    9.6266331   0.19469638 
   66800   -288.34536    14.802512   -273.54285    1070.2543   -9759.5986    9.5330437   0.15831229 
   66900   -287.26137    17.807726   -269.45364     1287.538   -2020.3566    9.5505506   0.17505122 
   67000   -285.25037    15.702856   -269.54751    1135.3512   -2672.1773    9.4809726   0.20692298 
   67100   -288.36976    15.056781   -273.31298    1088.6386    -2336.541    9.6186005   0.17219926 
   67200   -286.96174    16.534363   -270.42738     1195.471    13386.757    9.7323394   0.17441534 
   67300   -286.11008    17.576801   -268.53328    1270.8416   -14679.729    9.3693268   0.23214912 
   67400    -287.3798    17.434048   -269.94575    1260.5202    -11807.07    9.4596474   0.17978616 
   67500    -288.3882    14.756901    -273.6313    1066.9566    15499.859    9.8074358   0.16302801 
   67600   -284.63148    15.487757   -269.14372    1119.7991   -3405.5555      9.43145   0.22214203 
   67700   -286.07852    17.905763   -268.17276    1294.6263   -1543.9783    9.5242863   0.19793966 
   67800   -287.12309    16.881971   -270.24112    1220.6039    3128.7437    9.6263094   0.19632514 
   67900   -288.79957     14.97409   -273.82548    1082.6598   -6425.5231    9.5808194   0.15881112 
   68000   -287.87724    16.522334   -271.35491    1194.6013   -2112.5749    9.5664717   0.16579356 
   68100   -285.42121    16.637672   -268.78354    1202.9405    7198.8301    9.5758517   0.18424321 
   68200   -286.51187    16.743657   -269.76822    1210.6035    7013.8352    9.6389737   0.18170348 
   68300   -288.91921    15.804032   -273.11518    1142.6664    -5727.382    9.5938762   0.13453663 
   68400   -287.71443    14.587509   -273.12692    1054.7092   -3556.7076    9.5762861   0.15560172 
   68500    -287.8496    18.504442   -269.34516    1337.9121   -7848.6503    9.5059031   0.18332346 
   68600   -287.11293    17.392314   -269.72062    1257.5028    11515.065    9.7112002   0.16560975 
   68700   -288.55428    17.324961   -271.22932     1252.633    6591.9093    9.7122063   0.15811198 
   68800   -289.28757    14.169925   -275.11764    1024.5169   -3325.5888    9.6369597   0.14665928 
   68900   -288.93281    14.973277   -273.95954     1082.601     840.3984    9.6435538    0.1721693 
   69000   -288.08564    16.966158   -271.11948    1226.6907   -14137.233    9.4762764   0.19617577 
   69100   -286.67466       16.595   -270.07966    1199.8552   -5448.1334    9.5062858   0.17108581 
   69200   -285.26616    16.138595   -269.12757    1166.8561    3434.2155    9.5504897   0.21833024 
   69300   -283.56958    19.541745   -264.02784    1412.9114    -5655.406     9.352817   0.23265769 
   69400   -286.36949    18.888573   -267.48091    1365.6856   -18252.205     9.344748   0.23760337 
   69500   -286.52693    17.334966   -269.19196    1253.3564   -5889.7391    9.5020427   0.19957647 
   69600      -287.39    17.779126   -269.61088    1285.4701    15619.521    9.7695772   0.16425153 
   69700   -288.41944    20.994691   -267.42474    1517.9626    3245.1798    9.6436414   0.14616756 
   69800   -284.05195    21.732175   -262.31977    1571.2843   -771.26676    9.4024402   0.24415109 
   69900    -285.3924    18.013563   -267.37884    1302.4205    1497.4649    9.5171016   0.20756604 
   70000   -284.93428    15.583117   -269.35116    1126.6939    2395.5554     9.537855   0.19017208 
   70100   -287.98003    17.579734   -270.40029    1271.0537    14588.049    9.7640378   0.15422587 
   70200   -286.26709    19.947511   -266.31958    1442.2492    4270.2237    9.5911597   0.17274272 
   70300   -285.53944    19.340056   -266.19938    1398.3288    4057.8821    9.5458289   0.19502015 
   70400   -287.44283    17.513955   -269.92888    1266.2977   -1302.5476    9.5675651   0.16611625 
   70500   -286.13201    16.285183   -269.84683    1177.4547   -5594.7534    9.4816794   0.17066429 
   70600   -284.98512    18.759663   -266.22546    1356.3651   -2279.3871    9.4703791   0.21309871 
   70700   -284.42351    19.581268   -264.84224     1415.769    8033.7586    9.5448954   0.23432057 
   70800   -286.62228     16.55098    -270.0713    1196.6725    1744.1286    9.5714571   0.15964554 
   70900   -286.06373    15.466444   -270.59729    1118.2581   -7799.0344    9.4745078   0.20502093 
   71000   -283.99038     16.48526   -267.50512    1191.9208    5393.5222    9.5035978   0.21999363 
   71100   -284.17884     18.73054    -265.4483    1354.2595   -1074.4581    9.4227718   0.20713188 
   71200   -286.79322    15.946597   -270.84663    1152.9742    6355.6708    9.6278223   0.14736448 
   71300   -286.59624    16.749531   -269.84671    1211.0282    223.41686    9.5613174   0.18347779 
   71400   -284.13337    16.845695   -267.28767     1217.981   -2390.2301    9.4209837   0.24064372 
   71500   -283.63602    17.790245   -265.84577    1286.2741   -15103.524    9.2816808   0.20614021 
   71600   -289.65869    19.434185    -270.2245    1405.1346   -8971.2915    9.5539013   0.15962639 
   71700    -287.5645     17.61892   -269.94558    1273.8869    4815.3428    9.6501544   0.19520443 
   71800   -282.25239    15.844538   -266.40785    1145.5951    3268.1139     9.415545   0.25260308 
   71900   -283.27512    17.258279   -266.01684    1247.8117   -8493.0464    9.3356682   0.22736263 
   72000   -286.56426    16.315849   -270.24841     1179.672    11177.328    9.6763222   0.19337047 
   72100   -285.93431    16.889796   -269.04451    1221.1696    6235.1928    9.5967248   0.16285364 
   72200   -285.94537    17.701546   -268.24382     1279.861    5118.7609    9.5930479   0.22309677 
   72300   -282.87177    19.436808   -263.43496    1405.3242   -8114.1606    9.2905732   0.25716739 
   72400   -284.29342    17.755709   -266.53771    1283.7771   -1011.8695    9.4397078   0.19835291 
   72500    -286.4376    16.272237   -270.16537    1176.5187    10150.224    9.6575612   0.18206757 
   72600   -287.79387    18.335549   -269.45832    1325.7007   -20985.498    9.3746865   0.20492343 
   72700   -282.74249     17.84496   -264.89753    1290.2301    2380.5805    9.4140497   0.24820861 
   72800   -286.28285    17.464416   -268.81843    1262.7159    13439.759     9.664072   0.18646607 
   72900   -287.02798    16.801637   -270.22634    1214.7955   -11230.068    9.4342773   0.18838893 
   73000   -284.28218    16.119532   -268.16265    1165.4779   -2871.0065    9.4258881   0.22674227 
   73100   -282.72275    17.264858   -265.45789    1248.2874   -1972.1487    9.3740127   0.25525074 
   73200   -288.32478    17.605265   -270.71952    1272.8996    6492.8706     9.701085   0.15282436 
   73300   -289.13607    18.956149   -270.17992    1370.5715    15856.104    9.8293217   0.13041365 
   73400   -287.21231    18.234185   -268.97812    1318.3719    16318.398    9.7593235   0.17553365 
   73500    -283.3682    17.586057   -265.78214    1271.5108   -7934.0443    9.3318723    0.2261519 
   73600    -285.6921    15.048666   -270.64343    1088.0518   -6212.8948    9.4418472   0.20730398 
   73700   -287.22453    16.446979   -270.77755     1189.153    892.70297    9.5987644   0.18439525 
   73800   -285.24111    17.735727   -267.50538    1282.3323    247.74686    9.5091231   0.22909112 
   73900   -284.73957    16.357131   -268.38244    1182.6567   -5733.6952    9.4191847    0.2320689 
   74000   -289.28323    17.475304   -271.80792    1263.5031    2439.3599    9.6634694   0.15318185 
   74100   -285.99861    17.150311    -268.8483    1240.0054    6220.9865    9.5873585   0.19013381 
   74200   -283.34085    16.585787   -266.75506    1199.1891   -4403.5982    9.3598354   0.23399576 
   74300   -285.00328    14.012435   -270.99084    1013.1301   -2608.0627    9.4728219   0.18010412 
   74400     -287.984    16.571713   -271.41228    1198.1715   -3720.1268    9.5493162    0.1589132 
   74500   -283.41717    17.288025   -266.12915    1249.9625    13295.439    9.5552603   0.24242834 
   74600   -285.55486    18.071065    -267.4838    1306.5779    10425.991    9.6452522   0.19448545 
   74700   -288.08041    17.208757   -270.87165    1244.2312   -12402.175    9.4627589   0.17809547 
   74800   -287.29009    19.055157   -268.23493      1377.73    1585.6448    9.5903549   0.17389356 
   74900   -284.49362    19.209146   -265.28448    1388.8637    2891.1023    9.4845215    0.1920438 
   75000   -286.45746    15.790679   -270.66678     1141.701   -3122.5663    9.5184764   0.19182871 
   75100   -284.96756    14.908213   -270.05934    1077.8968   -5062.6584    9.4329352   0.20629337 
   75200    -284.6005    16.294648   -268.30585    1178.1391    5303.0531    9.5348344   0.20419831 
   75300   -286.15419    20.657007   -265.49719    1493.5473   -6973.2269    9.4519931   0.21690108 
   75400   -286.09067    20.630628   -265.46004      1491.64    80.477236    9.5276183   0.17247344 
   75500   -287.61124    17.816153   -269.79509    1288.1473    6112.3699     9.662631   0.17379186 
   75600   -287.77055    17.779647   -269.99091    1285.5078   -9796.2203    9.4847187    0.1877706 
   75700   -286.05393    15.615516   -270.43842    1129.0364   -898.09553     9.514063   0.21813542 
   75800   -287.00282    15.113275   -271.88955    1092.7232    -11643.48    9.4490857   0.21434253 
   75900   -288.86775    13.805852    -275.0619    998.19364   -6333.8629     9.605682   0.17228009 
   76000   -288.97188    17.849262   -271.12261    1290.5411    1315.4143    9.6679589   0.15353212 
   76100   -287.80551    18.350859   -269.45465    1326.8077     10968.41    9.7179797   0.16837868 
   76200   -285.63725    18.157324   -267.47992    1312.8147    -2311.482    9.4692733    0.2055984 
   76300   -283.38442    18.115238   -265.26918    1309.7718   -4935.6436    9.3185818   0.27332001 
   76400   -285.56813    14.177932   -271.39019    1025.0959    12499.298     9.677564   0.19196645 
   76500   -285.92696    15.423586   -270.50338    1115.1594   -3810.0691     9.489687    0.2082263 
   76600   -284.52425    16.693695   -267.83055     1206.991   -6037.1498    9.4080762   0.25019669 
   76700   -282.49052    14.168505   -268.32202    1024.4142   -1090.3169    9.3887109   0.33150049 
   76800   -288.77877     15.83275   -272.94602    1144.7429   -1591.5082    9.6426409   0.16386374 
   76900    -288.4569    17.811047   -270.64585    1287.7781    4176.3715    9.6806776   0.13661948 
   77000   -285.26302    16.794494   -268.46853    1214.2791    8112.2508    9.5916584   0.20415836 
   77100   -283.13996    17.375539   -265.76442    1256.2899    1936.0793    9.4183801   0.20902364 
[...]
  481400   -286.29503    15.934334    -270.3607    1152.0876    6351.2933    9.5911224   0.18680402 
  481500   -287.91493    16.637346   -271.27758    1202.9169   -7687.7181    9.5290482   0.16451738 
  481600   -286.68926    19.071789   -267.61747    1378.9325    2819.6543     9.582816    0.1684605 
  481700   -284.45477    18.268514   -266.18625     1320.854    30344.981    9.7970897   0.24890146 
  481800   -282.70834    19.480524   -263.22782     1408.485   -298.54488    9.3826873   0.26755111 
  481900   -286.68007    17.511638   -269.16844    1266.1301   -2628.8597     9.523814    0.1961705 
  482000    -287.6017    18.265618   -269.33608    1320.6446    2691.7957    9.6179741   0.18581013 
  482100   -288.21946    19.298755    -268.9207    1395.3427    11177.481    9.7363526   0.18199489 
  482200   -284.39791    18.347409    -266.0505    1326.5582    2500.4619    9.5123989   0.19753669 
  482300   -284.59483    16.867941   -267.72689    1219.5895   -9208.5676    9.3546408   0.21185391 
  482400   -285.23368    14.723675      -270.51    1064.5543     3661.779    9.5599623   0.17994757 
  482500   -287.26543    17.062346   -270.20308    1233.6453   -6757.7222    9.4919933   0.20395754 
  482600   -284.49267    17.935609   -266.55706    1296.7842   -9116.5771    9.3807363   0.27069789 
  482700   -280.83587     17.26503   -263.57084    1248.2998    12707.143    9.4704443   0.25209119 
  482800   -286.53371    18.371941   -268.16177     1328.332    14211.671    9.6949438   0.21337647 
  482900   -285.38437    15.855881   -269.52849    1146.4153   -6460.3701    9.4561873   0.16729794 
  483000   -287.81009    17.493813   -270.31628    1264.8414   -18604.334    9.3971883   0.17469668 
  483100   -288.70557    14.479288   -274.22628    1046.8846   -367.18867     9.664968   0.19310859 
  483200   -285.61392    14.704736   -270.90919    1063.1849    2399.2501    9.5672964   0.23031408 
  483300   -286.18349    17.884208   -268.29928    1293.0678   -1576.1776    9.5216603   0.19727862 
  483400   -285.69902    15.091686   -270.60734    1091.1623   -12840.777    9.3816782   0.21463368 
  483500   -286.72677     18.21731   -268.50946    1317.1518   -9536.9787    9.4609827   0.19630688 
  483600   -282.10109      16.7214   -265.37969    1208.9942    20741.933    9.6223013   0.19772074 
  483700     -287.107    16.791531   -270.31546    1214.0648     5938.361    9.6452932   0.17640416 
  483800   -285.03348    14.923311   -270.11017    1078.9884   -1924.9495    9.4897531   0.21244657 
  483900   -285.68435    19.522025   -266.16233    1411.4856   -8286.2816    9.4174163   0.20333568 
  484000   -286.99096    17.264041   -269.72692    1248.2284    5206.1471    9.6184175    0.1606747 
  484100   -287.30314    15.857731   -271.44541     1146.549    10947.865    9.7173582   0.17802222 
  484200   -284.63234    17.287886   -267.34445    1249.9524   -2657.8811     9.456311   0.20752569 
  484300   -285.67943    15.866722   -269.81271    1147.1991    4729.6031    9.5847321    0.2176698 
  484400   -287.90643    16.029813   -271.87662     1158.991     -12758.1    9.4823936   0.18149355 
  484500   -284.63658    14.393739   -270.24284    1040.6992   -5681.6748    9.4237094   0.25106125 
  484600   -285.22225    17.460286   -267.76196    1262.4173    10432.398    9.6173139   0.18547932 
  484700   -288.00404    19.210999   -268.79304    1388.9977    8213.3218    9.6909376   0.17101468 
  484800   -285.81465    15.964872   -269.84978    1154.2955   -9016.8277    9.4356485   0.23305052 
  484900   -282.47382    16.664272   -265.80955    1204.8637    4807.4527     9.429322   0.25269122 
  485000   -283.30744    18.037922   -265.26952    1304.1817    3420.1149    9.4587111   0.25018225 
  485100   -287.06703    17.709161   -269.35787    1280.4115   -6560.6108     9.507848   0.19202668 
  485200   -288.71144    18.795914   -269.91552    1358.9861   -7808.4724    9.5393752   0.17760448 
  485300   -284.71902    19.234572   -265.48445    1390.7021     9823.954    9.5677644    0.1946371 
  485400   -285.22512    18.731051   -266.49406    1354.2964    10851.954    9.6086278   0.21281633 
  485500   -287.73814    17.598633   -270.13951    1272.4201    9388.5168    9.7254962   0.17973131 
  485600   -288.88942    19.130601   -269.75882    1383.1847    25.307715    9.6391464   0.16820224 
  485700   -283.91835    18.463342   -265.45501    1334.9405    2497.4016    9.4603955   0.20548195 
  485800   -284.73841    16.394029   -268.34438    1185.3245   -5494.3663    9.4097219   0.17583619 
  485900   -286.94197    15.894737   -271.04723    1149.2247   -8034.0441    9.4854321   0.18382264 
  486000   -285.40085    16.623607   -268.77724    1201.9236    2322.8475     9.554045   0.21385183 
  486100   -284.12348    17.893601   -266.22988     1293.747    8818.9152    9.5447345   0.22325281 
  486200    -284.5622    13.263146   -271.29905    958.95483    649.43072    9.5128252   0.19852685 
  486300   -287.62128    17.470811   -270.15047    1263.1783   -6996.5423    9.5040026   0.17182354 
  486400   -285.67689    19.538659   -266.13823    1412.6883    7433.3865    9.5846309   0.21807337 
  486500   -286.62503    16.979277   -269.64576    1227.6393    6730.7289    9.6477214   0.19874524 
  486600   -288.12661    16.798447   -271.32816    1214.5649   -3034.9988    9.5833317   0.17735965 
  486700   -284.80175    15.886109   -268.91564    1148.6008    -5842.353    9.4366284   0.23088685 
  486800   -285.98608    19.262446   -266.72363    1392.7174    -17425.64    9.3262111    0.2164882 
  486900   -289.13888    17.934658   -271.20422    1296.7154    10539.078    9.7715838   0.14263331 
  487000   -288.93644    18.682742    -270.2537    1350.8036    6116.6609    9.7000485   0.14505083 
  487100   -285.62819    19.116543   -266.51164    1382.1683   -9278.1666     9.405231    0.1991471 
  487200   -288.04268    17.389912   -270.65277    1257.3291   -8668.5386    9.5277532   0.16118402 
  487300   -287.57488    16.919305   -270.65558    1223.3032    17864.402    9.8049959   0.14063347 
  487400    -285.7365    18.978027   -266.75848    1372.1533    20851.579    9.7233891   0.16150168 
  487500     -284.874    15.230391   -269.64361    1101.1909   -9080.9914    9.4168802   0.19636712 
  487600   -287.90305    15.321609   -272.58144    1107.7862   -6041.4509    9.5477292   0.18847743 
  487700   -287.04565    18.375322   -268.67032    1328.5764    534.02664    9.5729003   0.18058471 
  487800   -285.42184    16.823128   -268.59871    1216.3494    6866.5806    9.5771694   0.19553453 
  487900   -288.45092    15.756297   -272.69462    1139.2151   -5862.0201    9.5613548   0.16212316 
  488000    -286.9043    16.973893   -269.93041      1227.25    3615.2731    9.6055561     0.178931 
  488100   -285.08194    17.436691   -267.64525    1260.7113     9320.345    9.5916044   0.18783452 
  488200   -287.90794    17.002202   -270.90574    1229.2968    3460.7653    9.6468512   0.17777106 
  488300   -288.26073    16.340998   -271.91973    1181.4903   -10411.293     9.534593   0.18138323 
  488400   -286.16085    19.266983   -266.89387    1393.0455    -3609.499    9.4744515   0.19269141 
  488500   -287.08842    19.542277   -267.54614    1412.9498     6156.067    9.5988688   0.18553538 
  488600   -288.44021     16.66334   -271.77687    1204.7963    9837.7031    9.7510359   0.15514775 
  488700   -287.34307    16.810076   -270.53299    1215.4057   -5037.6938    9.5518439   0.17510291 
  488800   -283.93242    16.076494   -267.85592    1162.3661    7069.0954    9.5413412   0.21196778 
  488900   -284.21996    13.436542   -270.78342    971.49169    9.0691367    9.4882126   0.22447467 
  489000   -287.57614    14.805237    -272.7709    1070.4514   -10632.943    9.5037577   0.20776767 
  489100   -283.81594      16.6228   -267.19314    1201.8652    4141.1716    9.4646415   0.25092867 
  489200   -287.75006    19.508413   -268.24164    1410.5014   -2755.4812    9.5670927    0.1534652 
  489300   -287.87493    18.005106   -269.86983     1301.809     2775.296      9.63995   0.16739182 
  489400   -286.90393    17.869643   -269.03429    1292.0147    5535.6451    9.6142822   0.22247366 
  489500   -281.28329    17.262515   -264.02077     1248.118   -8977.6032    9.2344222   0.31055427 
  489600   -284.86236    16.322804   -268.53956    1180.1748   -3499.2254    9.4507847    0.1878187 
  489700   -287.04762    16.707121    -270.3405    1207.9618    13376.626    9.7007466   0.15486253 
  489800   -287.28366    18.756172   -268.52749    1356.1127     9344.229    9.6921726   0.17580085 
  489900   -282.67569      16.4101   -266.26559    1186.4865   -2881.3807    9.3927464   0.27299716 
  490000   -288.18444    16.583344   -271.60109    1199.0125   -14507.547    9.4685112   0.20302847 
  490100   -286.73216    16.774831   -269.95733    1212.8574    9807.2204    9.6856294   0.19411295 
  490200   -285.32246    18.332709   -266.98975    1325.4954    2161.4766    9.5494285    0.1925194 
  490300   -286.28659    15.818249   -270.46834    1143.6944    15459.336    9.7193825   0.19876415 
  490400   -288.19632    15.237508   -272.95882    1101.7056   -1137.2041    9.6380015   0.20165276 
  490500   -285.40651    16.989698   -268.41681    1228.3928   -9475.3785    9.4075827   0.25181888 
  490600   -283.89912    15.460204   -268.43892    1117.8069    -6717.207    9.3911979    0.2513471 
  490700   -289.13988    18.767168   -270.37271    1356.9077   -3635.5228    9.6011943   0.15200651 
  490800   -288.50612    15.671274   -272.83484    1133.0678   -101.79712    9.6592973   0.15100145 
  490900   -285.99666    17.637128   -268.35953    1275.2033    368.61882    9.5284528    0.2194768 
  491000   -286.33533    18.389334     -267.946    1329.5895    13120.799      9.67108   0.17888414 
  491100   -288.29092    16.363957   -271.92696    1183.1503   -13967.971    9.4849493   0.14855348 
  491200   -286.12928    17.313457   -268.81582    1251.8012   -10861.089     9.417339   0.19884962 
  491300   -285.97729    19.595882   -266.38141    1416.8256    4484.0159    9.5580518   0.19782756 
  491400   -287.50598    16.636244   -270.86974    1202.8372    11240.436    9.7203294   0.15770233 
  491500   -287.68228     17.28418    -270.3981    1249.6844   -4616.3376    9.5507671   0.17017078 
  491600   -282.80747     16.97822   -265.82925    1227.5629    4787.0186    9.4327838   0.23120105 
  491700    -286.3328    17.247411   -269.08539     1247.026   -1785.7387    9.5332618   0.17927928 
  491800   -287.67048    16.628533   -271.04194    1202.2797    30562.129    9.9322946   0.14324637 
  491900   -284.45461    17.146572   -267.30803    1239.7351   -164.75863    9.4883224   0.19197207 
  492000   -285.32001    16.475143   -268.84487    1191.1892   -7384.4771    9.4014643   0.21438369 
  492100   -287.54906    15.694398   -271.85466    1134.7397    620.96181    9.6037345   0.17106583 
  492200   -289.24628    19.650367   -269.59592     1420.765   -5858.8691    9.5621631   0.15782026 
  492300   -284.17201    17.266889   -266.90512    1248.4342    559.10201    9.4564295   0.21158565 
  492400   -287.46095    18.267819   -269.19313    1320.8037   -12711.182     9.452819   0.19179669 
  492500   -287.48946    15.102356    -272.3871    1091.9337    13234.367    9.7460133   0.16577192 
  492600    -286.6423    18.718301   -267.92399    1353.3746   -2967.0021    9.5047493   0.17444359 
  492700   -285.78531     17.68031     -268.105    1278.3255   -15684.883    9.3420022   0.20952227 
  492800   -288.67251    17.456396   -271.21611    1262.1361   -9780.0579    9.5281511   0.16429732 
  492900   -288.61992    18.507547   -270.11237    1338.1366    15667.152    9.8038962   0.13751887 
  493000    -285.6779    20.965074   -264.71283    1515.8212     14632.55    9.6421882   0.20071384 
  493100   -285.81907    17.201103   -268.61797    1243.6778    3299.8396    9.5499395   0.24281749 
  493200   -286.17352    15.758302   -270.41522    1139.3601   -7434.6954    9.4690761   0.20933013 
  493300   -286.34171    17.889855   -268.45185    1293.4761    -13960.08    9.4133019   0.19953043 
  493400   -284.45809    19.279753   -265.17834    1393.9688     -4307.02    9.4295007   0.21951137 
  493500   -288.21585    18.356023   -269.85983    1327.1811    12964.543    9.7529327   0.14890542 
  493600   -287.46523    17.707332    -269.7579    1280.2793    1201.1125     9.605495   0.18191832 
  493700   -285.11074    18.440383   -266.67036    1333.2805    3.6867079    9.5017685   0.21308583 
  493800   -285.14692    17.953146   -267.19377    1298.0522    6809.8164    9.5322169   0.22323239 
  493900   -288.97372    17.199938   -271.77378    1243.5936   -5174.5288    9.5833626   0.15328672 
  494000   -286.45134    16.316287   -270.13505    1179.7036   -7759.4314    9.4801582   0.21201393 
  494100   -285.17628    18.367388   -266.80889    1328.0028   -10758.874    9.3858894   0.20604849 
  494200   -286.64999    16.078667   -270.57132    1162.5232    11819.627    9.7214328   0.19752104 
  494300   -288.85449    18.089743   -270.76475    1307.9284    6165.2916    9.7353899   0.14525918 
  494400    -284.4243    18.083594    -266.3407    1307.4838   -8446.3885    9.3743899   0.21815374 
  494500   -284.58809     15.94671   -268.64138    1152.9824    7525.0073    9.5631246   0.18662456 
  494600   -288.72304    18.002713   -270.72033     1301.636    3979.6798    9.6638673   0.12802086 
  494700   -288.38845    19.855315   -268.53313    1435.5832    2426.2045    9.6449253   0.14714661 
  494800   -284.09997    18.789039   -265.31093    1358.4891    15931.743    9.6196712   0.23799134 
  494900   -286.31351     16.30191    -270.0116    1178.6641    22400.615    9.7808125   0.15167214 
  495000   -286.36804    15.040889   -271.32715    1087.4895   -10809.712    9.4366801    0.2072188 
  495100   -285.52758    16.270882    -269.2567    1176.4207   -7066.0563    9.4296491   0.18804243 
  495200   -286.69418    16.786502   -269.90768    1213.7012   -1171.5288    9.5394132   0.18108863 
  495300   -289.00034    14.859735   -274.14061    1074.3917    11122.834    9.7798383     0.132509 
  495400   -286.65364    16.620624   -270.03302    1201.7078    2562.8514    9.5872193   0.20160193 
  495500   -283.87115    15.080532   -268.79062    1090.3559    -595.5563    9.4615747   0.23436542 
  495600   -285.56076    16.191752   -269.36901    1170.6995   -13667.185    9.3480257   0.20255669 
  495700    -289.4056    15.684244   -273.72136    1134.0055    5899.7925    9.7312898    0.1558377 
  495800   -287.72569    18.019268   -269.70643    1302.8329    4656.8754    9.6459316   0.17271426 
  495900    -286.5399    18.639941   -267.89996     1347.709   -8590.7449    9.4540983   0.18221765 
  496000   -288.49144    16.920656   -271.57078    1223.4009    15367.163      9.79492   0.15179147 
  496100   -288.94878    17.656778     -271.292    1276.6241    19638.091    9.8615356   0.14061035 
  496200   -285.82162    17.906865   -267.91476    1294.7059   -8319.5655    9.4511372   0.20975176 
  496300   -287.51849    18.032929   -269.48557    1303.8206    -15484.18    9.4112747   0.19119518 
  496400    -288.4442    15.208322   -273.23588    1099.5953   -9209.6601     9.552097   0.15164796 
  496500   -285.24793    16.396807   -268.85112    1185.5254    17406.403    9.6936923   0.19062924 
  496600    -284.5156    16.089809   -268.42579    1163.3288    14402.266    9.6378702   0.20137727 
  496700   -285.22261    15.801594   -269.42101    1142.4902   -11357.965    9.3851326   0.20989299 
  496800   -281.79793    16.430865   -265.36707    1187.9879    2685.4469    9.4040961   0.24499012 
  496900   -284.63756    19.561753   -265.07581     1414.358   -6631.8989    9.3935541   0.23997144 
  497000   -287.32251    18.693615    -268.6289    1351.5897   -7021.4898     9.488644    0.1740329 
  497100   -286.37891     15.88554   -270.49337    1148.5597    12053.658    9.6693332    0.1864702 
  497200   -284.21348    15.867758   -268.34572     1147.274      720.994    9.4995985   0.21118088 
  497300   -283.07326     17.74834   -265.32492    1283.2442    1856.8482    9.4262729   0.23609763 
  497400   -287.75164     17.81542   -269.93622    1288.0943    6690.8973    9.6815556   0.16144996 
  497500   -288.08309    17.699122   -270.38396    1279.6857    5524.8893     9.696447   0.20024336 
  497600   -284.85207    18.345321   -266.50675    1326.4073   -14599.018    9.3178873   0.21948829 
  497700   -286.62238    18.151541   -268.47083    1312.3966   -17275.022    9.3552405   0.22191619 
  497800   -289.23653    17.124189   -272.11234    1238.1168    16233.475    9.8441792    0.1329324 
  497900   -285.94085    17.017797   -268.92305    1230.4244    17467.138    9.7039919   0.18028176 
  498000   -285.25181    19.169619   -266.08219    1386.0058   -2924.7575    9.4537036   0.21905226 
  498100   -287.06976    15.794179   -271.27559    1141.9541     8485.547    9.6723435   0.17737871 
  498200    -286.4407    15.870697      -270.57    1147.4865   -8301.5556    9.4891241   0.19542349 
  498300   -284.37489    16.731928   -267.64296    1209.7554    1858.6989    9.4933561   0.22132113 
  498400    -286.1878    18.214891   -267.97291    1316.9769   -1468.5626    9.5344878    0.2202818 
  498500    -287.5458    14.667143   -272.87865    1060.4669   -7950.7031    9.5312808   0.18038541 
  498600   -285.09319    15.181853   -269.91133    1097.6816   -11295.485    9.3605615   0.20186553 
  498700   -284.71343    15.990649   -268.72278    1156.1593   -420.37193    9.4589342   0.20522117 
  498800   -285.64837    17.104177   -268.54419    1236.6698     8510.302     9.631407   0.19132819 
  498900   -287.83309    14.251039   -273.58205    1030.3816    14235.893    9.7681334   0.14454934 
  499000   -287.52484    16.644943    -270.8799    1203.4662   -4845.5891    9.5395112   0.18001844 
  499100   -285.04738    16.664264   -268.38311    1204.8631   -6785.1382    9.4012736   0.23518728 
  499200   -283.92241    15.129273   -268.79314    1093.8799   -9589.9379    9.3343391    0.2337012 
  499300   -288.37121     15.58843   -272.78278     1127.078   -5631.0119    9.5928976   0.16739906 
  499400   -286.25433    17.426442   -268.82789    1259.9703    11816.424    9.6327073   0.20671565 
  499500   -284.45062    16.561105   -267.88952    1197.4045    7883.7271    9.5854675   0.22937207 
  499600   -287.14835    16.623053    -270.5253    1201.8835    -10441.81    9.4864316   0.20107293 
  499700   -288.75136    16.208679   -272.54268    1171.9233    2606.0307    9.6881144   0.15641889 
  499800   -285.93892    18.728543   -267.21037    1354.1151   -13255.202     9.373344   0.24903404 
  499900   -284.70105     16.01769   -268.68336    1158.1144   -8098.1811     9.420039   0.23811025 
  500000   -287.73743    18.497558   -269.23987    1337.4144   -1720.0614     9.581302   0.19758956 
Loop time of 151.718 on 1 procs for 500000 steps with 108 atoms

Performance: 1423.694 ns/day, 0.017 hours/ns, 3295.587 timesteps/s
100.0% CPU use with 1 MPI tasks x no OpenMP threads

MPI task timing breakdown:
Section |  min time  |  avg time  |  max time  |%varavg| %total
---------------------------------------------------------------
Pair    | 90.411     | 90.411     | 90.411     |   0.0 | 59.59
Neigh   | 5.2154     | 5.2154     | 5.2154     |   0.0 |  3.44
Comm    | 2.5352     | 2.5352     | 2.5352     |   0.0 |  1.67
Output  | 0.11931    | 0.11931    | 0.11931    |   0.0 |  0.08
Modify  | 52.909     | 52.909     | 52.909     |   0.0 | 34.87
Other   |            | 0.5274     |            |       |  0.35

Nlocal:    108 ave 108 max 108 min
Histogram: 1 0 0 0 0 0 0 0 0 0
Nghost:    990 ave 990 max 990 min
Histogram: 1 0 0 0 0 0 0 0 0 0
Neighs:    4868 ave 4868 max 4868 min
Histogram: 1 0 0 0 0 0 0 0 0 0

Total # of neighbors = 4868
Ave neighs/atom = 45.0741
Neighbor list builds = 22459
Dangerous builds = 0
    
Total wall time: 0:02:31
