LAMMPS (3 Mar 2020)

# ---------- 1. Initialize simulation ----------
units metal
atom_style atomic
dimension 3
boundary p p p
read_data /home/modeler/RemLabs/Project/Li_diffusion_constant_T=700/20201204-003741/lammps.data
  orthogonal box = (0 0 0) to (17.469 17.469 17.469)
  1 by 1 by 1 MPI processor grid
  reading atoms ...
  217 atoms
  read_data CPU = 0.000962525 secs

pair_style meam/c
pair_coeff * * library.meam Li Si LiSi.meam Li Si
Reading potential file library.meam with DATE: 2012-06-29
Reading potential file LiSi.meam with DATE: 2020-11-07

group Li type 1
1 atoms in group Li

velocity all create 700 3320 dist gaussian

# ---------- 2. Describe computed properties----------
compute msdli Li msd
thermo_style custom step pe ke etotal temp press density c_msdli[4]
thermo 100

# ---------- 3. Specify ensemble  ----------
#fix 1 all nve
fix 1 all nvt temp 700 700 0.25
#fix 1 all npt temp 700 700 0.25 tchain 2 iso 1.0 1.0 1.0 pchain 2

# ---------- 4. Run -------------
timestep 0.005
run 5000
Neighbor list info ...
  update every 1 steps, delay 10 steps, check yes
  max neighbors/atom: 2000, page size: 100000
  master list distance cutoff = 6
  ghost atom cutoff = 6
  binsize = 3, bins = 6 6 6
  2 neighbor lists, perpetual/occasional/extra = 2 0 0
  (1) pair meam/c, perpetual
      attributes: full, newton on
      pair build: full/bin/atomonly
      stencil: full/bin/3d
      bin: standard
  (2) pair meam/c, perpetual, half/full from (1)
      attributes: half, newton on
      pair build: halffull/newton
      stencil: none
      bin: none
Per MPI rank memory allocation (min/avg/max) = 9.266 | 9.266 | 9.266 Mbytes
Step PotEng KinEng TotEng Temp Press Density c_msdli[4] 
       0   -951.06911    19.544134   -931.52497          700   -120335.85    1.8918427            0 
     100   -938.84635    14.269648   -924.57671    511.08703   -106266.52    1.8918427  0.021912834 
     200   -933.76968    18.803855   -914.96582    673.48589   -101215.11    1.8918427  0.029815525 
     300   -933.38623    23.359796   -910.02644    836.66319    -99266.92    1.8918427  0.066412078 
     400   -933.74259    19.419764   -914.32282    695.54552   -100972.78    1.8918427  0.077641156 
     500   -934.32903    19.962847   -914.36618    714.99678   -101967.36    1.8918427 0.0075416618 
     600   -930.71916    19.697026   -911.02213    705.47602   -98173.057    1.8918427  0.072595921 
     700   -930.83603    17.015897   -913.82014    609.44773   -99049.779    1.8918427  0.016183627 
     800   -932.65021    18.615887   -914.03433    666.75357   -99781.512    1.8918427   0.21380145 
     900   -930.80935    19.755674   -911.05368     707.5766   -98182.481    1.8918427  0.024429037 
    1000   -931.90861     18.91176   -912.99685    677.35067   -100723.69    1.8918427  0.016382061 
    1100    -932.2965     19.01041   -913.28609    680.88395   -99894.719    1.8918427  0.017281464 
    1200   -931.31473    20.880101   -910.43463     747.8495   -98244.635    1.8918427  0.098133524 
    1300   -930.60245    17.992641   -912.60981    644.43116   -96990.659    1.8918427  0.033889622 
    1400   -932.00155    18.254109   -913.74744    653.79599   -99154.681    1.8918427  0.063243315 
    1500   -932.03178    22.137326   -909.89446    792.87874    -99184.78    1.8918427   0.09596162 
    1600   -931.85129    19.737765   -912.11352    706.93517   -98805.059    1.8918427  0.067726128 
    1700    -931.4344    17.983775   -913.45063    644.11359   -100205.87    1.8918427  0.025542692 
    1800    -932.9983    19.486728   -913.51158    697.94391    -100475.7    1.8918427  0.086339969 
    1900   -932.30951    21.799039   -910.51048    780.76253   -99608.136    1.8918427  0.035829465 
    2000   -932.60319    18.098801   -914.50439    648.23341   -100811.69    1.8918427 0.0057081331 
    2100   -931.33959    18.539268   -912.80033    664.00935    -99578.73    1.8918427  0.028314174 
    2200   -932.69946    21.444821   -911.25464     768.0757   -101426.63    1.8918427   0.17901377 
    2300   -932.97867    17.777822   -915.20085     636.7371   -101412.45    1.8918427  0.037223702 
    2400   -932.51981      20.4109   -912.10891     731.0444    -100440.4    1.8918427 0.0032260373 
    2500   -931.09316    18.748419   -912.34474    671.50039   -100169.02    1.8918427   0.04872921 
    2600   -931.72804     18.13087   -913.59717      649.382   -100122.74    1.8918427   0.03974389 
    2700   -932.50186    19.658416   -912.84344    704.09315   -99857.765    1.8918427  0.083241576 
    2800   -931.24595    19.873398   -911.37256    711.79304   -100414.72    1.8918427   0.07570088 
    2900    -933.6816    19.685493   -913.99611    705.06298   -101679.92    1.8918427  0.052457368 
    3000   -932.85283    18.939758   -913.91307    678.35343   -99548.065    1.8918427 0.0006850662 
    3100   -931.94121    20.866268   -911.07494    747.35404    -99616.38    1.8918427   0.13438247 
    3200   -932.23826    18.505714   -913.73255    662.80755   -100266.06    1.8918427  0.033006755 
    3300    -932.9275    19.703759   -913.22374     705.7172   -100280.05    1.8918427   0.17758797 
    3400   -931.34335    20.508853    -910.8345    734.55274    -98566.39    1.8918427  0.047208838 
    3500   -932.56674    18.630161   -913.93658    667.26481   -100486.21    1.8918427  0.039404709 
    3600   -932.79512    20.187408   -912.60772    723.03973   -101203.97    1.8918427  0.001903873 
    3700    -931.7825    22.875785   -908.90672    819.32765   -99596.299    1.8918427  0.037587397 
    3800   -932.34857     20.00081   -912.34776     716.3565   -100021.33    1.8918427  0.095604889 
    3900   -932.91738    18.584067   -914.33331     665.6139   -101238.01    1.8918427  0.060669497 
    4000   -931.83162     20.93158   -910.90004     749.6933   -99810.531    1.8918427  0.094733622 
    4100   -932.44132    19.749439   -912.69188    707.35327   -100020.02    1.8918427  0.061458135 
    4200   -932.69103     19.12122   -913.56981    684.85275   -100724.81    1.8918427   0.02541709 
    4300   -931.99368    20.507819   -911.48586    734.51569   -99736.058    1.8918427  0.080421085 
    4400   -931.10829    21.349697    -909.7586    764.66872   -98940.285    1.8918427  0.078263269 
    4500   -933.44227    19.892641   -913.54962    712.48227   -101827.36    1.8918427   0.05354719 
    4600   -933.58232    20.447467   -913.13485    732.35413    -101346.3    1.8918427  0.039715122 
    4700   -931.23867    20.978617   -910.26006    751.37798   -98470.959    1.8918427   0.01788448 
    4800   -934.43341    19.946953   -914.48645    714.42753    -102561.6    1.8918427  0.019219173 
    4900   -932.53682    19.774025    -912.7628    708.23387   -99913.433    1.8918427  0.019722542 
    5000   -932.14109     21.06236   -911.07873    754.37736   -100397.05    1.8918427 0.0067736584 
Loop time of 2.62116 on 1 procs for 5000 steps with 217 atoms

Performance: 824.061 ns/day, 0.029 hours/ns, 1907.549 timesteps/s
100.0% CPU use with 1 MPI tasks x no OpenMP threads

MPI task timing breakdown:
Section |  min time  |  avg time  |  max time  |%varavg| %total
---------------------------------------------------------------
Pair    | 2.5714     | 2.5714     | 2.5714     |   0.0 | 98.10
Neigh   | 0          | 0          | 0          |   0.0 |  0.00
Comm    | 0.020826   | 0.020826   | 0.020826   |   0.0 |  0.79
Output  | 0.0014348  | 0.0014348  | 0.0014348  |   0.0 |  0.05
Modify  | 0.02099    | 0.02099    | 0.02099    |   0.0 |  0.80
Other   |            | 0.006562   |            |       |  0.25

Nlocal:    217 ave 217 max 217 min
Histogram: 1 0 0 0 0 0 0 0 0 0
Nghost:    950 ave 950 max 950 min
Histogram: 1 0 0 0 0 0 0 0 0 0
Neighs:    3702 ave 3702 max 3702 min
Histogram: 1 0 0 0 0 0 0 0 0 0
FullNghs:  7404 ave 7404 max 7404 min
Histogram: 1 0 0 0 0 0 0 0 0 0

Total # of neighbors = 7404
Ave neighs/atom = 34.1198
Neighbor list builds = 0
Dangerous builds = 0
Total wall time: 0:00:02
