LAMMPS (3 Mar 2020)
Reading data file ...
  orthogonal box = (0 0 0) to (16.36 16.36 16.36)
  1 by 1 by 1 MPI processor grid
  reading atoms ...
  256 atoms
  read_data CPU = 0.00106418 secs
Reading potential file /usr/share/lammps-stable/potentials/Ag_u3.eam with DATE: 2007-06-11
Neighbor list info ...
  update every 1 steps, delay 10 steps, check yes
  max neighbors/atom: 2000, page size: 100000
  master list distance cutoff = 7.55
  ghost atom cutoff = 7.55
  binsize = 3.775, bins = 5 5 5
  2 neighbor lists, perpetual/occasional/extra = 1 1 0
  (1) pair eam, perpetual
      attributes: half, newton on
      pair build: half/bin/atomonly/newton
      stencil: half/bin/3d/newton
      bin: standard
  (2) compute rdf, occasional, copy from (1)
      attributes: half, newton on
      pair build: copy
      stencil: none
      bin: none
Setting up Verlet run ...
  Unit style    : metal
  Current step  : 0
  Time step     : 0.005
Per MPI rank memory allocation (min/avg/max) = 3.744 | 3.744 | 3.744 Mbytes
Step PotEng KinEng TotEng Temp Press Density c_msdall[4] 
       0       -729.6    46.145872   -683.45413         1400    11256.408    10.472245            0 
     100   -705.42259    25.746348   -679.67624     781.1075    4219.2594     10.07553   0.06660091 
     200   -698.67453    23.533337   -675.14119    713.96791   -7208.3775    9.8510673   0.11203656 
     300   -696.79284    25.703824   -671.08901    779.81741   -8517.0378    9.7946226   0.12581087 
     400   -696.10459    28.826596     -667.278    874.55784   -985.57415    9.8570484   0.12605707 
     500   -695.07164    31.663422   -663.40822    960.62311    4629.4573    9.8952953   0.11582603 
     600    -691.4532    31.920278   -659.53292    968.41574    5067.4609    9.8425801   0.13354714 
     700   -692.07464    36.341958   -655.73268    1102.5632   -1026.9385    9.7725073   0.14641459 
     800   -687.18287    35.194832   -651.98804     1067.761    2735.4464    9.7341898   0.17257461 
     900   -686.23069    38.118397   -648.11229    1156.4578   -2326.5904    9.6430573   0.19082852 
    1000   -678.88279    34.598923   -644.28387     1049.682    395.28944    9.5773206   0.20458681 
    1100   -679.10954    38.551195   -640.55834    1169.5883   -1471.0379    9.5449894   0.23345156 
    1200   -677.69769    41.071251   -636.62644    1246.0432   -829.52794    9.5264444    0.2381205 
    1300   -672.19062    39.484984   -632.70564    1197.9182    6349.6763    9.5017481   0.24809485 
    1400   -671.50937    42.905402   -628.60397    1301.6888   -4927.1835    9.3547226    0.3079871 
    1500   -666.54386    41.089128   -625.45473    1246.5856   -8419.7837    9.2261329    0.4153296 
    1600   -663.64327    41.034738   -622.60853    1244.9355   -845.19438    9.2493567   0.39769535 
    1700   -663.08284    44.000544    -619.0823    1334.9138   -10380.213    9.1459378   0.39848908 
    1800   -665.08177    50.531295   -614.55048    1533.0475   -4768.4307     9.206775   0.40007798 
    1900    -667.4431     44.98603   -622.45707     1364.812    9349.0534    9.4345517   0.30692951 
    2000   -672.45185    45.854902   -626.59695    1391.1724     1486.766    9.4304002   0.29649482 
    2100   -664.98968    43.918679     -621.071    1332.4301    3080.0292    9.3222573   0.36511166 
    2200   -663.36173    46.769954   -616.59177    1418.9338   -7746.3588    9.1503221   0.39479833 
    2300   -667.98992    43.936594   -624.05332    1332.9736   -4909.4564    9.2809882    0.3372633 
    2400   -668.34437    42.846523   -625.49784    1299.9025   -9724.7423    9.2374273   0.34827184 
    2500   -667.40919    46.733053   -620.67614    1417.8142   -4007.3794    9.2676337   0.40119832 
    2600    -663.6916    49.174842   -614.51676    1491.8946   -2060.8009    9.2188721   0.43717435 
    2700   -665.63225    45.446363   -620.18589    1378.7779   -6065.3528     9.224655   0.46741113 
    2800   -664.28827    46.656108   -617.63216    1415.4798    4134.4025    9.3233847    0.4052578 
    2900   -664.17126    48.348408   -615.82285    1466.8218    8741.3693    9.3503844   0.35998567 
    3000   -673.10552    51.639127   -621.46639    1566.6575    9585.5131    9.5202467   0.26846259 
    3100   -673.24007    47.496814   -625.74325    1440.9857   -3428.6171     9.396071   0.29466339 
    3200   -664.46112    47.094784   -617.36634    1428.7886   -10625.698    9.1572065   0.38166651 
    3300   -663.55343     45.74435   -617.80908    1387.8184    415.59995    9.2530681   0.39399661 
    3400   -671.48697    46.638193   -624.84878    1414.9363   -5925.2122    9.3403089   0.28636171 
    3500   -672.48588    46.462591   -626.02328    1409.6088    809.86929    9.4113869   0.28653279 
    3600   -667.12778    48.877783      -618.25    1482.8823    3052.2357     9.371135   0.33936271 
    3700   -663.57028    46.081255   -617.48903    1398.0396    3032.0528    9.3054645   0.40365427 
    3800   -659.32844    47.256648   -612.07179    1433.6994    68.016641    9.1624593    0.4114127 
    3900   -653.00737    45.771999   -607.23537    1388.6572   -5516.7691    9.0055535   0.62756781 
    4000   -660.02445    46.276977   -613.74747    1403.9775    314.49505    9.1954449   0.49395935 
    4100   -666.99433    45.585717   -621.40861    1383.0057    6879.5561    9.3943185   0.44901089 
    4200   -663.19358    47.013893   -616.17968    1426.3345    1290.4638     9.247246    0.5579475 
    4300   -658.52092    47.957534   -610.56339    1454.9632   -10768.421    9.0036935   0.83169195 
    4400   -654.16452    45.388603   -608.77591    1377.0255   -1516.7664    9.0361059   0.99925783 
    4500   -647.20408    47.822033   -599.38205    1450.8523    -4685.497    8.8302114    1.3672619 
    4600   -638.84263    43.856601   -594.98603    1330.5468   -15121.322    8.5819587    2.0424597 
    4700   -634.98588    44.904189   -590.08169    1362.3291    513.66677    8.6375947    2.7829347 
    4800   -633.66128    48.160379    -585.5009    1461.1173    5221.0412    8.6298805    4.1760265 
    4900   -636.20215    48.742511   -587.45964    1478.7783    2385.2686     8.649768    5.1821414 
    5000   -639.95882    46.151467   -593.80736    1400.1698     1046.181    8.7600824    6.4070333 
    5100   -637.27232    47.400871   -589.87145    1438.0749    1155.2567    8.6983895    7.4982649 
    5200   -635.79829    49.817169   -585.98113    1511.3819     3316.375    8.6462599    8.8725591 
    5300   -628.69313    46.644316   -582.04882    1415.1221    8005.8578    8.5655132    10.018656 
    5400   -632.40445    45.103538   -587.30091    1368.3771    4309.5686    8.5942957     10.68452 
    5500   -635.42044    47.095359   -588.32508    1428.8061     4968.484    8.6471857    12.190432 
    5600   -635.64782    46.390876   -589.25694    1407.4331    7200.7735    8.7288588    14.037429 
    5700   -634.35803    44.825955   -589.53207    1359.9556     3125.241    8.6609607    15.311645 
    5800   -631.88242    48.961648   -582.92077    1485.4266    -2943.738    8.5431806    16.547028 
    5900   -635.37436    46.828347   -588.54602    1420.7053   -4441.7671    8.5174823    18.462991 
    6000   -631.16455    42.726536   -588.43801    1296.2622   -613.39444    8.4996737    20.155054 
    6100   -631.17716    48.811819   -582.36534     1480.881   -10402.652    8.3717614     21.86733 
    6200   -629.40676    45.050824   -584.35594    1366.7778   -10901.499    8.3866704    22.650419 
    6300   -632.73907    45.334016   -587.40505    1375.3694   -7351.4848    8.4696284    23.245994 
    6400    -636.0664    43.365215   -592.70119    1315.6388   -3754.1417    8.5772066    24.571604 
    6500   -634.59379    47.733767   -586.86002    1448.1745   -7408.5867    8.4611583    25.647807 
    6600    -631.7075    44.599257   -587.10824    1353.0779   -3526.4263    8.4509956    26.999344 
    6700   -635.46268    40.293529   -595.16915    1222.4483   -2962.5951    8.6048494     27.84572 
    6800   -629.17348    39.885072   -589.28841    1210.0563   -4950.1584    8.4140647    29.714513 
    6900   -633.62034    46.631126   -586.98922    1414.7219   -8228.7298     8.469414    31.252349 
    7000   -633.51299    44.339838   -589.17315    1345.2075   -6810.0742    8.5172181    32.653506 
    7100   -636.54129    42.820556   -593.72074    1299.1147   -2818.0874    8.6137733    33.706856 
    7200   -635.09639    45.229538   -589.86685    1372.1998    -2370.802    8.5842334    34.252726 
    7300   -634.84694    49.285091   -585.56185    1495.2394   -27.881459    8.5981412    35.184873 
    7400   -631.19954    41.385736    -589.8138    1255.5843   -660.67447    8.5101372    38.609129 
    7500   -630.01898    45.360009   -584.65897    1376.1581   -1805.1508    8.4932877    40.068039 
    7600   -634.23342    42.810262   -591.42315    1298.8023   -5359.4711    8.5302955    41.148589 
    7700   -634.54932    43.671564   -590.87776     1324.933   -13752.959    8.4532113    42.387684 
    7800     -629.756    45.029926   -584.72607    1366.1438   -5213.2379    8.4104133     43.79242 
    7900   -632.91552    49.544483   -583.37104     1503.109    5162.8566    8.5921287    44.977589 
    8000   -639.69094    47.901422   -591.78952    1453.2609    3593.9404    8.7497933    45.835035 
    8100   -635.21291     45.68319   -589.52972    1385.9629    7603.1237    8.6462204    48.685665 
    8200   -632.42436    46.080193   -586.34417    1398.0074    2461.5272    8.6628493    49.823356 
    8300   -634.20556    41.919902   -592.28565    1271.7901   -1539.4357    8.5498544     50.97989 
    8400   -632.80673    45.505155   -587.30158    1380.5616   -11629.238    8.4657304    52.623116 
    8500   -634.16745    43.474287   -590.69316    1318.9479    -5157.044    8.5537374    53.521256 
    8600   -631.26697    42.180663   -589.08631    1279.7012    5442.3031     8.603217    54.093887 
    8700   -629.11783     46.91529   -582.20254    1423.3431    4942.7476    8.5158456     56.38282 
    8800   -632.51479    46.718757   -585.79603    1417.3805    5806.5037    8.6470401    57.622154 
    8900   -635.94531    44.283913    -591.6614    1343.5108   -660.65688    8.6203382    59.088934 
    9000   -634.67691    47.595486   -587.08143    1443.9792    5471.9366    8.6642982    59.492746 
    9100   -632.06319    45.528753   -586.53444    1381.2775   -1739.4672    8.5547256    60.410684 
    9200   -640.97286    48.785356    -592.1875    1480.0782   -4985.1182    8.6692976    61.579417 
    9300   -640.57773    42.677752   -597.89997    1294.7822    -1211.579    8.7157279    63.214599 
    9400       -637.1    47.085853   -590.01415    1428.5177   -4809.3989    8.6280697    64.106169 
    9500   -634.74896     45.44861   -589.30035    1378.8461   -2324.8351    8.5682101    66.180601 
    9600   -635.72843    43.375575   -592.35286    1315.9532   -5165.2737    8.5830879    67.526502 
    9700    -639.1888     43.37485   -595.81395    1315.9311   -5032.5209    8.6340491    66.482235 
    9800   -631.63594    43.829551   -587.80639    1329.7261   -2337.1578    8.5274748    68.758435 
    9900   -635.29137    45.723535   -589.56783    1387.1869   -5579.7098    8.5800209    70.738647 
   10000   -635.32894    44.574109   -590.75483     1352.315    9516.3974    8.7380806    70.326022 
Loop time of 6.51097 on 1 procs for 10000 steps with 256 atoms

Performance: 663.495 ns/day, 0.036 hours/ns, 1535.869 timesteps/s
100.0% CPU use with 1 MPI tasks x no OpenMP threads

MPI task timing breakdown:
Section |  min time  |  avg time  |  max time  |%varavg| %total
---------------------------------------------------------------
Pair    | 3.8663     | 3.8663     | 3.8663     |   0.0 | 59.38
Neigh   | 0.28543    | 0.28543    | 0.28543    |   0.0 |  4.38
Comm    | 0.078148   | 0.078148   | 0.078148   |   0.0 |  1.20
Output  | 0.0029991  | 0.0029991  | 0.0029991  |   0.0 |  0.05
Modify  | 2.2625     | 2.2625     | 2.2625     |   0.0 | 34.75
Other   |            | 0.01556    |            |       |  0.24

Nlocal:    256 ave 256 max 256 min
Histogram: 1 0 0 0 0 0 0 0 0 0
Nghost:    1393 ave 1393 max 1393 min
Histogram: 1 0 0 0 0 0 0 0 0 0
Neighs:    11077 ave 11077 max 11077 min
Histogram: 1 0 0 0 0 0 0 0 0 0

Total # of neighbors = 11077
Ave neighs/atom = 43.2695
Neighbor list builds = 543
Dangerous builds = 0
Total wall time: 0:00:06
