LAMMPS (3 Mar 2020)
Reading data file ...
  orthogonal box = (0 0 0) to (17.469 17.469 17.469)
  1 by 1 by 1 MPI processor grid
  reading atoms ...
  217 atoms
  read_data CPU = 0.00101523 secs
Reading potential file library.meam with DATE: 2012-06-29
Reading potential file LiSi.meam with DATE: 2020-11-07
1 atoms in group Li
216 atoms in group Si
Neighbor list info ...
  update every 1 steps, delay 10 steps, check yes
  max neighbors/atom: 2000, page size: 100000
  master list distance cutoff = 6
  ghost atom cutoff = 6
  binsize = 3, bins = 6 6 6
  2 neighbor lists, perpetual/occasional/extra = 2 0 0
  (1) pair meam/c, perpetual
      attributes: full, newton on
      pair build: full/bin/atomonly
      stencil: full/bin/3d
      bin: standard
  (2) pair meam/c, perpetual, half/full from (1)
      attributes: half, newton on
      pair build: halffull/newton
      stencil: none
      bin: none
Setting up Verlet run ...
  Unit style    : metal
  Current step  : 0
  Time step     : 0.003
Per MPI rank memory allocation (min/avg/max) = 8.895 | 8.895 | 8.895 Mbytes
Step Temp E_pair E_mol TotEng Press Volume 
       0         1675   -951.04357            0   -904.27725   -114861.02    5330.9442 
    3200    1641.7188   -943.48971            0    -897.6526   -9066.8433    4700.2408 
Loop time of 2.26323 on 1 procs for 3200 steps with 217 atoms

Performance: 366.485 ns/day, 0.065 hours/ns, 1413.907 timesteps/s
100.0% CPU use with 1 MPI tasks x no OpenMP threads

MPI task timing breakdown:
Section |  min time  |  avg time  |  max time  |%varavg| %total
---------------------------------------------------------------
Pair    | 2.1853     | 2.1853     | 2.1853     |   0.0 | 96.56
Neigh   | 0.029037   | 0.029037   | 0.029037   |   0.0 |  1.28
Comm    | 0.014271   | 0.014271   | 0.014271   |   0.0 |  0.63
Output  | 2.5477e-05 | 2.5477e-05 | 2.5477e-05 |   0.0 |  0.00
Modify  | 0.029497   | 0.029497   | 0.029497   |   0.0 |  1.30
Other   |            | 0.005095   |            |       |  0.23

Nlocal:    217 ave 217 max 217 min
Histogram: 1 0 0 0 0 0 0 0 0 0
Nghost:    957 ave 957 max 957 min
Histogram: 1 0 0 0 0 0 0 0 0 0
Neighs:    4131 ave 4131 max 4131 min
Histogram: 1 0 0 0 0 0 0 0 0 0
FullNghs:  8262 ave 8262 max 8262 min
Histogram: 1 0 0 0 0 0 0 0 0 0

Total # of neighbors = 8262
Ave neighs/atom = 38.0737
Neighbor list builds = 49
Dangerous builds = 0
Setting up Verlet run ...
  Unit style    : metal
  Current step  : 3200
  Time step     : 0.003
Per MPI rank memory allocation (min/avg/max) = 9.664 | 9.664 | 9.664 Mbytes
Step PotEng KinEng TotEng Temp Press Density c_msdli[4] c_msdsi[4] 
    3200   -943.48971    45.837104    -897.6526    1641.7188   -9066.8433    2.1457003            0 8.0261347e-32 
    3300    -944.2941    48.390664   -895.90344    1733.1781   -3784.5214    2.1583467   0.17897282   0.11314016 
    3400   -951.37768    46.652619   -904.72506    1670.9276    12101.905    2.2136958   0.05130428   0.10922562 
    3500   -945.28288    48.016238   -897.26664    1719.7675   -2906.5514     2.162757   0.15511391   0.11774756 
    3600   -942.58908    45.569709   -897.01937    1632.1417   -9098.6583    2.1437358   0.16499513   0.14336038 
    3700   -946.21766    45.650047   -900.56761    1635.0191    5784.5201    2.1863184   0.44227234   0.10124018 
    3800   -945.72465    41.194245   -904.53041    1475.4285    13020.505    2.2039624  0.096396513  0.095034084 
    3900   -944.11624    49.111537    -895.0047    1758.9971   -11430.315    2.1390947  0.021785855   0.11829015 
    4000   -942.80962    43.859292   -898.95033    1570.8808   -3683.1814    2.1553973   0.16060742   0.10829769 
    4100   -947.31162     47.52594   -899.78568    1702.2068    11386.176    2.2015581   0.22145968  0.089890685 
    4200   -937.24518    47.445679    -889.7995    1699.3321    1600.9429    2.1587596   0.27060201   0.11864515 
    4300   -942.95211    45.720073   -897.23203    1637.5272   -7115.0542    2.1496875     0.122133   0.11427336 
    4400   -947.17755    47.147378   -900.03017    1688.6481   -717.03827    2.1751526  0.069500385   0.14165156 
    4500   -938.90244    43.809814   -895.09262    1569.1087    11055.043    2.1901039    0.5210571   0.15274688 
    4600   -945.01048    52.581659   -892.42882    1883.2843    -6743.668    2.1508838    0.1187646   0.12113216 
    4700   -946.79499    45.762041   -901.03295    1639.0303   -5581.5525    2.1618339  0.038500844   0.11158876 
    4800   -944.40046    47.272569   -897.12789     1693.132    6681.5629    2.1918934   0.12610364   0.11898929 
    4900   -941.59238    49.043791   -892.54859    1756.5707      2521.97     2.172972   0.14679999   0.12550787 
    5000   -942.56234    44.924527   -897.63781    1609.0337   -10159.537    2.1426246   0.29376411   0.13246298 
    5100   -947.90274    47.043111   -900.85963    1684.9136   -1028.3405    2.1783856 0.0099311175   0.11778225 
    5200   -944.67013    48.655018   -896.01511    1742.6463    11196.817    2.2020485   0.27313375   0.12527759 
    5300   -948.07725    49.324524   -898.75272    1766.6256   -7443.0506    2.1617329   0.20485471   0.13721336 
    5400    -951.7419    45.022601    -906.7193    1612.5463   -8421.4627    2.1660173  0.073207661   0.12718421 
    5500   -943.54441      44.7156   -898.82881    1601.5506    5304.8476    2.1860497   0.03996706   0.14378972 
    5600    -941.7092    45.662633   -896.04657    1635.4699    8099.0739    2.1859808   0.15895548   0.14256602 
    5700   -947.61284      45.2069   -902.40594    1619.1472   -8132.2489    2.1561936   0.10378988   0.11058472 
    5800   -948.86135    46.075058   -902.78629    1650.2415   -3232.5464     2.171932   0.10960847   0.10681879 
    5900   -943.63234    48.508836    -895.1235    1737.4106    7204.9938    2.1908744   0.28370976   0.13696224 
    6000   -942.44329    43.500251   -898.94304    1558.0212    570.81685    2.1710874   0.23161567   0.14028096 
    6100   -946.79726    43.810171   -902.98709    1569.1214   -8281.8695    2.1562028   0.11608764   0.12143813 
    6200    -949.2754    46.202499    -903.0729     1654.806    5628.6801    2.1954819   0.33536758    0.1271503 
    6300   -944.70385    49.878451    -894.8254    1786.4652    2438.1368    2.1780925  0.035715295   0.13278985 
    6400   -945.33998    47.414782    -897.9252    1698.2256   -7965.0027    2.1493181   0.27637053   0.12640094 
    6500   -946.39225    46.581548    -899.8107    1668.3821   -1257.9423    2.1713848   0.14882683    0.1421792 
    6600   -947.32227    40.979553   -906.34272     1467.739    11448.927    2.2063397  0.023356409   0.13384134 
    6700    -949.6522    47.153297    -902.4989    1688.8601    228.74313    2.1798395  0.034310638   0.11330831 
    6800   -945.44117    46.635477   -898.80569    1670.3137    -7655.949    2.1561954   0.22145267   0.11925707 
    6900   -944.23204    46.134561   -898.09748    1652.3727    875.35845    2.1735675  0.086663778   0.11589629 
    7000   -943.27159     45.80168   -897.46991    1640.4501     6832.471    2.1855286   0.16644088   0.13784307 
    7100   -939.67794    53.114636   -886.56331    1902.3737   -1731.2781    2.1496953  0.077084509   0.13089613 
    7200   -946.72579    53.348296    -893.3775    1910.7425    -3513.474    2.1625927  0.095428585   0.12025157 
    7300   -942.72248    44.734085   -897.98839    1602.2127   -104.16267     2.170801    0.2376176   0.13606409 
    7400   -945.88507    46.304039   -899.58103    1658.4428    1001.4032     2.176252   0.05618951   0.12144506 
    7500   -938.66478    45.804712   -892.86006    1640.5587    3677.5804    2.1666896  0.072227263   0.14224522 
    7600   -941.83773    49.383926   -892.45381    1768.7531    -1014.299    2.1613505  0.046705019   0.13375657 
    7700   -946.07477    47.077833   -898.99694    1686.1573   -7415.8094    2.1506541  0.092332857   0.10682048 
    7800   -946.82199    48.838605   -897.98339    1749.2217    6716.2274     2.188622   0.22226111   0.10918033 
    7900   -940.69858    48.350191   -892.34839    1731.7285     12687.51    2.1921345  0.052431704   0.12486671 
    8000   -940.30275    47.466016   -892.83674    1700.0606   -13061.175    2.1268566  0.027466102   0.12378059 
    8100   -945.79933     45.21198   -900.58735    1619.3291   -5676.7922     2.155808   0.17275139   0.12238232 
    8200   -945.51304    49.009826   -896.50321    1755.3542    14096.513    2.2044447  0.041498737   0.12766127 
    8300   -940.50884    46.516212   -893.99263     1666.042    3703.8364    2.1698517   0.23053319   0.12419861 
    8400   -936.68886    43.666997   -893.02186    1563.9935   -11353.409    2.1294801  0.010572205   0.15153299 
    8500   -948.85498    46.776233   -902.07874     1675.355    6028.0798    2.1938781  0.033807561   0.11695127 
    8600   -942.78663     44.88761   -897.89902    1607.7114    13549.618    2.2016231   0.41268772    0.1371971 
    8700   -944.35825    46.674188   -897.68406    1671.7001   -8717.0554    2.1488152   0.28308325   0.12721974 
    8800    -943.1729    50.161498    -893.0114    1796.6029   -7948.3711    2.1473794   0.17763842   0.13395972 
    8900   -938.80916    51.539372   -887.26979    1845.9534    6084.6252    2.1702563  0.075458208   0.13759804 
    9000   -946.34945    51.005708   -895.34374    1826.8395    1703.0384    2.1737269   0.18432406   0.12195765 
    9100   -941.44146    43.135717   -898.30574    1544.9649   -2946.0438    2.1568982  0.087777129    0.1182752 
    9200   -945.47955    46.140108   -899.33944    1652.5713   -568.68852    2.1721676   0.14009499   0.12554419 
    9300   -952.11698    43.697553   -908.41943    1565.0879    5765.2293     2.202541  0.041362126   0.12672454 
    9400   -949.03555    45.432177   -903.60338    1627.2158   -3213.9888    2.1748505   0.08544694    0.1234277 
    9500   -943.59802    44.364362   -899.23365    1588.9706   -634.62047    2.1670362  0.070434128   0.11968513 
    9600   -946.83774    49.800583   -897.03716    1783.6763    3305.5672    2.1792732   0.26819387   0.12094367 
    9700   -947.83764    46.764326   -901.07331    1674.9286    704.35519     2.179431  0.043404835   0.12523226 
    9800   -950.20716    44.278027   -905.92913    1585.8784   -6814.1583    2.1705133   0.13195426   0.12129489 
    9900   -948.41822    49.738712   -898.67951    1781.4603   -733.88727    2.1738059   0.01591561   0.11939205 
   10000   -945.10878    48.519167   -896.58961    1737.7806     6840.571    2.1855262  0.016127387   0.11848504 
   10100   -945.45888    42.185514   -903.27337    1510.9321   -2781.7231    2.1667318    0.1192644   0.12752531 
   10200   -949.16189    45.441934   -903.71996    1627.5653   -7289.2318    2.1615504  0.066579189   0.12008589 
   10300   -944.16455    47.474444    -896.6901    1700.3624    9305.8181    2.1906568   0.18789686   0.14149084 
   10400   -946.93293    48.954105   -897.97882    1753.3585     58.41757    2.1781209   0.46008724    0.1269379 
   10500   -948.27283    44.939255   -903.33357    1609.5611   -12231.769    2.1508061   0.22008331   0.11115841 
   10600   -949.46378    45.212605   -904.25117    1619.3516     2449.585    2.1839653  0.054729309    0.1057337 
   10700    -947.7403    51.445566   -896.29473    1842.5936    8998.8426    2.1917674    0.2791082   0.12470223 
   10800   -943.24169    44.846054   -898.39564     1606.223    -5125.356    2.1593256  0.092210836   0.12919966 
   10900   -944.61063    43.995469   -900.61516    1575.7581   -7817.5188    2.1540983   0.15710644    0.1278933 
   11000   -950.21193    42.405557   -907.80637    1518.8133    10608.405    2.2104379   0.10576816   0.11897853 
   11100   -945.12441    47.002693   -898.12172     1683.466    1350.9607    2.1761526  0.078257418   0.12949736 
   11200   -947.06874    48.915567   -898.15317    1751.9782    -8754.405    2.1559221    0.4364118   0.13666378 
   11300   -944.95954    46.992692   -897.96684    1683.1078    1208.9834    2.1742829    0.1158785    0.1263704 
   11400   -950.16614    42.517866   -907.64827    1522.8358    6021.6562     2.199566  0.028384118   0.12086676 
   11500   -945.63416    44.930334   -900.70382    1609.2416   -2254.0841    2.1677475    0.1813812   0.12116046 
   11600   -946.81109    49.088962   -897.72213    1758.1886   -1987.8003    2.1683858  0.068300966   0.12465655 
   11700   -946.32664    48.898859   -897.42778    1751.3798    1455.8615    2.1777182   0.04328807   0.11841005 
   11800   -950.17611    43.281113     -906.895    1550.1725   -83.219083    2.1850119  0.034484566   0.12872292 
   11900   -947.33692    46.022901   -901.31401    1648.3734   -5390.6297    2.1680159     0.195217   0.11943261 
   12000   -947.03526    49.761951   -897.27331    1782.2926    2278.5378    2.1787622  0.097033094   0.12857751 
   12100   -944.47474    45.757659   -898.71709    1638.8734    2814.9038    2.1787487     0.283248    0.1348041 
   12200   -953.82669     46.14155   -907.68514     1652.623   -5563.2334    2.1789385  0.079430282   0.11816102 
   12300   -944.00776    44.672143   -899.33562    1599.9942   -2805.4767    2.1667007   0.15258182   0.14150887 
   12400   -942.03263    45.106312   -896.92632    1615.5445    8220.9315    2.1898183   0.11555466   0.12329807 
   12500   -948.62952    48.052688   -900.57683     1721.073   -1723.4948    2.1748056  0.064037315   0.11931797 
   12600   -951.49923    43.465661   -908.03357    1556.7824   -13079.449    2.1566875  0.020849348   0.11786776 
   12700   -948.07389    46.810073   -901.26382    1676.5671    1781.2603    2.1846158   0.14406271   0.12006903 
   12800   -945.85537    49.488177    -896.3672     1772.487    18967.502    2.2223934  0.045187739   0.12381561 
   12900   -943.04184    43.992642    -899.0492    1575.6569   -9249.0251    2.1479986  0.050053102    0.1423688 
   13000   -941.79645    48.374408   -893.42204    1732.5959   -9351.9319    2.1378992  0.095166642   0.12014291 
   13100    -939.6684    52.040316   -887.62808    1863.8954    7817.8258    2.1768786  0.084683851   0.13364127 
   13200   -947.13147    50.062085   -897.06939    1793.0423     4489.916    2.1891778   0.14411233   0.12361277 
   13300   -945.00673     46.25751   -898.74922    1656.7763   -5900.2376    2.1584357  0.096254657   0.11814373 
   13400   -943.61268    47.401242   -896.21144    1697.7406   -3200.6945    2.1623118   0.23441482   0.11778025 
   13500   -942.43133     55.34137   -887.08996    1982.1272    1361.6875     2.166842  0.024821102    0.1189054 
   13600    -942.2078    45.456693   -896.75111    1628.0939    7154.7391    2.1806211   0.14443768   0.12289944 
   13700   -945.72149    46.619504   -899.10199    1669.7416   -6168.1924    2.1558224   0.02092776   0.10739436 
   13800   -945.27198    48.929645   -896.34234    1752.4824   -3532.9003    2.1615113   0.36759735     0.119387 
   13900   -937.58418    50.698893   -886.88529    1815.8505    8095.0998    2.1682782   0.21275655   0.11937868 
   14000   -943.15498    46.387586   -896.76739    1661.4351    6036.6917     2.181434  0.038762489   0.12794761 
   14100   -945.92264     46.75215   -899.17049    1674.4925   -9474.2103    2.1516861   0.36320301    0.1351845 
   14200   -938.76953    43.200718   -895.56881     1547.293    127.67359    2.1623954  0.016851453   0.12533415 
   14300   -933.45705    46.767936   -886.68912    1675.0578    15047.475      2.18737   0.36728973   0.13731778 
   14400   -944.92916    48.086848   -896.84231    1722.2965    2411.7455    2.1786498  0.068998468   0.10732209 
   14500   -942.95029     43.92347   -899.02683    1573.1794   -13283.154    2.1357036   0.26254393   0.11346109 
   14600   -941.65031    46.123696   -895.52661    1651.9835    965.71915    2.1722145   0.16600287   0.13798751 
   14700   -942.86868    56.065878    -886.8028    2008.0764     13936.39    2.1983986   0.11877817    0.1299768 
   14800   -943.08337    47.370187   -895.71319    1696.6283   -6505.1893    2.1530685   0.34340418   0.12035954 
   14900   -942.74586    43.443985   -899.30188     1556.006   -10110.584     2.145604   0.12451906   0.13370791 
   15000   -941.30973    44.522754   -896.78697    1594.6436    7728.0718    2.1852765   0.22956928   0.12899105 
   15100   -941.65598    50.851142   -890.80484    1821.3035    4577.1545    2.1736981  0.028993931   0.13596086 
   15200   -941.68339     49.83424   -891.84915    1784.8818   -9188.4874    2.1417491   0.22648857   0.12315196 
   15300   -944.94887    46.538311   -898.41056    1666.8335   -2643.5347    2.1662864   0.22974138   0.10692354 
   15400   -944.99991     47.33562   -897.66429    1695.3903      8805.96    2.1947929  0.074164556   0.11539358 
   15500   -949.03354    48.442879   -900.59067    1735.0482   -3077.5829    2.1754216  0.067436457   0.12888982 
   15600   -948.83689    40.587647   -908.24925    1453.7023   -4623.8294    2.1735841 0.0088916345   0.11184146 
   15700   -946.50723    46.115466   -900.39177    1651.6888    1658.4684    2.1795459  0.021598664   0.13225105 
   15800   -943.51149    46.404215   -897.10728    1662.0307    5911.0415    2.1864385  0.029604335   0.13427259 
   15900    -944.1511    45.234875   -898.91623    1620.1492   -3920.2031    2.1653202  0.094968101   0.11913712 
   16000    -949.4725    41.706392   -907.76611    1493.7717   -1765.6509    2.1804844 0.0082493787   0.11208561 
   16100   -945.69378    46.405915   -899.28786    1662.0916    1648.8543    2.1795409  0.091898849   0.11882454 
   16200   -944.25353    47.263803   -896.98972     1692.818    3714.9188    2.1791097  0.074240338   0.10937742 
   16300   -944.42536    43.736387   -900.68897    1566.4788   -3197.6366    2.1643814  0.024160428   0.13186149 
   16400   -950.71624    43.330837   -907.38541    1551.9534   -1416.4356    2.1838906  0.041751175   0.12095491 
   16500   -944.86089    47.000449   -897.86045    1683.3856     3358.777     2.180439   0.48014021   0.13023518 
   16600   -945.31892     48.02609   -897.29283    1720.1204   -1137.1634    2.1730977   0.11589347   0.13752934 
   16700   -949.91454    48.007469   -901.90708    1719.4534   -8899.3817    2.1631602  0.034777659   0.12438785 
   16800   -948.34304    42.110012   -906.23303    1508.2279    2329.1732    2.1894457   0.09672157   0.13454043 
   16900   -947.30554    50.764756   -896.54078    1818.2095     1250.022    2.1808717   0.23100196   0.11950693 
   17000   -944.30723    46.376688   -897.93054    1661.0448   -4192.5099    2.1622145  0.075064091   0.12971547 
   17100   -945.70026    45.370433   -900.32982    1625.0044   -4417.2947    2.1645608   0.11610564   0.12482338 
   17200    -951.5338    43.511011   -908.02279    1558.4066    8349.8542    2.2067911   0.14496849   0.12378579 
   17300   -942.64633    43.950132    -898.6962    1574.1343    1083.3867    2.1737913   0.40608107   0.14456845 
   17400   -944.02512    45.888435   -898.13668    1643.5573   -5394.5205    2.1582308   0.13163814   0.13683716 
   17500   -944.09042    46.186971   -897.90344    1654.2498     2625.249    2.1793159    1.0813528   0.15271968 
   17600   -944.33734    49.643043    -894.6943    1778.0338    4241.5059    2.1817093    8.8894826   0.14481305 
   17700   -938.19112    47.967827   -890.22329    1718.0336   -10056.386    2.1300608    5.7099058   0.17081956 
   17800   -942.73359    44.053877   -898.67971    1577.8501   -3694.9797    2.1564219     4.778558   0.16144554 
   17900   -949.50346    52.596597   -896.90686    1883.8194    8586.8137    2.2035688     6.386904   0.15489262 
   18000   -944.08895    48.977102   -895.11185    1754.1822    2561.8007    2.1710767     7.049054   0.15832401 
   18100   -935.21907    47.883641   -887.33543    1715.0184   -13133.163    2.1162577    4.8181689   0.18098986 
   18200   -947.93472    50.048487   -897.88624    1792.5553    5623.2791    2.1908549     8.244766   0.15327716 
   18300   -946.42138    49.601326   -896.82005    1776.5396     6574.795    2.1898755    6.9908362   0.14700405 
   18400   -943.73909    46.964239   -896.77485    1682.0887   -6276.9736    2.1585126       6.3032   0.14754771 
   18500   -947.40113    41.078614   -906.32251     1471.287   -4079.8215    2.1690694    5.9278585   0.14310944 
   18600   -947.84391    46.070912     -901.773     1650.093    746.48702    2.1818298    6.6090602   0.15580096 
   18700   -945.48131    49.275046   -896.20626    1764.8535     5078.447    2.1809699    6.4234235   0.14653876 
   18800   -941.52981     44.48063   -897.04918    1593.1348   -4340.1109     2.155749    4.6048498   0.15384504 
   18900   -947.94571    42.253342   -905.69237    1513.3615   -1691.6545    2.1769436    16.677851   0.13194296 
   19000    -945.0632    46.751183   -898.31202    1674.4578    3483.5997    2.1805368    22.172723   0.10882227 
   19100   -940.78503    44.579856   -896.20517    1596.6888    5762.6213    2.1757109    24.652997    0.1251985 
   19200   -946.80026    44.231043   -902.56922    1584.1956    -4779.915    2.1638051    23.997758    0.1206062 
   19300   -949.97033    47.620465   -902.34987    1705.5924   -3796.4079    2.1715634    22.614138   0.11908859 
   19400   -945.39694    50.501088   -894.89585    1808.7658    4965.7867    2.1800502    21.278643   0.12302503 
   19500   -944.14824    45.476475   -898.67177    1628.8024   -1953.5941    2.1649555    23.254839    0.1189457 
   19600   -948.27218    45.384238   -902.88794    1625.4988   -10096.829    2.1551175    24.293348   0.13316774 
   19700    -945.8496    46.222576   -899.62702    1655.5251    9226.1307    2.1965421    22.978515   0.13809588 
   19800   -944.13048    50.133901   -893.99658    1795.6145    6897.7866     2.181451    24.363758   0.13549744 
   19900   -944.70853    45.930239   -898.77829    1645.0546   -16591.165    2.1304281    20.802942   0.12390628 
   20000   -943.48726    45.136774   -898.35048    1616.6355    2055.5767    2.1665214    22.028467   0.10606867 
   20100   -944.29031    50.487596   -893.80271    1808.2826    14200.019    2.2022418    21.479834   0.11899043 
   20200   -942.42472    51.484245   -890.94047     1843.979   -6781.9334    2.1443721    22.836112   0.11672761 
   20300   -943.42494    44.462793   -898.96214     1592.496   -5309.8094    2.1514686    20.655465   0.12475894 
   20400   -944.88953    46.877377   -898.01215    1678.9776    7578.9477     2.188261    25.374804   0.13014053 
   20500   -943.92045    49.834909   -894.08554    1784.9057    4738.7691    2.1756038    25.132666   0.13585201 
   20600   -940.96807    50.263741   -890.70433    1800.2649   -9355.2018    2.1320454    22.228205   0.13984376 
   20700   -944.14644    44.529257   -899.61718    1594.8765    1994.8177    2.1751564    23.809099   0.13712407 
   20800   -943.92995    46.259507   -897.67044    1656.8478    10032.193    2.1938512    21.106431   0.12926584 
   20900   -942.91126    48.310623   -894.60064    1730.3113   -3123.0667    2.1543686    19.772612   0.13079322 
   21000   -934.72199    48.657631   -886.06436    1742.7399   -6117.1372     2.133611     21.79443   0.12767758 
   21100   -946.19313    48.779427    -897.4137    1747.1022    9358.1312    2.1958486    23.147979   0.13651781 
   21200   -944.19079    46.144205   -898.04658    1652.7181    1665.1619    2.1741792    24.683752   0.12378468 
   21300   -944.41691    45.425688   -898.99122    1626.9834   -8811.0999    2.1501231    24.725882   0.14505062 
   21400   -950.52509    42.615515   -907.90958    1526.3332    114.61966    2.1891328    24.211192   0.13937922 
   21500   -947.10671    44.056609    -903.0501     1577.948    5691.2305    2.1939868    21.552803   0.12866261 
   21600   -946.52413    48.037561   -898.48657    1720.5312   -1992.4383     2.170984    22.242295   0.14444432 
   21700   -942.59082    44.985511   -897.60531    1611.2179    -2941.548    2.1594478    21.894407    0.1581734 
   21800   -948.68861    44.434085   -904.25453    1591.4678   -409.27627    2.1830708    19.953013   0.13643849 
   21900   -946.34843    42.515679   -903.83275    1522.7574    4614.6266    2.1918144    21.915571   0.14235984 
   22000   -945.34165    47.748527   -897.59312    1710.1791   -2365.0176    2.1682751    20.173189   0.14573554 
   22100   -941.11055    43.798107   -897.31244    1568.6894   -427.32926    2.1645008    24.530537   0.14378589 
   22200   -948.43172    42.272689   -906.15903    1514.0544    457.96495    2.1880348    23.794902   0.13206388 
   22300   -942.69419    41.920887   -900.77331    1501.4541    4615.0628    2.1822412    25.418236   0.13379135 
   22400   -947.48053    50.471087   -897.00945    1807.6913   -2329.9645    2.1711449    21.239654    0.1314035 
   22500   -946.53613     46.99822   -899.53791    1683.3058   -2842.4007    2.1716262    21.458205   0.12370648 
   22600   -951.54695     44.29408   -907.25287    1586.4533    466.34002    2.1892043    22.367845   0.12944582 
   22700   -945.77499    48.080489    -897.6945    1722.0688   -3176.0668    2.1662061    21.271776    0.1343952 
   22800   -947.67859    50.340841   -897.33775    1803.0264    1564.8673     2.175943    23.402078   0.11833152 
   22900   -948.86922    48.095805   -900.77342    1722.6173     501.1507    2.1784823     23.68772   0.12489997 
   23000    -948.4798    40.662795     -907.817    1456.3939   -2345.5617    2.1811471    20.799986   0.13627651 
   23100   -947.77614     47.65832   -900.11782    1706.9482   -49.697679    2.1738432    22.625817   0.11718015 
   23200   -950.18675    52.322699   -897.86405    1874.0093    3853.6934    2.1845315    21.072811   0.11410343 
   23300    -942.7452    44.764061   -897.98114    1603.2863   -1075.6948    2.1612753    23.972041   0.13054417 
   23400   -946.00292    48.619089   -897.38383    1741.3595   -4708.8677    2.1576676    19.987671   0.12418084 
   23500   -951.63507    43.782895   -907.85218    1568.1445    6134.0198    2.2011919    21.225999   0.12096231 
   23600   -946.01539    44.342636   -901.67276    1588.1924   -872.70066     2.169075    23.464692   0.12467419 
   23700   -943.27566    45.096239   -898.17942    1615.1838   -4826.6907     2.156424    23.811638   0.11563414 
   23800   -941.83073    46.344322   -895.48641    1659.8855    4667.4659    2.1749169    24.445918   0.13003657 
   23900   -949.27656     44.83807   -904.43849    1605.9371    4400.7276    2.1895505     21.29474    0.1250578 
   24000   -947.60494    45.651798   -901.95315    1635.0818   -11178.609    2.1524908    19.427289   0.12589794 
   24100   -944.29173    46.698741   -897.59298    1672.5796   -712.94598    2.1742735    16.933682    0.1566806 
   24200   -947.31782    54.086324    -893.2315     1937.176    17259.509    2.2156539    22.651559   0.11797888 
   24300   -942.72918    41.186722   -901.54246     1475.159   -8342.6079    2.1507761    22.349569   0.14107499 
   24400   -944.78846    42.489355   -902.29911    1521.8146   -14433.188    2.1349287    24.565105   0.13529586 
   24500   -944.72531    49.824873   -894.90043    1784.5462    9608.4608    2.1947675    23.175937   0.13635632 
   24600   -945.13395    47.079406   -898.05454    1686.2136    8228.0888    2.1928436    21.486533   0.13605201 
   24700   -948.24697    43.759341   -904.48763    1567.3009   -10507.256    2.1564077    23.310095   0.12616968 
   24800   -941.95809    46.100617   -895.85747    1651.1569   -3246.0361    2.1589823    23.147788   0.13604117 
   24900   -944.38393    49.271328    -895.1126    1764.7203    12235.615    2.1947473    21.014875    0.1482556 
   25000   -943.63045    42.671234   -900.95922    1528.3289    2741.2578     2.178389    22.658451   0.14421664 
   25100   -943.62136    47.726268    -895.8951    1709.3818   -9891.5762     2.146681    21.139235   0.13915757 
   25200   -941.55064    48.588005   -892.96263    1740.2461    1731.5642    2.1650201     22.93392   0.14017495 
   25300   -946.93542    47.820794   -899.11463    1712.7674    5011.3446     2.190033    25.293424   0.11804157 
   25400    -943.4578    43.208621   -900.24918    1547.5761   -524.36515    2.1718389    25.330494   0.15296719 
   25500   -939.43224    48.565552   -890.86669    1739.4419    -8258.357    2.1423433    26.528118   0.14282789 
   25600   -945.28719    46.069746   -899.21744    1650.0512    6031.7104    2.1930662    24.353456    0.1430758 
   25700   -948.54272    48.845815   -899.69691      1749.48    1040.3821    2.1824662     23.08171   0.11905077 
   25800   -942.22538    47.903148   -894.32223     1715.717   -8954.6387    2.1440226    22.180938   0.13015811 
   25900   -941.38617    48.131228   -893.25494    1723.8861   -3211.4622    2.1580005    22.677809   0.14962779 
   26000   -951.72172    51.185957   -900.53576    1833.2954    9922.1109    2.2110307    21.829429   0.13246078 
   26100   -942.59828    45.729152   -896.86913    1637.8524    2502.5396    2.1701129     23.58164   0.13922738 
   26200   -940.18779    44.346986   -895.84081    1588.3482   -14500.859     2.126943      19.4557   0.15197804 
   26300   -948.82341    43.537255   -905.28616    1559.3466     7246.583    2.2007342    23.614782   0.12454314 
   26400   -949.76934    51.821805   -897.94754    1856.0691    6539.8113     2.200588    22.226403   0.12949664 
   26500   -945.54458    48.482328   -897.06226    1736.4612   -7510.2529     2.157002    23.275747   0.13797622 
   26600   -944.74919    43.200971   -901.54822    1547.3021   -4020.8932    2.1646232    22.002477   0.13553875 
   26700   -946.67671    42.525299   -904.15141     1523.102    7164.8735    2.1970299    21.169831   0.14243337 
   26800    -943.7541    48.039422   -895.71468    1720.5979   -205.65559    2.1680135    24.025167   0.12967874 
   26900   -946.87531    47.808316   -899.06699    1712.3205   -5381.1506    2.1594957    22.158473   0.13628096 
   27000   -947.64473    44.297079   -903.34765    1586.5607    1194.6966    2.1816278    24.035019   0.13761869 
   27100    -946.1499    51.367217   -894.78269    1839.7874    4462.7077    2.1821126    25.203313   0.13192696 
   27200   -944.47986    49.020816   -895.45905    1755.7478   -846.35505    2.1661754    23.022744   0.13179806 
   27300   -944.78286     44.50337   -900.27949    1593.9493   -7028.6576    2.1537168    21.695501   0.11498081 
   27400   -945.61079    47.262051   -898.34874    1692.7553    2861.2002    2.1784923     22.86551    0.1279431 
   27500   -942.71281    52.380474   -890.33233    1876.0786    2758.3367    2.1706018    24.145938    0.1420659 
   27600   -944.11765     45.48109   -898.63656    1628.9677   -3131.0217    2.1616249    23.036357   0.13568639 
   27700    -945.0246      45.3401    -899.6845     1623.918   -3254.4331    2.1637965    21.635695   0.13399184 
   27800   -940.73003    49.348734   -891.38129    1767.4927    7230.4735    2.1784025    22.353475   0.13851196 
   27900   -942.45544     46.27882   -896.17662    1657.5395    4728.1771    2.1787235    23.668871   0.13742165 
   28000     -942.929    42.102034   -900.82697    1507.9422   -10830.783    2.1400905    27.226017   0.13624189 
   28100   -942.90544    46.565054   -896.34038    1667.7914    1139.2509    2.1677461    22.602364    0.1354141 
   28200   -947.98315    52.293949    -895.6892    1872.9796    14096.041    2.2089025    23.030154   0.13091779 
   28300   -948.91116    44.104697   -904.80646    1579.6703   -3194.1097    2.1757817    18.216888   0.11647526 
   28400   -943.32893    44.134761   -899.19417    1580.7471   -12373.481    2.1372954    19.874328   0.13760239 
   28500   -942.04624    46.589902   -895.45634    1668.6813     6405.728    2.1784266    20.640906   0.14504553 
   28600   -946.26454    43.582574   -902.68196    1560.9697    5162.0708    2.1914692    23.213611   0.13774931 
   28700   -946.84597     46.43292   -900.41305    1663.0588   -3279.9511    2.1673301    23.634454    0.1440627 
   28800   -944.17354    48.765569   -895.40797    1746.6058   -4267.3621     2.158866    23.353994   0.12706839 
   28900   -945.86426    46.214419   -899.64984    1655.2329    2026.3327    2.1834251    22.219213   0.14606722 
   29000   -949.52748    46.267686   -903.25979    1657.1407    2549.5485    2.1877187    20.184651   0.13145596 
   29100   -940.21789    47.320275   -892.89761    1694.8406    -5357.495    2.1482894    21.385498    0.1469379 
   29200   -945.98692    48.046215   -897.94071    1720.8412   -101.93959    2.1767338     19.91993   0.16125993 
   29300   -946.26433    45.620996   -900.64334    1633.9786    6834.4554    2.1918526    21.068309   0.13598062 
   29400   -941.66559    50.266299    -891.3993    1800.3565   -3007.4447    2.1539914    21.335598   0.13993959 
   29500   -945.12788    48.964112   -896.16377    1753.7169   -2513.0373    2.1627708    26.414517   0.14946719 
   29600   -944.55957    44.589355   -899.97022     1597.029    6029.1849     2.185067    24.785799    0.1370028 
   29700   -943.40772    47.749528   -895.65819    1710.2149    2192.1431    2.1717914    25.556492   0.16207954 
   29800   -940.04201    47.294102   -892.74791    1693.9032   -6816.4307    2.1368648    22.504122   0.14112785 
   29900   -945.31609     43.45001   -901.86608    1556.2218    1881.5217    2.1792484    20.345837   0.12749436 
   30000   -945.88313    49.203493   -896.67964    1762.2907    12665.548    2.2004042    20.117817   0.14208468 
   30100   -942.71593    47.156887   -895.55904    1688.9887   -7435.1842    2.1478727    21.650619   0.12871847 
   30200   -949.68622    44.373312   -905.31291    1589.2911    -9799.377     2.155541     23.40673   0.13708837 
   30300   -947.57834    47.410563   -900.16778    1698.0744    6353.7425    2.1927832    22.174712   0.13073506 
   30400   -942.60073    47.292298   -895.30843    1693.8386     5772.602    2.1814907    23.995482   0.13718666 
   30500   -946.44756    46.103773   -900.34379    1651.2699   -9342.6412    2.1499492    24.650502   0.14189373 
   30600   -948.37719    44.644863   -903.73233    1599.0171    -3687.881    2.1731924    23.486269   0.12824104 
   30700   -942.19147    47.334763    -894.8567    1695.3596    7624.1653    2.1844965     24.77521   0.13812579 
   30800   -943.17055    44.485599   -898.68495    1593.3128    430.96898    2.1711229    22.128536   0.13435761 
   30900   -947.44478    43.092222   -904.35256    1543.4071   -3764.3955    2.1692452    22.510379   0.12883436 
   31000   -946.15974    50.283558   -895.87618    1800.9747     1379.792    2.1739777    21.421748   0.11544638 
   31100   -943.37981     47.72829   -895.65152    1709.4542    4498.5122    2.1813884    25.028275    0.1262684 
   31200   -945.70361    44.518485   -901.18513    1594.4907   -3613.6096    2.1677264    24.810702   0.13386171 
   31300      -943.01    46.470065   -896.53993    1664.3892    4.5564174    2.1670184    26.633286   0.13208609 
   31400   -940.40591    47.423305   -892.98261    1698.5308     678.2014    2.1703776    25.595935   0.14427216 
   31500   -945.61949    45.658253   -899.96123     1635.313   -302.06383    2.1753601    23.093316   0.12807869 
   31600   -944.17813    46.410306   -897.76782    1662.2489   -1608.1128    2.1683883    20.860913   0.12633326 
   31700   -940.20194    49.552337    -890.6496     1774.785   -921.00893    2.1606008    20.330721   0.15240586 
   31800   -945.70554    45.659694   -900.04585    1635.3646    3889.8275    2.1829644    20.575109   0.13154576 
   31900   -945.00516    46.388967    -898.6162    1661.4846   -2094.3615    2.1673729    24.611074   0.12819997 
   32000   -942.03095    49.588939   -892.44202     1776.096   -5278.8573    2.1535825    22.065299    0.1251677 
   32100   -947.60227    45.673217   -901.92905     1635.849    2366.8168    2.1883247     24.84915   0.13683219 
   32200   -946.66736    46.592804   -900.07456    1668.7853    -3252.722    2.1688635    22.215253   0.12873371 
   32300   -943.84413    48.055674   -895.78846      1721.18   -3413.2313    2.1594815    21.596529   0.13454168 
   32400   -945.57063    45.058383   -900.51225    1613.8279    4199.0448    2.1876981     20.32562   0.12697805 
   32500   -944.86973    41.644489   -903.22524    1491.5546    4639.6238     2.185528    21.287602   0.12535756 
   32600   -944.49242    47.330668   -897.16175    1695.2129   -6710.2869    2.1552141     20.82288   0.13236012 
   32700   -942.51713    45.789754   -896.72738    1640.0229   -1306.9888    2.1635519    23.132531   0.12492874 
   32800   -948.97345    44.015822   -904.95763    1576.4871    8042.9255    2.2043836    22.149833   0.11575608 
   32900   -942.46406    45.927551   -896.53651    1644.9583   -1274.4673    2.1669299     24.78092   0.13232855 
   33000   -943.57893     46.55974   -897.01919     1667.601   -6377.0985    2.1563554    24.182654   0.13037573 
   33100   -948.58392    46.869419   -901.71451    1678.6926    2500.6788    2.1902896    24.194643   0.12025087 
   33200   -949.36214    45.143131   -904.21901    1616.8632    6774.2269    2.2007574    24.563157   0.12502784 
   33300   -941.40519    46.613409   -894.79178    1669.5233   -7376.8955    2.1465055    23.106509    0.1275837 
   33400    -944.2775    45.417685   -898.85981    1626.6968   -2161.2162    2.1646095    22.328419   0.14661994 
   33500   -948.35651    48.400623   -899.95588    1733.5348     8592.453     2.205528    22.990656   0.13212737 
   33600   -942.81835     53.25752   -889.56083    1907.4912   -2611.1069    2.1604074    19.708293   0.14335358 
   33700    -943.8694    47.473179   -896.39622    1700.3171   -5488.7367    2.1559453    21.905789   0.13379253 
   33800   -947.31065    49.061746   -898.24891    1757.2138    331.41782    2.1776907    24.183811   0.14397876 
   33900   -940.45626    48.293487   -892.16277    1729.6976    5420.9747    2.1787579    18.554248   0.16300431 
   34000   -938.75533    46.548589   -892.20674    1667.2016   -3877.6803    2.1492554    22.350146   0.13093014 
   34100   -944.39916    44.652928   -899.74623    1599.3059    -6037.916    2.1582145    27.291911   0.14518662 
   34200   -944.40043    49.064113   -895.33631    1757.2986    11422.286    2.1953614    15.004045   0.16357398 
   34300   -946.88267    53.297517   -893.58515    1908.9238    281.50136    2.1755712     12.26459   0.16673395 
   34400   -946.89434    44.361894   -902.53245    1588.8822   -19310.441    2.1311715    14.930321   0.14628858 
   34500   -947.10709    46.838722   -900.26837    1677.5932   -1943.2426    2.1707025    14.667428   0.15807819 
   34600   -942.88168    48.925167   -893.95652    1752.3221    17019.899    2.2115243    13.789165   0.16493156 
   34700     -940.878    42.317357   -898.56064    1515.6543   -1595.5872    2.1642726    15.093592   0.16928561 
   34800   -946.60315    41.920957    -904.6822    1501.4567   -10020.785    2.1533221    13.951162   0.16126874 
   34900   -941.87207    46.339577   -895.53249    1659.7156    2756.3396    2.1763346     12.36547   0.16414362 
   35000   -946.48703    51.221689   -895.26534    1834.5752    4787.2477    2.1860189    13.693596   0.15482785 
   35100   -947.41732     46.11913   -901.29819      1651.82   -5299.8755    2.1630094    13.886561    0.1507409 
   35200   -943.23645    48.053842   -895.18261    1721.1143   -5272.4117    2.1578927    16.478969    0.1501032 
   35300   -943.65161    50.774487   -892.87712     1818.558    4303.9218    2.1766566    14.042494   0.15857845 
   35400   -941.34898    43.074287   -898.27469    1542.7648    3792.4192    2.1722645    13.701292   0.15942085 
   35500   -937.20147    38.461255   -898.74022    1377.5427   -1452.0622    2.1566779    13.985975   0.16637934 
   35600   -937.21974    48.373177   -888.84656    1732.5518    690.44153    2.1568704    15.068333   0.17604743 
   35700   -941.04288    44.390079   -896.65281    1589.8916    11869.654    2.1953628    12.956808   0.15783951 
   35800   -940.21164    41.358884   -898.85276    1481.3252   -2012.0661    2.1651747    16.406341   0.16372261 
   35900   -941.75087    48.623283   -893.12759    1741.5097   -10017.839    2.1423583    16.217292   0.15374886 
   36000   -940.93811    50.775615    -890.1625    1818.5984    4580.6511    2.1763776    14.233663   0.14720683 
   36100    -945.5901    46.873911   -898.71619    1678.8535    9643.4204    2.2008048    14.729672   0.12874549 
   36200   -941.94064    44.872803   -897.06784    1607.1811   -5955.5549    2.1532435     13.99436   0.15980663 
   36300   -938.17482    43.711453   -894.46337    1565.5857   -8697.6069    2.1421259    14.555092   0.16066571 
   36400   -947.22335    42.786616   -904.43673    1532.4614    11171.621    2.2114827    16.470838   0.16338593 
   36500   -945.61038     47.69041   -897.91997    1708.0975    5451.4852    2.1855423     13.28735   0.15863858 
   36600   -942.53505    46.222289   -896.31276    1655.5148   -12729.351    2.1366592    13.016755   0.14212412 
   36700   -945.67632    46.318356   -899.35796    1658.9555   -723.77794    2.1727808    15.078754   0.13948762 
   36800   -946.26628    44.424208   -901.84207     1591.114    19163.762       2.2275    12.889984   0.14224783 
   36900   -938.08002    45.679724   -892.40029    1636.0821   -5711.2068    2.1421085    11.442463   0.15317031 
   37000   -942.63291    45.880964   -896.75195    1643.2897   -15061.832    2.1295674    16.155409   0.14509272 
   37100   -944.35848    45.396402   -898.96208    1625.9345    9388.1655    2.1966166    12.749294   0.14485283 
   37200   -940.48716    47.053829   -893.43333    1685.2975    5704.1568    2.1782813    13.963539    0.1656922 
   37300   -939.25968    47.547236   -891.71244    1702.9695   -6816.6497    2.1442223     12.83976   0.14895746 
   37400   -945.56945    46.220066   -899.34938    1655.4351   -2041.0773    2.1664847    16.915904   0.16633438 
   37500   -946.09822    49.846339   -896.25188    1785.3151    6857.1769    2.1854903    15.041546   0.16391122 
   37600   -942.05938    53.148878    -888.9105    1903.6001    1959.1704    2.1628226    14.277308   0.15483881 
   37700   -944.45868    46.047958   -898.41073    1649.2708   -5610.3124    2.1554813    14.568413   0.13761651 
   37800   -943.26452    44.704816    -898.5597    1601.1644   -5862.2415    2.1577518    16.544826   0.14637274 
   37900   -943.65646    48.728947   -894.92751    1745.2942    7678.0946    2.1872381    15.698495   0.15505778 
   38000   -942.57488    54.158419   -888.41646    1939.7582     979.3028    2.1673538     19.59999   0.14366663 
   38100   -939.48764    47.384877   -892.10276    1697.1545   -10713.132    2.1342633    19.491123   0.17712847 
   38200   -943.44773    46.011837    -897.4359    1647.9771   -3444.9659    2.1639273    29.196086   0.16718998 
   38300   -940.38907    45.323807   -895.06526    1623.3344    15140.039    2.2000828    42.662775   0.15810658 
   38400   -943.68769    42.153744   -901.53395    1509.7942   -614.93266    2.1719881    41.815661   0.17171223 
   38500   -944.72867    40.503167   -904.22551    1450.6765   -6710.1732    2.1559222    50.191124   0.13116229 
   38600      -942.97    46.308284   -896.66171    1658.5948    4636.1298    2.1786635    51.973516   0.14955528 
   38700   -943.33344    46.923267   -896.41017    1680.6213    5858.3291    2.1822855    58.125466   0.13014207 
   38800   -947.77831    44.058619   -903.71969      1578.02   -2609.2035    2.1715375    52.200205   0.12179192 
   38900   -943.04861    44.957983   -898.09063    1610.2319   -2675.0169     2.162737    52.649996    0.1485676 
   39000    -942.9161     47.81315   -895.10295    1712.4936    6686.6528    2.1832568    55.151201   0.13811918 
   39100   -947.15008    46.748968   -900.40112    1674.3785    1206.7591    2.1773916    53.722213   0.12437477 
   39200   -947.81547    47.833543   -899.98193     1713.224   -7292.0713    2.1638036    57.307425   0.13433725 
   39300    -939.4964    47.989914   -891.50648    1718.8247   -90.870463    2.1581333    55.688258   0.14460493 
   39400   -943.95846    46.679929   -897.27853    1671.9058    5560.8235    2.1896912    61.431177   0.15785671 
   39500   -942.87402    43.945096   -898.92892     1573.954   -3.2754321    2.1748639    67.257523   0.15871001 
   39600    -940.0801    49.599083   -890.48102    1776.4593   -12484.377    2.1301633    60.707531   0.16042138 
   39700   -943.55507    44.919047   -898.63602    1608.8374    10336.051    2.1942284     61.79102   0.15347398 
   39800   -947.06422    49.409296   -897.65492    1769.6618    8217.9867    2.1945433    54.166336    0.1517797 
   39900   -942.60371    45.935498   -896.66822    1645.2429   -10742.626    2.1384765    56.407758   0.16983182 
   40000   -938.73986     51.19982   -887.54004    1833.7919   -6565.9133      2.13711    51.052816   0.15411543 
   40100   -941.47389    48.367549   -893.10634    1732.3502    14510.646    2.1979854    51.159948    0.1456231 
   40200   -941.73667    44.847501   -896.88917    1606.2748   -2006.4328    2.1597376     56.86771   0.15216312 
   40300   -943.89402    46.034305   -897.85972    1648.7819   -8475.6855    2.1484515     58.77787   0.15338195 
   40400   -940.09325    44.676195   -895.41705    1600.1393    6279.1823    2.1802699    66.750237   0.15588813 
   40500   -937.85732    50.969203   -886.88812     1825.532   -231.71993    2.1589563    47.979528   0.17228985 
   40600   -941.46052    45.650344   -895.81018    1635.0298   -1486.4058    2.1594217    54.950193   0.15535516 
   40700   -946.74393    49.038252   -897.70567    1756.3724   -456.59083    2.1711347     56.09575   0.16003735 
   40800   -942.47596     45.33598   -897.13998    1623.7704    5487.3683    2.1787804    53.686976   0.16559377 
   40900   -936.81972    50.987795   -885.83193    1826.1979   -1218.7815    2.1477148    51.633088    0.1668615 
   41000    -945.2951    51.524151   -893.77095    1845.4083    2743.4229     2.172708    49.432292   0.14377888 
   41100   -946.11864     49.18881   -896.92983    1761.7648   -1358.2666    2.1711008    53.213049   0.13810517 
   41200   -944.38623    46.056375   -898.32986    1649.5723   -2032.6106    2.1659621    55.017487   0.15704145 
   41300   -948.32197    41.807908   -906.51406    1497.4077    1992.3751     2.187815    54.489926   0.13192627 
   41400   -948.52221    48.291984   -900.23023    1729.6437    3712.1492    2.1854828     60.58688   0.14719606 
   41500   -946.50884    49.583049    -896.9258     1775.885    717.28228     2.177315    52.509647   0.14858316 
   41600   -941.03113    43.815588   -897.21554    1569.3155    -4536.636     2.157125    57.555369   0.14508823 
   41700   -942.93523     45.12965   -897.80558    1616.3804    1982.5568    2.1771336    52.939713   0.15728871 
   41800   -950.80811    43.014364   -907.79375    1540.6185    10816.297    2.2197395    53.466653    0.1617826 
   41900   -944.94179    44.049051   -900.89273    1577.6773   -8360.1575    2.1582955    55.711199   0.14802203 
   42000   -942.94263     45.13398   -897.80865    1616.5355   -5831.6801    2.1566481     53.41525   0.16086208 
   42100   -942.30342    47.894296   -894.40912       1715.4    8767.4534     2.194187    51.017739   0.16328116 
   42200   -945.61771    42.945794   -902.67192    1538.1626    2340.7984    2.1869074    52.172067   0.16087507 
   42300   -946.36897    44.828537   -901.54044    1605.5956   -10249.542     2.158281     55.80608   0.13853123 
   42400   -941.58266    45.933632   -895.64903    1645.1761     2384.527    2.1742626    54.011316   0.15764212 
   42500   -946.53872    48.776275   -897.76244    1746.9893    4574.4877    2.1881446    50.720626   0.14799586 
   42600   -948.35863      43.0477   -905.31093    1541.8125   -2075.4738    2.1768988    51.181707   0.14908652 
   42700   -940.37446    44.612626   -895.76184    1597.8625   -5857.8527    2.1480705    58.049291   0.17910773 
   42800   -943.07711    47.553492   -895.52361    1703.1936      6390.03    2.1826296    69.554644   0.16219619 
   42900   -946.39373    45.816949   -900.57678     1640.997    8454.7785    2.1938594    61.436092   0.15549378 
   43000   -939.61936    47.154202   -892.46516    1688.8925   -5618.7239    2.1486806    48.908908   0.15613299 
   43100   -937.65675    43.637782   -894.01897    1562.9471   -417.35355    2.1560766    44.074438   0.14942549 
   43200   -945.34102    46.647275   -898.69374    1670.7362    5327.9343    2.1892618    52.567724    0.1416099 
   43300    -947.2904    47.168868   -900.12153    1689.4178    2305.3005    2.1814101    50.425769      0.14619 
   43400   -936.19829    46.355393   -889.84289    1660.2821   -11580.685    2.1213394    46.586255   0.13675176 
   43500    -945.0732    46.662925   -898.41028    1671.2968    4245.2584    2.1832305    50.324953   0.14946024 
   43600   -944.27765    46.100195   -898.17745    1651.1418    16900.885    2.2122488    51.810319   0.15285975 
   43700    -946.3888    48.030522   -898.35828    1720.2791   -11187.499    2.1425635    51.165311   0.13588905 
   43800   -935.63735    44.689559   -890.94779    1600.6179   -7905.3962    2.1271873    52.516688   0.15364056 
   43900   -945.77407    44.546088   -901.22798    1595.4793    14483.397    2.2095716    49.024074   0.13245824 
   44000   -946.41053     46.40386   -900.00667     1662.018     -253.007    2.1746587    45.924297   0.14172011 
   44100   -942.21338    45.591745   -896.62164     1632.931   -6361.2632    2.1490546    47.440213   0.13826475 
   44200   -941.41935    47.701572   -893.71777    1708.4973    1950.5616    2.1706186    41.807329   0.14846918 
   44300   -948.01353    43.763179   -904.25035    1567.4384    7864.9462     2.200996    44.056161   0.15272524 
   44400   -945.02706    45.625908   -899.40116    1634.1546   -7911.8318    2.1556587    55.426866   0.16522549 
   44500   -942.32152    46.349381   -895.97214    1660.0667   -1432.2856    2.1583121    56.863673   0.15267968 
   44600   -943.78255    46.736778   -897.04578    1673.9419    4854.5483     2.184478    76.758798   0.15682324 
   44700   -948.05297    43.185844   -904.86713    1546.7603    139.10269    2.1857939    52.905406   0.15920757 
   44800   -944.72462    47.771005   -896.95362    1710.9841   -6844.9291    2.1515335    39.006141    0.1448302 
   44900   -945.89905     50.11692   -895.78213    1795.0063    176.95305    2.1733787    36.525559   0.15729543 
   45000   -949.53057    47.245716   -902.28485    1692.1702    6045.9886    2.1928049    31.689913   0.13877544 
   45100   -946.71485    48.113216   -898.60163    1723.2409   -4586.1413    2.1667865    34.627659   0.15427408 
   45200   -942.70403    48.758867   -893.94517    1746.3658   -6286.5527     2.150624     42.06471   0.15883657 
   45300   -947.18693    48.533581   -898.65335    1738.2968    3067.7203     2.185147     40.08565   0.15569758 
   45400   -946.98546    48.341334   -898.64413    1731.4113    8335.3794    2.2006524    38.365807    0.1667521 
   45500   -936.76707    47.425058   -889.34201    1698.5936   -12242.668    2.1210391    42.257269   0.16894192 
   45600   -943.94392    45.068257   -898.87567    1614.1815   -3976.9662    2.1591068    29.927952   0.16276679 
   45700   -944.51597    47.139105   -897.37686    1688.3518    13926.205    2.2044814    53.143624   0.16322543 
   45800   -943.78034    49.401317   -894.37903     1769.376    2360.5142    2.1694349    40.671276   0.15437877 
   45900   -939.68624    47.697192   -891.98905    1708.3405   -12285.792    2.1293625    35.184785   0.16991049 
   46000   -944.70273    44.466547   -900.23619    1592.6305    4443.4064    2.1835374    39.919271   0.15194593 
   46100   -944.19981    48.743819   -895.45599    1745.8268    8916.3184    2.1899235    36.425231   0.13729424 
   46200   -939.76493     47.39709   -892.36784    1697.5919    -3395.071    2.1512577    39.684235   0.16165195 
   46300   -943.74785    41.206698   -902.54115    1475.8745    791.56506    2.1737585    42.635951   0.16134975 
   46400   -944.30629    45.967163   -898.33913    1646.3771     2395.353    2.1796437    35.570177   0.16973088 
   46500   -940.31796    46.283852    -894.0341    1657.7197    4339.6082    2.1698956     42.79133   0.15457877 
   46600   -946.73159    46.311401   -900.42018    1658.7064   -5225.1052    2.1637804    41.243806   0.15497829 
   46700   -946.61468    45.001203   -901.61348    1611.7799   -4508.5421    2.1641226    38.466467    0.1410353 
   46800   -944.03131    49.895204   -894.13611    1787.0653     1094.279    2.1755946    40.606939   0.16258241 
   46900   -943.00505     44.46985    -898.5352    1592.7488    764.82106      2.17971    40.303975    0.1572042 
   47000   -947.11618    42.385356   -904.73083    1518.0897   -8420.7455    2.1567157    37.329636   0.13686258 
   47100   -939.10775    43.621487   -895.48626    1562.3635   -5627.3541    2.1507074    37.008722   0.13992492 
   47200   -947.03069     51.49974   -895.53095    1844.5339    16597.076    2.2175124    41.254121   0.13491857 
   47300   -948.03018    47.152874    -900.8773    1688.8449    1039.7262    2.1800049    39.528159   0.13999611 
   47400   -939.96293    45.129386   -894.83354    1616.3709   -14458.334    2.1212666    39.324874   0.16387869 
   47500   -941.74112    49.694476   -892.04664    1779.8759    1965.9437    2.1716809    36.320659   0.16059964 
   47600   -946.80763    47.978156   -898.82947    1718.4035    10353.747    2.2016605    36.442304   0.13466946 
   47700    -945.7518    46.788861   -898.96294    1675.8073   -3663.5666    2.1662947    40.278337   0.12506895 
   47800   -938.51691    47.783161   -890.73374    1711.4195   -7764.0087     2.144321    39.074944   0.15349079 
   47900   -945.49459    45.340021   -900.15456    1623.9151     5883.936    2.1902072     38.60354   0.14836054 
   48000   -946.08819    46.420874   -899.66731    1662.6273    283.69271    2.1750701    40.937014   0.14715654 
   48100   -944.86495    49.454605   -895.41035    1771.2846   -7368.7085    2.1547075    39.089928    0.1426886 
   48200    -940.4929    45.072947   -895.41995    1614.3495    94.908334    2.1664625    38.314698   0.14246424 
   48300   -944.36326    41.567373   -902.79589    1488.7926    9163.9594    2.1969252    40.429985   0.14646964 
   48400   -942.08001    44.443087   -897.63692    1591.7902    27.899458    2.1691783    35.374854   0.15024612 
   48500   -941.12885    44.643362   -896.48549    1598.9633   -6888.6138    2.1480133    35.523301   0.14795194 
   48600   -946.96864    41.175975   -905.79267    1474.7741    5514.7326    2.1938801    35.417538   0.12212843 
   48700   -943.29201    44.419307    -898.8727    1590.9385    9291.6493    2.1880733    38.396439   0.13353796 
   48800   -944.34619    47.671585   -896.67461    1707.4233   -6807.7154    2.1547379    41.750582   0.14441111 
   48900   -944.93556    43.599581   -901.33598    1561.5789   -7836.0336    2.1550831    41.068088   0.13835801 
   49000   -948.71324    46.339229   -902.37401    1659.7031    11309.883    2.2069389    39.691353   0.13736698 
   49100   -942.04468    48.397555   -893.64712    1733.4249    4174.8206     2.176263     37.22656   0.13634637 
   49200   -943.35551     44.37306   -898.98245    1589.2821   -14589.747    2.1350621    37.188342   0.13149343 
   49300    -948.3532       48.575    -899.7782    1739.7803   -1121.3018    2.1739223    37.165701   0.13642793 
   49400   -944.21273    54.128741   -890.08399    1938.6952    12220.304    2.1986817    35.835193   0.15031944 
   49500   -943.42225    47.882914   -895.53934    1714.9923   -2564.7947    2.1623678    40.322818   0.15560115 
   49600   -943.09273    42.271694   -900.82104    1514.0188   -4704.2311    2.1536341    38.804086   0.12910809 
   49700   -943.08369    48.453222   -894.63047    1735.4187    5594.0466    2.1801115    37.881962   0.12281977 
   49800   -938.23271    44.688073   -893.54464    1600.5647    6197.7295    2.1721333    45.815721    0.1300414 
   49900   -947.47785    45.727693   -901.75015    1637.8001   -2493.5256    2.1694667    36.264249   0.12071235 
   50000   -946.94149    49.506604   -897.43488     1773.147   -2456.7984    2.1680577     37.65718   0.13029339 
   50100   -942.52979    50.122403   -892.40739    1795.2027    2602.2342    2.1680187     39.39976    0.1241763 
   50200   -947.59561    45.388423   -902.20719    1625.6487     100.3537    2.1782407    39.956862   0.13602004 
   50300   -944.31234      45.5482   -898.76414    1631.3713   -7083.7715    2.1543504     41.21017    0.1312802 
   50400    -945.7246    50.440237   -895.28436    1806.5864   -208.51163    2.1711521    43.746933   0.12450468 
   50500   -951.90827     48.03481   -903.87346    1720.4327    4508.4365    2.1977277    36.399334   0.13318253 
   50600   -943.63351    44.546299   -899.08721    1595.4869   -4568.6743    2.1570289    39.554871   0.12377913 
   50700    -943.0203    46.846545   -896.17376    1677.8733   -4786.9015    2.1507129    33.877408   0.11122795 
   50800   -947.04057    47.445519   -899.59505    1699.3264    9152.8416    2.1953482    37.558639   0.12596653 
   50900   -951.66639    47.125474   -904.54092    1687.8636    3887.1234    2.1944388     39.08818   0.12168409 
   51000   -937.95163    43.296302   -894.65533    1550.7165   -15043.213     2.119733    46.585468   0.15419426 
   51100   -942.89283    44.938544   -897.95429    1609.5357    1141.2741    2.1735711    36.197674   0.14179983 
   51200   -947.12664    47.585163   -899.54148     1704.328    17243.377    2.2190108    40.020909   0.12758919 
   51300   -941.45363    49.010538   -892.44309    1755.3797   -4072.8848    2.1510155    41.562785   0.12840136 
   51400   -940.62847    45.161235   -895.46723    1617.5117   -8298.8717    2.1415148    44.108844   0.13235931 
   51500   -948.25798    48.240826   -900.01716    1727.8114    2194.0036    2.1853877    39.949827   0.12332837 
   51600   -948.39711    51.911447   -896.48567    1859.2798    3309.9269    2.1836378    39.734354   0.12647136 
   51700   -942.60169    50.011907   -892.58978    1791.2451   -8108.6595    2.1440431    37.158277   0.12434448 
   51800   -947.73749    45.794205   -901.94328    1640.1824   -620.19977    2.1746502    35.825901   0.10566817 
   51900   -946.45801    49.431171   -897.02684    1770.4453    5931.7729    2.1839977    41.168684   0.13376403 
   52000   -945.92767    51.194142   -894.73353    1833.5885   -4200.3266    2.1601329     39.70317   0.13015938 
   52100   -949.26677     44.98023   -904.28654    1611.0287   -1192.9762     2.178159    37.854934   0.11565845 
   52200   -948.15605    49.545243    -898.6108    1774.5309    -620.5504    2.1778768    33.393775   0.14086472 
   52300   -944.93714    49.521412   -895.41573    1773.6774    382.16382     2.174187    39.011977    0.1121006 
   52400   -952.31889    48.398171   -903.92072     1733.447   -3894.5574     2.175629     39.74812   0.12464213 
   52500   -944.05678    45.322573   -898.73421    1623.2902   -2792.4273    2.1646622    39.578874   0.13808905 
   52600   -941.76686    47.053031   -894.71383    1685.2689    9148.5151    2.1894236    36.388642   0.13758215 
   52700   -948.47144    47.297327   -901.17412    1694.0187   -69.037681    2.1780576    41.660563   0.12873763 
   52800   -945.76412    46.916741   -898.84738    1680.3875   -10946.308    2.1443519    36.997903   0.14615724 
   52900   -941.72992    49.059443   -892.67048    1757.1313    1650.2636    2.1653838    42.509572   0.13611664 
   53000   -942.35306    44.558694   -897.79436    1595.9308    11174.304    2.1984731    40.558726   0.15712083 
   53100   -947.56187    45.842471    -901.7194    1641.9111   -5284.4945     2.165578    42.595599   0.12930879 
   53200   -943.39336     50.75754   -892.63582     1817.951     -11945.7    2.1370069     37.77089   0.14094068 
   53300   -950.41059    53.216792    -897.1938    1906.0325    4710.3949    2.1930546    39.949717   0.14205393 
   53400   -947.21222    46.833405   -900.37881    1677.4027    5596.3279    2.1939338    36.809529   0.15171068 
   53500   -943.17934    47.284833   -895.89451    1693.5713   -8223.1594    2.1513643     36.73128   0.15883657 
   53600   -941.35027    48.391212   -892.95906    1733.1977   -4081.4931     2.153376    41.589044   0.13754228 
   53700   -947.43558    45.887749   -901.54783    1643.5328    9149.4751    2.2051973    41.463375   0.15601901 
   53800   -943.09242    46.632622   -896.45979    1670.2114    2449.1113    2.1747395    41.372585    0.1466133 
   53900   -942.90238    47.569248   -895.33313     1703.758   -7885.1955    2.1487791     36.91692   0.13875802 
   54000   -945.94115    42.145682   -903.79547    1509.5055    2911.5536    2.1885329     34.28645   0.15090321 
   54100   -945.93802    49.535356   -896.40267    1774.1768    766.12213    2.1779907    38.497034   0.14825442 
   54200   -941.11028    44.697476    -896.4128    1600.9015   -1039.6482    2.1650544    40.667354   0.17136006 
   54300   -947.45774     43.25135   -904.20639    1549.1065   -2028.8043      2.17736    40.729155   0.17149555 
   54400   -945.31823    48.599402   -896.71883    1740.6543    1689.5011    2.1745923    39.097879   0.14797823 
   54500   -940.65785    45.076182   -895.58167    1614.4654    3791.9902    2.1741435    38.281848   0.14122282 
   54600   -945.96146    42.955456   -903.00601    1538.5086   -1492.3058    2.1734924    38.360676   0.12931916 
   54700   -941.96126    45.941631   -896.01963    1645.4626   -775.70887    2.1627312    35.493361   0.14202027 
   54800    -940.3538    45.453939   -894.89986    1627.9952    5961.6836    2.1787436    42.602632   0.16686208 
   54900    -945.1692    43.682436   -901.48676    1564.5464     2709.309     2.180723    34.767995   0.13541096 
   55000   -943.59884    48.469497   -895.12934    1736.0016    -7587.183    2.1513449    32.473486   0.14761305 
   55100   -942.57302    48.459369   -894.11365    1735.6389   -652.44512     2.166107    36.338572   0.15303595 
   55200   -945.80954    45.339697   -900.46984    1623.9035    10010.293     2.198482    35.488169   0.14292808 
   55300    -943.6454    46.618578   -897.02683    1669.7084   -3386.2361    2.1608228     40.51741   0.15692916 
   55400   -938.80056    45.185055   -893.61551    1618.3648   -6873.8494     2.137955    44.467405   0.14413054 
   55500   -949.45822    47.594969   -901.86325    1704.6792    4993.6003    2.1965393     34.37386   0.13439103 
   55600   -947.27207    50.095849   -897.17622    1794.2516     9534.723    2.1971134    33.643953   0.14026749 
   55700   -943.32377    48.537965    -894.7858    1738.4539   -10019.719    2.1405297    35.633316   0.13288026 
   55800   -946.05569    42.032146   -904.02354     1505.439   -4418.1672    2.1660396    37.279765    0.1363835 
   55900   -947.67959    48.820378   -898.85922    1748.5689    8239.6834    2.1957457    38.606389   0.12707132 
   56000   -946.47514    52.236535    -894.2386    1870.9233    878.93818    2.1746366    37.974379   0.13581245 
   56100   -946.73835     44.61792   -902.12043    1598.0521   -9690.3238    2.1532767    37.242652   0.13611672 
   56200   -947.06429    46.816862   -900.24742    1676.8102   -1152.5321    2.1717254    38.428699   0.12958844 
   56300   -937.90266    44.976296   -892.92637    1610.8878    8276.0685    2.1810471    36.910602   0.14790729 
   56400   -946.72944    46.088571   -900.64087    1650.7255   -919.54143    2.1727866    38.469813   0.12713869 
   56500   -946.75417    46.121673    -900.6325    1651.9111   -5103.7916    2.1617946    37.797048    0.1181573 
   56600   -940.19445    47.318927   -892.87552    1694.7924    519.57017    2.1635306    38.717285   0.13278068 
   56700   -947.45881    47.516437   -899.94237    1701.8665    3596.1437    2.1858295    34.938007   0.13125251 
   56800   -947.80724    46.800912   -901.00633     1676.239   -3400.5288    2.1713301    36.918845   0.12631207 
   56900   -944.25338    51.267476   -892.98591    1836.2151   -5095.6542    2.1528243    38.831217   0.12097976 
   57000    -946.2402    45.741069   -900.49913    1638.2792    2826.4653    2.1849148    41.391689   0.13003827 
   57100   -946.78617    46.583832   -900.20234    1668.4639    418.45361    2.1782284    42.470721   0.11443158 
   57200   -943.45388    50.399997   -893.05388    1805.1451   -4312.1051    2.1549842     36.08278   0.12427766 
   57300    -946.1944    44.786485   -901.40792    1604.0895    1658.4379    2.1762835    38.490584   0.12384558 
   57400   -945.82874    45.794641    -900.0341     1640.198    2917.0828    2.1779919    37.296809   0.12118482 
   57500   -939.19252    45.563025    -893.6295    1631.9023    766.26149    2.1608706    43.080266   0.13981432 
   57600   -948.01257    46.238688   -901.77388    1656.1021   -2563.0933    2.1742745     38.50631   0.11773273 
   57700     -948.509    48.301932   -900.20707    1730.0001   -219.73328    2.1760552    39.760448   0.10881447 
   57800   -942.30261    48.503531   -893.79908    1737.2206    1838.6455    2.1684408     40.11336   0.12979675 
   57900   -946.07809    44.367616   -901.71047    1589.0871     738.9897    2.1804842    41.657241   0.14306671 
   58000   -945.33595    44.744016   -900.59193    1602.5684   -1773.0304    2.1702329    41.471703   0.13797759 
   58100   -944.72661     50.60413   -894.12248    1812.4564   -2499.2368    2.1638187    39.373717    0.1235593 
   58200   -946.68503    45.524025   -901.16101    1630.5055    3589.8341    2.1850483    39.646875   0.12808322 
   58300   -944.55283    43.646641   -900.90619    1563.2644    78.195835    2.1759381    37.985936   0.12529305 
   58400   -942.77241    48.631522   -894.14089    1741.8047   -6676.5301    2.1523678    37.372762   0.13123425 
   58500   -947.77429    46.663907   -901.11038    1671.3319    664.70778    2.1840418     40.54984   0.13124685 
   58600   -943.72467     43.60268   -900.12199    1561.6899    7250.7148    2.1951184    42.027223   0.12628352 
   58700   -940.60729    47.342256   -893.26503    1695.6279   -5620.9833     2.151846     38.91418   0.14625603 
   58800   -946.27933    44.890953   -901.38837    1607.8311   -4750.7822     2.162799    42.916476   0.12721269 
   58900   -944.82207    45.219804   -899.60227    1619.6094    7225.6011    2.1891455    36.927513     0.120809 
   59000   -938.18857    45.820204   -892.36836    1641.1135     5215.062    2.1743642    40.443613   0.15658482 
   59100   -943.93778     43.81655   -900.12123    1569.3499   -5340.6879    2.1577169    35.927274   0.12314594 
   59200   -946.66694    46.033175   -900.63377    1648.7414    -4521.804    2.1668441    39.771642   0.11865693 
   59300   -946.74112    54.128892   -892.61223    1938.7006    6385.0316    2.1853689    39.059734   0.12330711 
   59400   -945.15143    45.494395   -899.65704    1629.4442    3725.3391    2.1805667    35.549543   0.12511161 
   59500   -951.19829    48.932957   -902.26533    1752.6011   -11244.116    2.1551392     40.56159   0.11844048 
   59600   -942.89635    48.816099   -894.08025    1748.4156   -1666.9067    2.1631465    39.765554   0.12099349 
   59700   -946.56296    47.791931   -898.77103    1711.7336    9637.2064    2.1955355    38.014505    0.1240479 
   59800   -950.07013    47.203156   -902.86698    1690.6459   -2804.3768    2.1769408    39.375779   0.10732571 
   59900   -942.14766    47.612433   -894.53522    1705.3047   -8813.7256    2.1390949    37.247336   0.12891628 
   60000   -948.22548     49.75354   -898.47194    1781.9914    1366.5554    2.1805491    37.231946    0.1308553 
   60100    -948.0437    46.760306    -901.2834    1674.7846    8263.3411    2.2003871    35.997497   0.12538247 
   60200   -942.95864    48.986226   -893.97241     1754.509    -7724.784    2.1486931    39.068322   0.12153894 
   60300   -943.28114    45.956049    -897.3251     1645.979    -7797.519    2.1509513    41.097841   0.12480766 
   60400   -947.46821    46.500304    -900.9679    1665.4723    9944.0538    2.2060642     41.16424    0.1349464 
   60500   -941.73944     48.80364    -892.9358    1747.9694    8769.8809    2.1843229    40.391558   0.14262384 
   60600   -941.40152    44.866334   -896.53518    1606.9494   -16241.087    2.1232137    39.498102   0.13568054 
   60700    -945.8804    43.063203    -902.8172    1542.3678   -4509.0045    2.1648955    37.716048   0.13017986 
   60800   -940.80962    44.606853   -896.20276    1597.6557      25870.5    2.2277303    35.356246   0.15228111 
   60900   -948.69258    53.316442   -895.37614    1909.6016   -4820.6254    2.1646414    38.609801   0.11844434 
   61000   -947.18685    43.789999   -903.39685     1568.399   -9840.8982    2.1549855     41.65165   0.13034705 
   61100   -944.47692    44.409593   -900.06733    1590.5906    2519.2538    2.1816831    39.950351   0.14468188 
   61200   -944.16289    50.098749   -894.06414    1794.3555    4394.3627    2.1815094     40.17213    0.1387895 
   61300   -949.89747    48.194063   -901.70341    1726.1366   -3490.2841    2.1717484    38.590254   0.12770887 
   61400   -945.36282    45.030219   -900.33261    1612.8191   -3911.4469    2.1644061    40.752315   0.12806704 
   61500   -943.86205    50.246182   -893.61586     1799.636     3009.834    2.1765176    39.263087   0.13329307 
   61600   -943.70174    43.921089   -899.78065    1573.0941    5081.9214    2.1857836    38.686914   0.13624089 
   61700   -948.86207    46.701932   -902.16013    1672.6938   -6782.7418    2.1641302    35.668248   0.12661795 
   61800   -944.22993    51.258749   -892.97119    1835.9025   -5696.8627    2.1523784    39.753467   0.12282246 
   61900   -949.28459    50.667133   -898.61746     1814.713    6502.0657    2.1974207    39.842556   0.12647406 
   62000   -946.07262    45.017257   -901.05536    1612.3549    3111.3176    2.1831051    41.879736   0.14388056 
   62100   -941.79308    49.208789   -892.58429    1762.4804   -8029.1762    2.1408302    38.573631   0.14687208 
   62200   -944.67775    45.372756     -899.305    1625.0876    315.48084    2.1758358    37.833987   0.13995289 
   62300   -946.27563    46.027204   -900.24843    1648.5275    6819.0893    2.1966187    36.190969    0.1425118 
   62400   -941.71369    47.514545   -894.19914    1701.7987    -1157.736    2.1627245    39.653157   0.12411213 
   62500   -942.34202    45.618762   -896.72326    1633.8986   -8158.8034    2.1464807    38.058579   0.13976256 
   62600   -943.40904    41.561344   -901.84769    1488.5766     6916.438    2.1909566    37.457749   0.13395557 
   62700   -943.14151    49.273197   -893.86831    1764.7872    10159.332     2.193433    38.872514   0.14406084 
   62800   -943.37933    45.813643   -897.56568    1640.8786   -10384.754    2.1460976    39.044583    0.1269188 
   62900   -947.64278      43.2061   -904.43668    1547.4858   -11331.508     2.150905    41.968507   0.13461564 
   63000   -944.71294    48.259539    -896.4534    1728.4817    14508.802     2.209812    42.462783    0.1552023 
   63100   -946.12076    50.363024   -895.75774    1803.8209     4950.216    2.1888706    39.115387   0.13964088 
   63200   -949.26779    45.806613   -903.46118    1640.6267   -12387.093    2.1520619    38.335594   0.12687851 
   63300   -947.43145    48.399303   -899.03215    1733.4875   -3280.5728    2.1739262    36.730619   0.11941802 
   63400   -943.23154    49.322797   -893.90874    1766.5637    6860.7565    2.1846996    34.986885    0.1272061 
   63500   -946.35804    44.639525   -901.71852    1598.8259   -1236.6148    2.1758262    40.020949   0.12864582 
   63600   -943.50753    44.957398   -898.55013     1610.211   -4336.7961    2.1641925    41.357931   0.14312189 
   63700   -942.36378    50.076809   -892.28697    1793.5697   -1350.8087    2.1652078    44.755727   0.13799978 
   63800   -947.71378    47.571286   -900.14249    1703.8309    3962.8747    2.1901832    54.850985   0.14353542 
   63900   -943.36334    43.598861   -899.76448    1561.5531   -576.35337    2.1718096    56.314045   0.12933761 
   64000    -939.4285    46.493474   -892.93503    1665.2276   -4781.8958    2.1511066    56.159636   0.15391465 
   64100   -945.57859    43.753461   -901.82513    1567.0903    5623.2994    2.1942809    54.089142    0.1520145 
   64200   -948.61816     49.14371   -899.47445    1760.1495    3385.0692    2.1837316    51.288406   0.13974532 
   64300   -941.89553    47.257163   -894.63836    1692.5802    -6661.815    2.1473054    53.880124   0.14240396 
   64400   -947.72199    45.015203   -902.70679    1612.2813    -3737.466    2.1745933    56.833931   0.14321842 
   64500   -947.42028    46.805595   -900.61468    1676.4067    10772.338    2.2007174    52.881897   0.14408277 
   64600   -945.15494    50.570524   -894.58442    1811.2528   -2440.5185     2.167959    54.375874   0.14441404 
   64700    -945.1634    45.207459   -899.95594    1619.1672   -12663.701    2.1418592    59.394072   0.14628961 
   64800   -947.30065    45.330395   -901.97025    1623.5703    2978.4098    2.1841809    56.687681   0.12920879 
   64900   -938.82273    46.359378   -892.46335    1660.4248    12808.144    2.1937489    52.416399   0.15495634 
   65000   -943.46069    45.466795   -897.99389    1628.4557   -6561.8441    2.1534375    55.108277   0.15311048 
   65100   -942.21764    39.628388   -902.58926    1419.3452   -7859.2402    2.1490484    53.535701   0.15478927 
   65200   -944.27358    49.051134   -895.22244    1756.8337    8404.3448    2.1897369    57.587984    0.1427304 
   65300   -942.67404    47.929461   -894.74458    1716.6595    6974.3142    2.1810063    53.936019   0.13957209 
   65400    -949.4385    47.081013   -902.35749    1686.2711   -7309.7901    2.1605563    54.755205   0.12375618 
   65500   -946.68321    50.248699   -896.43451    1799.7262   -2510.8459    2.1625365    55.396336    0.1309972 
   65600   -944.67348    51.538026   -893.13546    1845.9052     1286.089    2.1728876    54.202374    0.1381001 
   65700   -948.41616    46.509291   -901.90687    1665.7941    2561.3944    2.1833197    53.425218   0.13285407 
   65800   -945.57499    48.355165   -897.21983    1731.9066    -5653.328    2.1578207    54.597461   0.12705581 
   65900   -944.11032    49.953948   -894.15637    1789.1692   -3527.8558    2.1607503    53.823083   0.12212727 
   66000   -947.68396    44.783245   -902.90072    1603.9734    7939.4223    2.1951698    51.093409   0.13069386 
   66100   -946.35261    49.391388   -896.96122    1769.0204   -1541.7265    2.1670667    52.558351   0.13954555 
   66200   -942.45689    46.510286   -895.94661    1665.8298   -7059.9426    2.1508851    53.062434   0.14679372 
   66300   -946.03571     42.33065   -903.70506    1516.1304     3847.728    2.1826311     53.08851   0.13179562 
   66400   -944.38956    47.441369    -896.9482    1699.1778    8281.0411    2.1867223    53.340796   0.13013426 
   66500   -944.61909     48.74298   -895.87611    1745.7968   -3908.6245     2.156337    55.779131   0.11743018 
   66600   -949.10012     45.41518   -903.68494    1626.6071   -9589.8048     2.156888    53.681016   0.11736313 
   66700   -946.65817    48.693983   -897.96418    1744.0419    7043.6658     2.189739    54.995853    0.1192899 
   66800   -941.64206    48.231214   -893.41085    1727.4672    9578.4752    2.1869501     50.19559   0.13978108 
   66900   -945.61118    43.869447   -901.74173    1571.2445   -12829.062    2.1419683     53.74201   0.14327902 
   67000   -945.58028    47.015219   -898.56506    1683.9147   -7061.9963    2.1546345    52.311417   0.13236439 
   67100   -943.77278    52.962701   -890.81008    1896.9319    12412.344    2.1965695    48.118461   0.14085243 
   67200   -945.46202    46.257355   -899.20466    1656.7707    3476.6762    2.1814706    55.809809   0.13846152 
   67300   -942.88544    42.225364   -900.66007    1512.3594    -9453.246    2.1483301    54.075045   0.13038137 
   67400   -941.51702    49.541674   -891.97535    1774.4031    1142.2596    2.1652445    53.290908   0.12932002 
   67500   -946.98465    47.785056   -899.19959    1711.4874     6538.872    2.1934962    54.476364   0.11876731 
   67600   -947.87685    46.443896   -901.43295    1663.4519   -4324.7774     2.171426    50.315076   0.12715645 
   67700   -938.46085    44.578689   -893.88216     1596.647   -3012.1645    2.1545012     52.32941   0.15169643 
   67800   -945.62518    45.597583   -900.02759    1633.1401    3407.5968    2.1841292    55.450229   0.12970617 
   67900    -948.0139      46.7243    -901.2896     1673.495    2067.4399    2.1866217    51.863365    0.1342917 
   68000    -942.7455    48.214266   -894.53124    1726.8601   -4241.1074    2.1603836    51.266779   0.12887936 
   68100   -944.79778    45.152963   -899.64481    1617.2154   -4527.9119    2.1640957     54.78497   0.12788351 
   68200   -945.48004    43.276689   -902.20335    1550.0141    4183.4448    2.1879891    52.975666   0.13217077 
   68300   -941.13933    47.526236    -893.6131    1702.2174     4643.749    2.1747978    53.184126   0.11959302 
   68400   -944.52109    45.238513   -899.28257    1620.2795   -4917.4367    2.1593547    57.338541   0.13775502 
   68500   -947.36152     44.71761   -902.64391    1601.6226   -4890.3331    2.1675653    53.639312   0.11790496 
   68600    -947.2741    53.997838   -893.27627    1934.0067    5400.5779    2.1839678    50.570511    0.1401774 
   68700   -944.51041    47.048163   -897.46225    1685.0946     4483.316    2.1840621    52.930364   0.13567139 
   68800   -946.08507    42.999507   -903.08556    1540.0864   -10756.312    2.1457724     55.18266   0.11941278 
   68900   -943.60005    48.525662   -895.07439    1738.0132   -2231.9982    2.1589279     54.17913   0.12905335 
   69000   -945.53194    49.502508   -896.02944    1773.0003    13638.576    2.2051904    54.149258   0.12103541 
   69100   -949.05231    46.308204    -902.7441    1658.5919    -1018.665    2.1763139     55.88244   0.12635564 
   69200   -943.88056    47.518377   -896.36219    1701.9359    -12065.61    2.1364075    54.256095   0.11151525 
   69300   -942.70089    48.873819   -893.82707     1750.483    1436.7433    2.1711098    51.464289   0.12204644 
   69400   -945.31547    43.401019   -901.91445    1554.4671     10669.56    2.1988599    56.767801   0.12654475 
   69500   -943.11259     46.64732   -896.46527    1670.7378   -3603.9093    2.1577903    56.629776   0.13462838 
   69600    -944.5118    49.416811   -895.09499     1769.931   -5292.2907    2.1529482    56.551596   0.14387204 
   69700   -944.58239    42.546303   -902.03608    1523.8543    5472.0483    2.1876063    53.186413   0.14897859 
   69800   -943.51585    46.942261   -896.57359    1681.3016    4506.7261    2.1794108    49.925056   0.13357583 
   69900   -941.10976    46.445096   -894.66466    1663.4949   -1800.0977    2.1574878    52.088788   0.14459594 
   70000   -946.86478    44.175782     -902.689    1582.2163   -2554.7858    2.1712925    50.950446   0.11990053 
   70100   -943.35083    46.441681   -896.90915    1663.3726    5245.5099    2.1810069    52.980684   0.13741578 
   70200   -943.17744    48.957399   -894.22004    1753.4765    2161.1664    2.1698348    55.998035    0.1472609 
   70300   -949.94656    47.085409   -902.86115    1686.4286   -4277.5997    2.1693935    51.178911   0.12001112 
   70400    -943.3067    46.149997    -897.1567    1652.9255   -1213.2928    2.1628651    51.476078   0.13825542 
   70500   -942.00449      48.2878   -893.71669    1729.4939    5144.0176    2.1779002    54.562299    0.1531753 
   70600    -949.7827    47.393631   -902.38907     1697.468    1256.0556    2.1844179     49.00768   0.14306957 
   70700   -944.02117    47.254198   -896.76697     1692.474   -12315.716    2.1401203    51.615981   0.15111813 
   70800    -943.5055    48.900093   -894.60541     1751.424    565.29433    2.1662542    53.931974   0.13674908 
   70900   -946.76831    46.245421   -900.52288    1656.3433     15026.76     2.212982    49.596095    0.1246443 
[...]
  186800   -941.83122    43.844011   -897.98721    1570.3335   -2335.8495    2.1620133    114.25741   0.12660014 
  186900   -941.59595    45.267648    -896.3283     1621.323    -4226.871    2.1587871    115.67053   0.13669703 
  187000   -946.70969    44.758812   -901.95087    1603.0983    4401.7381    2.1870758    117.52456   0.14853696 
  187100    -949.8578     48.25916   -901.59864    1728.4681    1213.0711    2.1858799    113.28861    0.1391767 
  187200    -942.9352    48.262827   -894.67238    1728.5994   -5265.7358    2.1563357    114.46327   0.12244724 
  187300   -944.95092    45.148103   -899.80282    1617.0413   -1165.0902    2.1702792    112.59691   0.11603707 
  187400   -950.41057    49.457605   -900.95296    1771.3921     1196.375    2.1858701    112.66085   0.11018384 
  187500   -941.06377    49.571298   -891.49247    1775.4641   -824.12452    2.1581249    112.96135    0.1358532 
  187600   -948.28794     49.34063   -898.94731    1767.2024   -2967.4156    2.1689851    112.58823   0.13464209 
  187700   -945.51335     45.39893   -900.11442     1626.025    2018.8312    2.1784678     114.1099   0.12818756 
  187800   -939.26979    48.198318   -891.07147    1726.2889    1496.5109    2.1617212    120.32204   0.15031726 
  187900   -946.56057    48.662237   -897.89834    1742.9048   -1926.3026    2.1711458    116.42538   0.12799808 
  188000   -946.46751    45.701334   -900.76617    1636.8561   -3348.6927     2.168948    113.68301   0.15258248 
  188100   -943.51348    50.483006   -893.03048    1808.1182    1466.8576    2.1705893    106.53693   0.14427181 
  188200    -943.0578    44.997934   -898.05986    1611.6628    5266.7148    2.1840887     114.4749   0.12460211 
  188300   -945.32946    43.358713   -901.97075    1552.9519   -5517.6001    2.1633017    112.16067   0.12593162 
  188400   -943.95444    48.039481   -895.91496       1720.6   -3084.0182     2.166409    118.24416   0.12461086 
  188500   -942.48807    46.524578    -895.9635    1666.3416    7640.1044    2.1876094    109.70362   0.15061787 
  188600   -950.28121    46.219941   -904.06127    1655.4307    1396.3039    2.1870872    108.05232   0.13964649 
  188700   -942.52103    44.796009   -897.72502    1604.4306   -7971.1894    2.1507827    112.52824   0.14666675 
  188800   -941.89429    46.110131   -895.78416    1651.4977   -606.35927    2.1679197    118.26329   0.14993259 
  188900   -944.84329    41.097268   -903.74602    1471.9551    14036.382    2.2089535    105.95533   0.13080913 
  189000   -943.45152    46.169741   -897.28177    1653.6327   -2293.3659    2.1645514    108.94987   0.13965811 
  189100   -942.36993    46.071137   -896.29879    1650.1011   -7577.9831    2.1473921    114.18052   0.15056267 
  189200   -947.49515    47.058855   -900.43629    1685.4775    2939.2356    2.1858763    112.93481   0.12454817 
  189300   -947.73324    44.587484   -903.14575     1596.962    9828.7697    2.2030375    106.26399   0.12752143 
  189400   -941.66484    48.398372   -893.26647    1733.4542   -10654.618    2.1367271    114.63725   0.13108794 
  189500   -941.68933    42.925588   -898.76375    1537.4389   -2262.4897    2.1593172    110.37705   0.12909663 
  189600   -949.78916    50.572713   -899.21644    1811.3312    9671.8741    2.2090027    111.42568   0.14529552 
  189700   -941.76251    51.899218   -889.86329    1858.8418    472.18976    2.1691496    106.92048   0.15579712 
  189800   -945.97508    49.201656   -896.77343    1762.2249   -10723.223    2.1530447    114.27394   0.13303649 
  189900   -947.73545    47.741042    -899.9944     1709.911   -1758.4434    2.1784813    108.67784   0.13124462 
  190000   -943.09685    47.678894   -895.41795    1707.6851    5451.0383    2.1848133    111.34566   0.12705699 
  190100   -940.96802    49.058508   -891.90951    1757.0978   -2609.8888    2.1582164    119.23586   0.15599535 
  190200   -943.24687    42.466784   -900.78009    1521.0062     36.89702    2.1760932    112.43538   0.14348429 
  190300   -943.74713    46.455963   -897.29117    1663.8841    4308.3103    2.1836019    116.16258   0.12750653 
  190400   -940.66876    49.571775   -891.09698    1775.4812   -1516.0285    2.1643842    107.16406   0.14893321 
  190500   -945.93096    45.772992   -900.15797    1639.4226   -4094.7538    2.1657468    110.16981   0.12105806 
  190600   -943.98658    43.903191   -900.08339    1572.4531   -1432.6053    2.1707481    118.75025   0.14693812 
  190700   -944.88942    49.929286   -894.96014    1788.2859    5038.1791    2.1840058    109.88394   0.13714886 
  190800   -943.38366    44.495745   -898.88791    1593.6762    2080.8422    2.1744988    117.65835   0.14358164 
  190900    -943.9034    41.090982   -902.81242      1471.73   -6051.0271    2.1559333     118.5683   0.14533386 
  191000   -942.56866     46.08119   -896.48747    1650.4611    4911.9889    2.1751424     113.5952   0.14117113 
  191100   -944.55845    50.406257    -894.1522    1805.3693    8288.9882     2.188697    131.81779    0.1438153 
  191200   -947.04145    44.862432   -902.17902    1606.8096   -7560.5201    2.1511859    120.56077   0.14534941 
  191300   -943.99343    42.706302   -901.28713    1529.5849   -8885.4637    2.1472728    132.46873   0.13700304 
  191400   -942.74414    48.727352   -894.01679     1745.237    13590.443    2.2000218    126.72688    0.1355746 
  191500   -945.67376    46.967435   -898.70632    1682.2032    3413.8411    2.1842922    127.07842   0.12929882 
  191600     -947.999    43.503363   -904.49564    1558.1327   -15560.979    2.1443786    128.51023   0.13995825 
  191700   -946.62374    50.154088   -896.46965    1796.3376   -296.05495    2.1708806    118.92684    0.1302273 
  191800   -943.17934     47.79723   -895.38211    1711.9234    8659.6449    2.1930814    123.57713   0.15454841 
  191900   -946.72337    45.016455   -901.70691    1612.3262   -2014.4223    2.1731203    122.07111   0.12792911 
  192000    -945.1046     50.03081   -895.07379    1791.9222   -5290.9876    2.1547126    120.52819   0.13515289 
  192100   -943.06793    49.174124    -893.8938    1761.2388    1564.0857    2.1737173    124.80289   0.13831306 
  192200   -949.49567    49.253353   -900.24232    1764.0765    782.05551    2.1821393    127.24513   0.13234937 
  192300   -942.39918    45.948018   -896.45116    1645.6914   -1181.3967    2.1645189    125.84963   0.13977046 
  192400   -936.98004    45.000748   -891.97929    1611.7636   -972.66492    2.1564228    130.88473   0.15336817 
  192500    -945.5682    44.574983   -900.99322    1596.5142    6569.8164    2.1914466    127.93904    0.1353553 
  192600   -947.97906    50.475271   -897.50379    1807.8412    360.30032    2.1782762    126.93074   0.12925352 
  192700   -940.88418    47.498412   -893.38577    1701.2209   -8355.2889     2.143776    128.89344   0.14492039 
  192800   -948.73835    45.075839   -903.66251    1614.4531    1603.5948    2.1872253    129.27999   0.14351067 
  192900   -947.50561    48.276279   -899.22933    1729.0812    6904.4978    2.1931907    126.97672   0.13214003 
  193000   -943.34336    48.141727   -895.20164    1724.2621   -5146.3375    2.1560052    128.21605   0.13798653 
  193100   -946.43817    46.897433   -899.54073     1679.696   -9609.4277    2.1506625    128.67435   0.13697103 
  193200   -947.44323    44.885285   -902.55794    1607.6281    10496.728    2.2040225    126.71033   0.13252249 
  193300   -943.12332    48.637249   -894.48607    1742.0099    10993.604     2.195293    128.33726   0.15297952 
  193400   -942.89515    44.310042   -898.58511     1587.025   -12398.926    2.1408284    128.39656   0.14839154 
  193500    -944.0612    40.594631   -903.46657    1453.9525   -4989.2803     2.164974    137.43951   0.13837732 
  193600   -950.06601     51.61802   -898.44799    1848.7703    12143.015    2.2118308     116.0957   0.12555116 
  193700   -945.29397    49.880556   -895.41341    1786.5406   -286.06334    2.1725137     130.5634   0.13058793 
  193800   -945.20788    44.424463   -900.78342    1591.1232   -8106.9531    2.1563844    136.92002   0.15400726 
  193900   -943.34485    45.179144    -898.1657    1618.1531    2121.0909    2.1825063    133.05708   0.14349402 
  194000    -941.9647    50.467581   -891.49712    1807.5657    1799.0924    2.1737134    128.06024    0.1469592 
  194100   -947.10112     47.59769   -899.50343    1704.7766   -2253.5361     2.170919    137.73339   0.13625643 
  194200     -944.821    45.672106    -899.1489    1635.8092   -1384.3525    2.1727711      128.261   0.14620201 
  194300   -937.82866    47.767479   -890.06118    1710.8579    3827.2651    2.1660602    131.84206   0.14450089 
  194400   -943.44651    44.474813    -898.9717    1592.9265    4994.2271     2.185779    120.66182   0.14769906 
  194500   -947.54206    47.546898   -899.99516    1702.9574   -6337.3169    2.1622029    132.20766   0.13767399 
  194600   -940.81396     47.09843   -893.71553     1686.895   -1423.0836     2.163907    124.05198   0.14332733 
  194700   -946.58256    46.416361    -900.1662    1662.4657    4676.4197    2.1962389    130.14642   0.13423607 
  194800   -946.10475    44.190757   -901.91399    1582.7527   -114.27857    2.1764018    124.08848   0.13857107 
  194900   -942.12576    45.039335   -897.08643    1613.1457   -4085.2669    2.1591985    133.09647   0.17212821 
  195000   -941.37337     46.23654   -895.13683    1656.0252    4343.5894    2.1804734    132.45071   0.15283652 
  195100   -949.94797    45.842904   -904.10506    1641.9266    10202.704    2.2102234    127.37875   0.14240982 
  195200   -943.54129    46.354881   -897.18641    1660.2637   -9279.5293    2.1467235    130.87708   0.12681073 
  195300   -941.32254    44.633055   -896.68948    1598.5942   -6753.9597    2.1506354     133.1201   0.13791555 
  195400    -948.0914    46.892965   -901.19844    1679.5359    13798.968    2.2140527    122.11365   0.13782121 
  195500   -950.37434    46.333698   -904.04064     1659.505    5028.7645    2.1989098    126.16686   0.13469994 
  195600   -940.07433    44.667587   -895.40675     1599.831   -11964.718    2.1333447    131.99035   0.15296915 
  195700   -944.03998    44.954361   -899.08562    1610.1022   -658.35474    2.1751648    127.29687   0.15030667 
  195800   -950.05436    48.798416   -901.25594    1747.7823    6458.5005    2.2058379    131.88746   0.15912219 
  195900   -941.10269    49.755178   -891.34751      1782.05   -3200.3698    2.1538045    128.19637   0.15779541 
  196000   -946.04632    47.414508   -898.63181    1698.2157   -4946.6548    2.1654893    130.28447   0.14592227 
  196100   -945.91748    46.169553   -899.74792     1653.626    2709.1141    2.1865133    126.77887   0.13755757 
  196200   -941.52725    49.826791   -891.70046    1784.6149    1769.4557    2.1713033    130.81207   0.14489996 
  196300   -941.58976    44.541431   -897.04833    1595.3125   -2734.4943     2.163209    122.22593   0.14276361 
  196400   -946.45575    45.801486   -900.65426    1640.4431   -1370.0027    2.1742441    127.09441   0.15445999 
  196500   -945.79728    52.108823   -893.68846    1866.3491    3310.2866    2.1817849    119.21506    0.1590296 
  196600   -945.24406    48.620126   -896.62393    1741.3966   -2635.8158    2.1661349    127.73997   0.15437684 
  196700   -946.05502    43.605247   -902.44977    1561.7818   -5321.8594    2.1644694    132.11512   0.15284003 
  196800   -942.65717    47.030525   -895.62665    1684.4628    4889.4138    2.1794143     131.5339   0.14655652 
  196900   -944.75695    47.717681   -897.03927    1709.0743    6368.9973    2.1868775    118.75025   0.13915349 
  197000   -945.60303      41.0489   -904.55413    1470.2227   -5238.4059    2.1649692    127.11465   0.14517063 
  197100   -941.90923      43.8645   -898.04473    1571.0673   -7639.9349    2.1537462    122.40692   0.15230043 
  197200   -940.81495    46.586988   -894.22796     1668.577    14015.773    2.1999525    126.45357   0.13540042 
  197300   -947.61991    44.951758   -902.66815     1610.009    7263.5207    2.1989045    128.42114     0.133233 
  197400   -944.13547    46.234217   -897.90125     1655.942    -16245.18    2.1318204    128.53007   0.14686349 
  197500   -943.39888    48.142314   -895.25657    1724.2831   -2384.0153    2.1661823    130.36321   0.17317763 
  197600   -945.43817    46.692324   -898.74585    1672.3497     11925.05    2.2051347    128.60926   0.16231835 
  197700    -947.9572    44.417781   -903.53942    1590.8838    930.19061    2.1767812    127.65259   0.13052588 
  197800   -942.58546    49.454365    -893.1311     1771.276   -8601.6284    2.1427151    128.87833    0.1394438 
  197900    -947.0162    49.967896   -897.04831    1789.6688    4545.1885    2.1872956     127.2712   0.12896451 
  198000   -949.40728    48.903875    -900.5034    1751.5594    2879.1499    2.1879926     123.3761   0.12857449 
  198100   -945.63686    53.013615   -892.62324    1898.7554   -6631.7237    2.1530571    132.25033   0.11796611 
  198200   -943.52123    47.572476   -895.94875    1703.8736   -1663.5507    2.1652217    137.32256    0.1377901 
  198300   -947.17018    46.833502   -900.33668    1677.4062    3880.6234    2.1876931    128.88638   0.12064712 
  198400   -945.36527    49.945198   -895.42007    1788.8559    59.408785    2.1712512    128.62909   0.13599765 
  198500   -940.28001    46.800461   -893.47955    1676.2228   -4787.1674    2.1507812    137.51027   0.14522673 
  198600    -948.0452    45.723537   -902.32166    1637.6513    849.33346    2.1864361     127.5758   0.12874545 
  198700   -945.03564    48.435858   -896.59978    1734.7968    6872.9525    2.1897268     130.5231    0.1339819 
  198800   -940.10138    44.292624   -895.80875    1586.4012   -3556.2023    2.1548027    127.99256   0.12565195 
  198900   -947.18127    41.803011   -905.37826    1497.2323   -4165.5296     2.169063    127.03221   0.12969879 
  199000   -949.11657    50.469205   -898.64737    1807.6239    6833.8021    2.1990045    126.35391   0.12696217 
  199100   -942.03833    46.888999   -895.14933    1679.3939    6184.8234    2.1833301    128.76342   0.13134846 
  199200    -944.6056     42.86872   -901.73688    1535.4021   -15607.987    2.1348325    133.61584   0.13147419 
  199300   -949.09413    48.086166   -901.00796    1722.2721   -4135.4274    2.1696296    134.17889   0.11824584 
  199400   -943.51751    50.953199   -892.56431    1824.9588    16237.721    2.2054119    130.63221   0.13706194 
  199500   -948.35817    49.691145   -898.66702    1779.7566   -2825.8461    2.1710478    127.34422   0.12954405 
  199600   -946.09827     43.82131   -902.27696    1569.5204   -9376.5592    2.1543271    131.46652   0.13848844 
  199700   -943.30896     49.56489   -893.74407    1775.2346     5229.434    2.1776744     130.3322   0.14052535 
  199800   -947.15331    52.511357   -894.64196    1880.7664    1882.6652    2.1811363    130.15891   0.13781545 
  199900   -946.47112    45.395203   -901.07591    1625.8916   -5206.2637    2.1615174    130.83274   0.12184923 
  200000   -943.45617    47.668833   -895.78734    1707.3247   -1958.6322     2.161392    126.96524     0.125484 
  200100   -942.35084    50.469133   -891.88171    1807.6213    3987.4762    2.1740498    128.09221   0.12721117 
  200200   -946.78628    46.348847   -900.43744    1660.0476    1209.9763    2.1778907    128.20736   0.12903192 
  200300   -946.91159    48.877153   -898.03444    1750.6024   -6114.3199    2.1601119    129.95642   0.13428203 
  200400   -943.14183    51.750939   -891.39089     1853.531   -722.08721    2.1589299     122.9551   0.13690259 
  200500   -946.00634    44.587862   -901.41848    1596.9755      6145.34    2.1937821      124.689   0.12252454 
  200600   -941.97627    42.766097   -899.21017    1531.7265   -1100.0163    2.1642674    129.95081   0.14454871 
  200700   -941.43974    46.552196   -894.88754    1667.3308   -7099.4463    2.1465141    134.88104   0.13457861 
  200800   -950.62855    46.475157   -904.15339    1664.5716    7046.5577    2.2008843    133.37187   0.12438437 
  200900   -947.10481    46.125843   -900.97897    1652.0604     5051.327    2.1840395    127.36917   0.11481847 
  201000   -941.58646    44.923533   -896.66293     1608.998   -11225.768     2.133737    130.33994   0.11753511 
  201100   -945.57294     48.81495   -896.75799    1748.3745   -3686.0122    2.1622784    123.27551   0.11966412 
  201200   -945.61227    42.738939   -902.87333    1530.7538    21673.842    2.2268193    124.27118   0.13407771 
  201300   -944.07261    49.516393   -894.55622    1773.4976   -5327.3532    2.1544023    133.64425   0.13913891 
  201400   -946.60575    49.416735   -897.18902    1769.9283   -13206.936    2.1397405     132.4853   0.13351583 
  201500   -947.62832    47.108018   -900.52031    1687.2384    5283.1434     2.189617    128.73722   0.13965372 
  201600   -949.33366    47.125862    -902.2078    1687.8775    7343.5777    2.2002145    127.70186   0.12726716 
  201700   -940.98841    48.377053   -892.61136    1732.6906   -8128.8461    2.1436481    131.62045   0.15098061 
  201800   -948.10019    49.270711   -898.82948    1764.6982    -6897.486     2.165803    126.92187   0.14058317 
  201900   -943.86166    44.538275   -899.32338    1595.1995    8507.4639    2.1933024     128.5958   0.12630424 
  202000   -939.94017     49.88632   -890.05385    1786.7471    534.93938    2.1608731    127.08423   0.14398698 
  202100   -941.83859    45.494674   -896.34391    1629.4542   -1802.4684    2.1627879    133.94105   0.13412454 
  202200   -948.47384    48.814447    -899.6594    1748.3565   -1119.4819    2.1786597    132.11572   0.13621609 
  202300   -944.57934    48.480433    -896.0989    1736.3933    3915.2879     2.180881    134.54388   0.14232021 
  202400   -939.20937    49.132437   -890.07693    1759.7457   -4330.3235    2.1496857    125.56513   0.16292039 
  202500   -945.13888    44.724023   -900.41485    1601.8523     190.8125    2.1764007     131.5114   0.13657509 
  202600   -945.54132    47.291512   -898.24981    1693.8104    5294.4019    2.1847001    124.83005   0.11753839 
  202700   -943.41237    48.940213   -894.47216    1752.8609   -3389.6556    2.1628381    131.46527   0.13110469 
  202800   -942.50858    53.437677    -889.0709    1913.9438   -10774.067    2.1392739    131.09644   0.14541226 
  202900   -944.51079     44.42481   -900.08598    1591.1356    13755.734    2.2062146    129.49033   0.13702729 
  203000   -943.28054    45.469505   -897.81104    1628.5528    7908.2696    2.1896609    134.24633   0.13454019 
  203100    -942.0126    43.772801    -898.2398     1567.783   -13042.938    2.1320339    131.26755   0.13270851 
  203200   -940.21477    50.099375    -890.1154    1794.3779   -219.81746    2.1582624    125.28215   0.14884629 
Loop time of 141.939 on 1 procs for 200000 steps with 217 atoms

Performance: 365.227 ns/day, 0.066 hours/ns, 1409.056 timesteps/s
100.0% CPU use with 1 MPI tasks x no OpenMP threads

MPI task timing breakdown:
Section |  min time  |  avg time  |  max time  |%varavg| %total
---------------------------------------------------------------
Pair    | 136.28     | 136.28     | 136.28     |   0.0 | 96.01
Neigh   | 2.5252     | 2.5252     | 2.5252     |   0.0 |  1.78
Comm    | 0.91276    | 0.91276    | 0.91276    |   0.0 |  0.64
Output  | 0.072837   | 0.072837   | 0.072837   |   0.0 |  0.05
Modify  | 1.8431     | 1.8431     | 1.8431     |   0.0 |  1.30
Other   |            | 0.3059     |            |       |  0.22

Nlocal:    217 ave 217 max 217 min
Histogram: 1 0 0 0 0 0 0 0 0 0
Nghost:    950 ave 950 max 950 min
Histogram: 1 0 0 0 0 0 0 0 0 0
Neighs:    4239 ave 4239 max 4239 min
Histogram: 1 0 0 0 0 0 0 0 0 0
FullNghs:  8478 ave 8478 max 8478 min
Histogram: 1 0 0 0 0 0 0 0 0 0

Total # of neighbors = 8478
Ave neighs/atom = 39.0691
Neighbor list builds = 4263
Dangerous builds = 59
Total wall time: 0:02:24
