LAMMPS (3 Mar 2020)

# ---------- 1. Initialize simulation ----------
units metal
atom_style atomic
dimension 3
boundary p p p
read_data /home/modeler/RemLabs/Project/arrhenius_4/T1600.0/n3_T1600.0_timestep3.000000e-03_eqsteps3200_time600_rseed3332/20201205-130707/lammps.data
  orthogonal box = (0 0 0) to (17.469 17.469 17.469)
  1 by 1 by 1 MPI processor grid
  reading atoms ...
  217 atoms
  read_data CPU = 0.00103239 secs

pair_style meam/c
pair_coeff * * library.meam Li Si LiSi.meam Li Si
Reading potential file library.meam with DATE: 2012-06-29
Reading potential file LiSi.meam with DATE: 2020-11-07

group Li type 1
1 atoms in group Li
group Si type 2
216 atoms in group Si

velocity all create 1600.0 3332 dist gaussian

# ---------- 2. Specify equilibration ensemble  ----------
fix 1 all npt temp 1600.0 1600.0 0.15 tchain 2 iso 1.0 1.0 1.0 pchain 2
# fix 1 all nvt temp 1600.0 1600.0 0.15

# ---------- 3. Run equilibration -------------
timestep 0.003
run 3200
Neighbor list info ...
  update every 1 steps, delay 10 steps, check yes
  max neighbors/atom: 2000, page size: 100000
  master list distance cutoff = 6
  ghost atom cutoff = 6
  binsize = 3, bins = 6 6 6
  2 neighbor lists, perpetual/occasional/extra = 2 0 0
  (1) pair meam/c, perpetual
      attributes: full, newton on
      pair build: full/bin/atomonly
      stencil: full/bin/3d
      bin: standard
  (2) pair meam/c, perpetual, half/full from (1)
      attributes: half, newton on
      pair build: halffull/newton
      stencil: none
      bin: none
Per MPI rank memory allocation (min/avg/max) = 8.895 | 8.895 | 8.895 Mbytes
Step Temp E_pair E_mol TotEng Press Volume 
       0         1600   -951.04357            0   -906.37126   -115280.58    5330.9442 
    3200    1690.5698   -950.41063            0    -903.2096    72.027898    4615.2363 
Loop time of 2.30718 on 1 procs for 3200 steps with 217 atoms

Performance: 359.505 ns/day, 0.067 hours/ns, 1386.977 timesteps/s
100.0% CPU use with 1 MPI tasks x no OpenMP threads

MPI task timing breakdown:
Section |  min time  |  avg time  |  max time  |%varavg| %total
---------------------------------------------------------------
Pair    | 2.2205     | 2.2205     | 2.2205     |   0.0 | 96.24
Neigh   | 0.036363   | 0.036363   | 0.036363   |   0.0 |  1.58
Comm    | 0.014647   | 0.014647   | 0.014647   |   0.0 |  0.63
Output  | 2.4863e-05 | 2.4863e-05 | 2.4863e-05 |   0.0 |  0.00
Modify  | 0.030671   | 0.030671   | 0.030671   |   0.0 |  1.33
Other   |            | 0.004996   |            |       |  0.22

Nlocal:    217 ave 217 max 217 min
Histogram: 1 0 0 0 0 0 0 0 0 0
Nghost:    957 ave 957 max 957 min
Histogram: 1 0 0 0 0 0 0 0 0 0
Neighs:    4121 ave 4121 max 4121 min
Histogram: 1 0 0 0 0 0 0 0 0 0
FullNghs:  8242 ave 8242 max 8242 min
Histogram: 1 0 0 0 0 0 0 0 0 0

Total # of neighbors = 8242
Ave neighs/atom = 37.9816
Neighbor list builds = 61
Dangerous builds = 0

# ---------- 4. Describe computed properties----------
compute msdli Li msd
compute msdsi Si msd
thermo_style custom step pe ke etotal temp press density c_msdli[4] c_msdsi[4]
thermo 100

# ---------- 3. Run production -------------
timestep 0.003
run 200000
Per MPI rank memory allocation (min/avg/max) = 9.664 | 9.664 | 9.664 Mbytes
Step PotEng KinEng TotEng Temp Press Density c_msdli[4] c_msdsi[4] 
    3200   -950.41063    47.201032    -903.2096    1690.5698    72.027898    2.1852203            0 2.4965759e-32 
    3300   -951.51599    41.697081   -909.81891    1493.4382    11701.031    2.2168958   0.12624894    0.0850944 
    3400   -946.02586    45.728414   -900.29745    1637.8259   -7817.8345    2.1586245   0.55146074   0.11435969 
    3500   -947.43051    45.254544   -902.17596    1620.8536   -8815.9278    2.1575087  0.079361111   0.11580765 
    3600   -950.22862    45.160036   -905.06858    1617.4687    6859.0495    2.1988808  0.082742789   0.11933148 
    3700    -952.6546    43.353661   -909.30094    1552.7709    7191.7873    2.2068656  0.073152353   0.10232042 
    3800   -946.10881    47.288827   -898.81999    1693.7143   -12440.315    2.1443156   0.06389078   0.12741346 
    3900   -946.45298    44.362082   -902.09089    1588.8889   -2599.0889    2.1699604  0.021936403   0.11245021 
    4000   -947.78618    44.847432   -902.93875    1606.2724    11761.336     2.208804   0.10374798   0.12704105 
    4100   -952.73912    45.242767   -907.49636    1620.4319   -587.61904    2.1910421  0.055625797  0.089498717 
    4200   -952.56491    39.016989   -913.54792     1397.447    -7898.732    2.1730077 0.0099128149    0.1016997 
    4300   -949.07714    43.540757   -905.53639     1559.472   -2121.3401    2.1781572  0.083585303  0.087329235 
    4400   -946.89842    44.522555   -902.37587    1594.6365    8275.2797    2.2006643   0.10673063   0.11570241 
    4500   -948.60225    46.551889   -902.05036    1667.3198    423.67571    2.1853667  0.021570943   0.12330182 
    4600   -946.54386    43.908451   -902.63541    1572.6415   -8170.5455    2.1609264   0.25078447   0.12893889 
    4700   -951.39832    40.835765   -910.56256     1462.589    3716.7669    2.2028229   0.12098462   0.12036903 
    4800   -949.99347    45.370999   -904.62247    1625.0246     8177.627    2.2090503  0.012438754   0.12877488 
    4900   -950.28683    48.821651   -901.46518    1748.6145   -4657.4279    2.1696845    0.3940455   0.11853527 
    5000   -944.76459     42.85135   -901.91324    1534.7799   -9571.5999    2.1523504   0.17961445   0.11547408 
    5100   -951.11323     41.45052   -909.66271    1484.6073    7580.3893     2.207874   0.17469535   0.11394756 
    5200   -949.72802    48.503796   -901.22422    1737.2301    6629.9093    2.1995212  0.051299863  0.095203376 
    5300   -943.99815    41.752913   -902.24523    1495.4379   -2968.7798    2.1645086  0.018913683   0.10449824 
    5400   -951.69286    43.921751   -907.77111    1573.1178   -8793.2411    2.1671744  0.016801636   0.10261936 
    5500   -950.26835    44.340873   -905.92748    1588.1293    5826.3063    2.2029309  0.019956234   0.11301875 
    5600   -948.45303    48.649217   -899.80381    1742.4385    4111.6531    2.1911851  0.021618813   0.13133317 
    5700   -948.58971      43.7737     -904.816    1567.8152   -9593.8909    2.1612176    0.1532605   0.13445419 
    5800   -949.59737    44.930188   -904.66718    1609.2364   -5991.1849    2.1698072  0.077496914   0.11814942 
    5900   -942.81459    46.893935   -895.92065    1679.5707    7873.8767    2.1839321  0.032750107    0.1196904 
    6000   -945.91949    43.701881   -902.21761    1565.2429    5158.3008    2.1899356  0.022647742   0.12097988 
    6100   -949.76448    44.541731   -905.22275    1595.3233   -5601.1529    2.1694338   0.12205127   0.10630598 
    6200    -945.6173    48.528837   -897.08846    1738.1269   -5225.1754    2.1611547  0.027985396   0.12205069 
    6300   -945.54084     44.90806   -900.63278    1608.4438    7015.2856    2.1941371  0.045900257   0.11250101 
    6400   -949.21589    44.595985    -904.6199    1597.2664    1120.2062    2.1843789   0.08491628     0.103231 
    6500   -946.00514    44.767663   -901.23748    1603.4153    -5171.633    2.1651379  0.012707444   0.11429354 
    6600   -943.42991    47.468936   -895.96098    1700.1651   -1229.0692    2.1670691   0.20479829   0.13687907 
    6700   -950.79882    44.860016   -905.93881    1606.7231    9137.8553     2.210563  0.010738737    0.1199249 
    6800   -947.46744    43.977853   -903.48958    1575.1272    -3355.291    2.1727456  0.057400986   0.11345286 
    6900   -943.92402    43.031053   -900.89297    1541.2163   -11098.258    2.1461804   0.15613576   0.12226247 
    7000   -954.15266    44.468698   -909.68396    1592.7075    3280.4318    2.2018342  0.029521539  0.089963184 
    7100   -952.06078    46.126394   -905.93439    1652.0802    9998.3559    2.2109404 0.0092433092   0.10924071 
    7200   -942.91031     41.11909   -901.79122    1472.7367   -3727.9429    2.1643002  0.087886498   0.12259357 
    7300   -943.05917    40.121455   -902.93772     1437.005   -10391.909    2.1479882  0.050711123   0.12593712 
    7400   -950.90046     41.03782   -909.86264    1469.8259    9844.3132    2.2080728   0.13357987   0.10401823 
    7500   -951.72751    50.670461   -901.05705    1814.8321    6382.1214    2.1980938  0.091220334   0.10986561 
    7600   -943.75918    41.862166   -901.89702     1499.351   -3141.8875    2.1616843   0.13443852   0.13165423 
    7700   -948.07005    42.587013   -905.48304    1525.3124   -6603.3249      2.16626   0.20826874   0.11540654 
    7800   -950.96651    42.293581   -908.67293    1514.8027    3075.2309      2.19751   0.11408491   0.12661016 
    7900   -944.35847    45.376184   -898.98229    1625.2104   -101.62858    2.1714121  0.076739782   0.12175213 
    8000   -949.25251    46.655116    -902.5974    1671.0171   -3641.7002    2.1739552   0.10325029   0.11377385 
    8100   -946.12115    40.892781   -905.22837    1464.6311    2796.0968    2.1860362  0.026851118   0.11652974 
    8200   -944.67099     45.21042   -899.46057    1619.2733    3369.6699     2.183517  0.036457481   0.12631038 
    8300    -941.1919     43.23619   -897.95571    1548.5635    1602.3793    2.1700349   0.10386512   0.10724568 
    8400    -948.6301    44.741996   -903.88811    1602.4961   -5495.2122    2.1671644   0.13096833   0.10832844 
    8500   -948.39442    45.135995   -903.25842    1616.6076    2219.9643    2.1849899   0.23681248   0.11666437 
    8600   -943.23987    49.226896   -894.01298    1763.1289    4376.1739    2.1792198   0.08696557   0.13713906 
    8700   -947.73631    45.600188   -902.13613    1633.2334    780.60022    2.1823109  0.094863395   0.13501683 
    8800   -946.78216    42.220109   -904.56205    1512.1712   -7149.7433    2.1598144   0.19414408   0.11360345 
    8900   -944.63646    45.452033   -899.18443     1627.927   -142.97048    2.1703095   0.13789099   0.11525259 
    9000   -945.67207     51.89449   -893.77758    1858.6724    10103.469    2.1949186   0.26523803   0.10836358 
    9100      -947.88    44.098845   -903.78115    1579.4607    4032.8484    2.1901272   0.19042364   0.10860209 
    9200   -946.25542    42.718507   -903.53691     1530.022   -13671.123    2.1446579   0.04915002   0.11368193 
    9300   -945.65258    45.269694   -900.38289    1621.3963   -2055.3452    2.1667818  0.097912734   0.10573566 
    9400   -954.09619    45.027793    -909.0684    1612.7322    15074.013    2.2273375  0.050549756   0.10322492 
    9500   -952.59146    46.104836   -906.48662     1651.308   -816.04643    2.1821867  0.062619687   0.10457823 
    9600   -948.30424    45.679233     -902.625    1636.0645   -9649.5286    2.1569646   0.12649892   0.12582983 
    9700    -944.3822    42.621936   -901.76026    1526.5632    3507.2938    2.1785209   0.12076389   0.12901548 
    9800   -953.83933    43.135717   -910.70361    1544.9649    5571.3704    2.2055171  0.066935482   0.11990793 
    9900   -945.18313    41.596003   -903.58713     1489.818   -1835.0148    2.1715332  0.045135541   0.11721944 
   10000   -946.83295    45.021302   -901.81165    1612.4998   -3191.3332    2.1686311 0.0070418873   0.10794209 
   10100   -951.28036    46.213451   -905.06691    1655.1982    2764.5866    2.1866217   0.43329141    0.1038127 
   10200   -950.21756    40.542736   -909.67483    1452.0938    5420.8675    2.1994044  0.045656536   0.10962932 
   10300   -945.31138    45.610134   -899.70125    1633.5896    -5930.155    2.1578402  0.026791841   0.12722355 
   10400    -949.5399    46.853826   -902.68607    1678.1341   -4865.6797    2.1710839   0.02095828   0.12280224 
   10500   -951.45545    47.379317   -904.07613    1696.9553    4604.6556    2.1991288  0.044126893   0.10580592 
   10600   -945.58662    47.672795   -897.91382    1707.4666    3571.4278    2.1809012 0.0026981329   0.13230496 
   10700   -941.76305    44.038944    -897.7241    1577.3153   -6369.3522    2.1491323  0.024337906   0.11510837 
   10800   -949.27816    45.016463    -904.2617    1612.3264   -5212.0918    2.1674368  0.093512848   0.10634799 
   10900   -952.47018    50.548219   -901.92196    1810.4539    9500.9994    2.2089053  0.087268177   0.11152563 
   11000   -943.46631    49.435215   -894.03109    1770.5901    7071.5475    2.1834884   0.21260746   0.10283589 
   11100   -946.99002      46.1803   -900.80972    1654.0109    -15296.95     2.138027  0.066818161   0.13445371 
   11200   -948.24431    43.936429   -904.30788    1573.6435   -8788.4274    2.1613449  0.052620951   0.11751808 
   11300   -947.75256    48.050689   -899.70187    1721.0014    16359.521    2.2176459   0.23021311   0.11867516 
   11400   -946.15999    45.636776   -900.52322    1634.5438    1816.3226    2.1810501  0.094423541   0.12870835 
   11500   -950.92192    42.204629   -908.71729    1511.6168   -6210.2371    2.1705793    0.3070782   0.11707663 
   11600   -946.95654    43.051539     -903.905      1541.95    -216.6814    2.1783833  0.011093181   0.10479063 
   11700   -944.56918    44.339033   -900.23014    1588.0634    5651.8215    2.1881695  0.021127578   0.12378313 
   11800   -950.84176    43.851013   -906.99075    1570.5843   -659.76147    2.1856175  0.031796484   0.11324364 
   11900   -948.69392    41.439472   -907.25445    1484.2116    -4023.286    2.1753341  0.056573128   0.11409412 
   12000   -948.13978    47.026162   -901.11362    1684.3066    1001.5021      2.18168   0.15641848   0.13288148 
   12100   -948.80552    45.069082   -903.73643    1614.2111    3452.7767    2.1906432   0.12517722   0.11614934 
   12200   -950.19278    39.783254   -910.40953    1424.8919    206.09538    2.1887447  0.031288415   0.12143013 
   12300   -943.12093    41.821869   -901.29906    1497.9077   -3895.0415    2.1633668  0.059281788   0.15073847 
   12400   -946.17886    44.000938   -902.17792     1575.954    3283.1808    2.1861165  0.012374139   0.12046072 
   12500   -950.53039    43.778127   -906.75226    1567.9737    5664.2712    2.2043283  0.054459968   0.11571734 
   12600   -946.18902    47.376005   -898.81302    1696.8367   -7487.1205    2.1624187  0.012788097   0.13355744 
   12700    -944.9594    45.113799    -899.8456    1615.8127   -4245.2117    2.1637367   0.25092894   0.12280508 
   12800   -948.33993    44.585191   -903.75474    1596.8799    8071.4019    2.1988406   0.10452689   0.13409755 
   12900   -948.28695    43.436056    -904.8509     1555.722    7491.8833     2.202126  0.061302134   0.13375621 
   13000   -941.35073    45.977882   -895.37284     1646.761   -11873.007    2.1379303   0.26934021   0.13316861 
   13100   -952.43758    48.624957   -903.81262    1741.5696   -7690.2326     2.167661   0.10010988   0.10583453 
   13200   -953.74155    50.321135   -903.42042    1802.3206    8782.5216    2.2107972  0.029818651   0.10297653 
   13300   -944.03246    44.599916   -899.43254    1597.4072    6263.2227    2.1886119   0.15399421   0.11963305 
   13400   -940.11602    41.637872   -898.47815    1491.3176   -10665.188    2.1382873  0.094266529   0.13811976 
   13500   -949.56372    43.092278   -906.47144    1543.4091   -1184.4345    2.1826234  0.052793442   0.11942867 
   13600   -946.68903    45.620802   -901.06823    1633.9717    8932.3222    2.2007101  0.024066274   0.12384757 
   13700   -944.22723    43.772768   -900.45446    1567.7818    303.39158    2.1760986  0.091580954   0.13540045 
   13800    -948.6549    39.527096   -909.12781    1415.7172   -1073.3052    2.1803193   0.13500797   0.12219879 
   13900    -949.5102    46.596836   -902.91337    1668.9297   -3404.4711    2.1758961  0.070537684   0.12849648 
   14000     -947.502    46.926308   -900.57569    1680.7302    2550.0048     2.184836  0.044509954   0.11980186 
   14100   -950.49649    41.876538   -908.61995    1499.8657    1162.8034    2.1927645  0.077567591   0.10591005 
   14200   -949.43233    46.426636   -903.00569    1662.8337    -4011.536    2.1706103  0.080211523   0.10381659 
   14300    -949.6993    49.016852   -900.68245    1755.6059    -2702.091    2.1776176   0.15313103   0.11077765 
   14400   -948.79191    42.795852   -905.99605    1532.7922    3952.7611    2.1971136   0.19785799   0.12066545 
   14500    -947.8127    42.772354   -905.04035    1531.9506    1258.2041    2.1860292   0.28197791   0.13253957 
   14600   -944.12945    45.022755    -899.1067    1612.5518   -6561.6641    2.1581722    0.3086121   0.14374146 
   14700      -948.56    43.810226   -904.74978    1569.1234   -2292.4536    2.1782131   0.34478861   0.12251751 
   14800   -949.65458    45.802183   -903.85239    1640.4681    8510.0016    2.2085326   0.16372775   0.12535471 
   14900   -945.07589    49.541791    -895.5341    1774.4073   -1552.9039    2.1702661  0.079354823   0.12234149 
   15000   -947.48767    43.742723   -903.74494    1566.7057   -10311.906    2.1513426   0.10465577   0.12215785 
   15100   -948.90139    44.520387   -904.38101    1594.5588    -2997.234    2.1767268  0.012647058   0.13134687 
   15200   -945.37982      48.5113   -896.86852    1737.4988    13416.647    2.2039209  0.009484727   0.10902249 
   15300   -945.39257     43.78117    -901.6114    1568.0827   -724.48129    2.1732837   0.20518244   0.10924491 
   15400   -948.78857    42.436194   -906.35238    1519.9106   -11430.748    2.1507052  0.089942585   0.11998301 
   15500   -943.29077    42.830238   -900.46054    1534.0238    3286.9305    2.1793905   0.12771354   0.13328777 
   15600   -947.21412    45.392188   -901.82193    1625.7836    7494.9697    2.1960591  0.066718499    0.1288634 
   15700   -951.29178    42.534279    -908.7575    1523.4236   -332.29557    2.1865841   0.10034334   0.10798284 
   15800   -945.86328    43.596507   -902.26677    1561.4688   -5487.0295     2.163757  0.022799168   0.11184983 
   15900   -947.21492     46.47165   -900.74327     1664.446   -835.21556    2.1781061  0.027267465   0.12482651 
   16000   -951.67954    42.727584   -908.95195    1530.3471    4862.2034    2.2048954  0.014231282   0.11975944 
   16100   -948.42019    46.613968   -901.80623    1669.5433   -2784.9011     2.172259  0.033628182   0.12859111 
   16200   -947.67172    46.503278   -901.16845    1665.5788   -4459.1478    2.1688638  0.018083995   0.11855194 
   16300   -950.65847    44.092552   -906.56592    1579.2353    1139.4047    2.1900924   0.18812952   0.11457594 
   16400   -949.82665    45.392373   -904.43427    1625.7902      6895.65    2.1985854  0.030574889   0.11299099 
   16500   -947.30963    48.104124   -899.20551    1722.9153   -4406.8786    2.1667836  0.041134588   0.12505828 
   16600   -946.85254    41.838203   -905.01434    1498.4927    -5926.079    2.1636445  0.035685126   0.13296582 
   16700   -948.88371    46.078564   -902.80514    1650.3671    3473.8907    2.1927929   0.21283254   0.12466428 
   16800   -944.00831    48.697706    -895.3106    1744.1752    8250.7751    2.1916277  0.066713942   0.11632427 
   16900   -947.47477    43.955172   -903.51959    1574.3149   -8039.7684    2.1612861  0.033446436   0.12246102 
   17000   -948.17466    44.059392   -904.11527    1578.0476    -15326.76    2.1433265   0.11166128   0.13204063 
   17100   -947.39362    50.697677   -896.69594    1815.8069    11695.838    2.2060743   0.12697188   0.12126543 
   17200   -947.38687    43.895351   -903.49152    1572.1723    16280.293    2.2231668  0.050760086   0.13417791 
   17300   -948.22809    41.136708   -907.09138    1473.3677   -10742.754    2.1562899   0.62067994    0.1206113 
   17400   -946.27042    45.033891   -901.23653    1612.9507   -7803.9394    2.1580037 0.0040337575   0.11654432 
   17500   -948.67313    47.060197   -901.61293    1685.5256    3510.2497    2.1946164  0.051211743    0.1197427 
   17600   -952.31905    43.468754    -908.8503    1556.8931     5173.714    2.2058397  0.065343338    0.1095375 
   17700   -943.69702    42.517446   -901.17958    1522.8207   -4550.5293    2.1601006   0.20077197   0.14013868 
   17800   -947.39865    45.533077   -901.86557    1630.8297   -3997.7587    2.1658536   0.32872428   0.10209554 
   17900   -950.28246    42.460878   -907.82158    1520.7947    5509.9282    2.2004293  0.023098105   0.11060979 
   18000   -947.44213    47.186257   -900.25587    1690.0406    4977.4627    2.1863604   0.13558486   0.11323476 
   18100   -948.23479     47.58158   -900.65321    1704.1996    -4918.578    2.1647042   0.10020584   0.12257974 
   18200   -947.68226    41.204307   -906.47795    1475.7888   -4286.5074    2.1670544   0.16612931   0.12967959 
   18300   -946.60032    45.140745   -901.45957    1616.7778    7401.9841    2.1910611     0.316703   0.10948096 
   18400   -949.02003    51.084107   -897.93593    1829.6474    2889.7416    2.1830658  0.011374294   0.10277419 
   18500   -950.27395    44.446046    -905.8279    1591.8962   -7989.3197    2.1653731   0.15841194    0.1061819 
   18600   -946.78658    44.505346   -902.28124    1594.0201   -3782.4938    2.1622075  0.024100482   0.12355677 
   18700   -941.66983    45.358118   -896.31171    1624.5633    9985.5091    2.1874587   0.18724905   0.12858439 
   18800    -952.3825    47.451117   -904.93139    1699.5269    5405.3688    2.1996684   0.10987397   0.10667158 
   18900   -947.39955    43.881127   -903.51843    1571.6628   -10251.482    2.1489635   0.25080208   0.10538256 
   19000   -943.06506    44.435157    -898.6299    1591.5062    -6536.837    2.1508682   0.13686587   0.12984544 
   19100    -950.0264    43.448644   -906.57775    1556.1729    16049.727    2.2235318   0.17912872   0.12004795 
   19200   -949.79724     45.53223   -904.26501    1630.7994    4969.5383    2.1976247  0.068851233   0.11754622 
   19300   -948.91606    48.069586   -900.84647    1721.6782   -15787.013    2.1407518   0.11478136    0.1178028 
   19400   -948.73635    43.133091   -905.60325    1544.8709   -3930.2983    2.1710114   0.19140047   0.10717285 
   19500   -948.89114    41.998303   -906.89284    1504.2269    8795.4006    2.2048598    0.0520687    0.1031829 
   19600   -944.33577    44.583004   -899.75277    1596.8015    1922.7766    2.1757821  0.041768733   0.12691535 
   19700   -952.36642    47.927071   -904.43935    1716.5739   -7512.5707    2.1668593 0.0086787758    0.1068846 
   19800    -950.0514    42.721672   -907.32973    1530.1354    1057.8566    2.1854715   0.18429886  0.094667715 
   19900   -944.22061    45.490624   -898.72998    1629.3092    1776.1433    2.1753105   0.37146196   0.12393799 
   20000   -948.63678    44.915957   -903.72082    1608.7267   -1314.7571    2.1806605   0.26676951   0.11946657 
   20100   -946.48465    39.283752    -907.2009    1407.0015    106.38953    2.1791713   0.43236684   0.12565032 
   20200   -946.63131    48.489858   -898.14145    1736.7309   -3006.0314    2.1682292  0.048692324   0.12686902 
   20300   -948.73962    45.686431   -903.05319    1636.3223    2715.4101    2.1881767   0.07624722   0.11180499 
   20400   -943.90731    37.774368   -906.13294    1352.9409    4402.8898    2.1872012  0.023486269   0.12418493 
   20500   -944.10143    46.673946   -897.42749    1671.6915   -4311.0235    2.1587792   0.27535712   0.11314417 
   20600   -950.39137    46.854388   -903.53699    1678.1543    226.84699      2.18338 0.0051138005   0.10900439 
   20700   -947.86899    42.796278   -905.07271    1532.8075    7043.8588     2.197864   0.23795898   0.12286436 
   20800   -942.38561    44.641361   -897.74425    1598.8917     469.5305    2.1744766   0.11738979   0.12663076 
   20900   -945.90555     42.53324   -903.37232    1523.3864   -6661.1475    2.1601136   0.18594546   0.11672922 
   21000   -949.19328    43.382842   -905.81043    1553.8161   -1250.3552    2.1784994 0.0066167617   0.10888898 
   21100   -950.92323    52.943008   -897.98022    1896.2265    6314.9079    2.1990002  0.016093634   0.12877406 
   21200   -948.65347    45.118431   -903.53504    1615.9786    1117.9117    2.1836775  0.016208859     0.128361 
   21300   -949.16564     41.46152   -907.70412    1485.0013   -10998.414    2.1566832    0.1468083   0.13172565 
   21400   -947.83901    47.681485   -900.15753    1707.7779   -4006.5673    2.1677365   0.43650738    0.1168718 
   21500   -951.03817    48.582156   -902.45601    1740.0367     10952.78    2.2091401   0.01610904   0.10828229 
   21600   -952.53185    44.589453    -907.9424    1597.0325    1235.8851    2.1905371   0.13230153   0.10434992 
   21700   -943.94296    43.539494   -900.40346    1559.4268   -6600.8211    2.1503092  0.019414838   0.11631928 
   21800   -945.99295    44.190095   -901.80285    1582.7289    481.35456    2.1764629   0.23363188   0.11343639 
   21900   -948.27531    41.363549   -906.91176    1481.4923    8994.6492    2.2037756   0.12511196   0.10174629 
   22000   -944.76434    45.908291   -898.85605    1644.2685   -1165.9182    2.1692901   0.14667181   0.11177035 
   22100   -946.89088    44.707408   -902.18347    1601.2572   -3379.7058    2.1655678  0.029712743   0.12215709 
   22200   -947.10505    40.503488   -906.60156    1450.6881     3707.251    2.1896993  0.086027713    0.1302243 
   22300   -943.64987    45.410929   -898.23894    1626.4548    1780.8036    2.1759701  0.074652455   0.15000382 
   22400   -948.40023    46.225177   -902.17505    1655.6182   -1059.7838    2.1769027  0.042769205   0.11944644 
   22500   -950.32139    43.852471   -906.46892    1570.6365   -3083.8672    2.1776517 0.0019283358   0.10985045 
   22600   -942.26067    43.802458   -898.45821    1568.8452   -116.75082    2.1680352  0.062611047   0.11906757 
   22700   -946.42315    44.463718   -901.95943    1592.5291    3604.6146    2.1852735    0.2287708   0.12525648 
   22800   -950.43357    44.043471    -906.3901    1577.4774    1286.4138    2.1856733  0.013016668   0.11258981 
   22900    -945.2855    46.029124   -899.25638    1648.5963   -3055.3511     2.165905  0.056151958   0.11110361 
   23000   -945.07361    42.718304   -902.35531    1530.0147   -847.68768    2.1764978  0.076401679   0.11293887 
   23100   -949.98532    43.554051   -906.43127    1559.9482    6255.4457     2.199044 0.0069491769   0.10455052 
   23200   -945.95092    46.560894   -899.39003    1667.6424    2359.0721    2.1819447  0.076034532   0.13874314 
   23300   -946.68832    43.356172   -903.33214    1552.8609   -9500.4524    2.1558201  0.060332527   0.14238241 
   23400   -948.98114    41.196762   -907.78438    1475.5186   -1319.0501    2.1810018  0.067280216   0.12919584 
   23500   -946.99808    48.150567   -898.84752    1724.5787    9446.2681    2.1997001  0.013374858   0.11974161 
   23600   -948.09234    45.770969   -902.32137    1639.3501    2090.3688    2.1848703  0.063403786   0.12755951 
   23700   -949.09524    40.672674   -908.42256    1456.7477   -10520.698    2.1610273 0.0086507432   0.12565617 
   23800   -947.10298    46.762077    -900.3409     1674.848   -4282.7921    2.1689656  0.094647048   0.12638558 
   23900   -946.17728    45.600788   -900.57649    1633.2549    11177.099    2.2061512 0.0091343204   0.11310471 
   24000   -946.87202    39.941348   -906.93068    1430.5542    3669.7861    2.1918949  0.015588649   0.11070101 
   24100   -945.32302    45.552983   -899.77004    1631.5426   -7847.7283    2.1532035    0.2612479   0.12926993 
   24200   -945.78876    45.969032   -899.81973     1646.444    354.70995    2.1755532   0.32262771   0.13565129 
   24300   -945.29132    40.391307   -904.90001    1446.6702    11842.828    2.2035715     5.323405   0.16359186 
   24400   -942.43411     44.46406   -897.97005    1592.5414   -736.09149    2.1679013    3.7503951   0.16184252 
   24500   -947.85079    48.584508   -899.26628    1740.1209   -8166.3816    2.1552668    5.9810853   0.13984739 
   24600   -946.30111    41.696165   -904.60495    1493.4054    3420.2877    2.1867438    4.4075494   0.14085167 
   24700   -942.31071     44.90805   -897.40266    1608.4435    6110.2907    2.1862283    3.8579313   0.13844082 
   24800   -945.22219     46.02688   -899.19531    1648.5159   -2243.8646    2.1686235    2.4548186   0.12341183 
   24900   -948.41166    43.481628   -904.93004    1557.3542   -4930.9505    2.1695961    3.8172887   0.13615359 
   25000   -943.72907    44.120398   -899.60867    1580.2326    5870.8448      2.18047    2.9289277   0.13899191 
   25100   -940.34365    42.882261   -897.46139    1535.8871    5647.3485    2.1752567    5.4024629   0.14183906 
   25200   -949.67761     44.11791    -905.5597    1580.1435   -1505.9665    2.1829201    3.7440032   0.12477789 
   25300   -942.84336    41.432534   -901.41082    1483.9631   -762.10754    2.1708521    3.1338073   0.13913664 
   25400   -944.69708    45.835292   -898.86179    1641.6539   -630.30646    2.1708479    6.3257185   0.14065902 
   25500   -953.75926    45.373036   -908.38622    1625.0976    1496.6815    2.1929155    5.5704056    0.1339259 
   25600   -945.98762    42.975419    -903.0122    1539.2237   -2477.9075    2.1721172    5.4120926   0.13352526 
   25700   -945.99044    46.169112   -899.82133    1653.6101   -2050.5225    2.1703015    4.9495724   0.14137353 
   25800   -949.51051    43.093711    -906.4168    1543.4604    555.43224    2.1839877    5.9974319   0.13495055 
   25900    -947.7953    42.660597    -905.1347    1527.9479     476.8369    2.1769414    5.1672053   0.14293428 
   26000   -942.14889    43.496923   -898.65196     1557.902    2481.7927    2.1716243    5.7559523    0.1543343 
   26100   -945.28909    41.032773   -904.25631    1469.6451    3722.3893    2.1841982    4.3550533   0.14487885 
   26200   -947.78018    41.392827   -906.38736    1482.5409    41.393241    2.1777751    4.6843999    0.1376943 
   26300    -943.9184    45.471086   -898.44731    1628.6094   -2642.7462    2.1563351    5.4213322   0.12638372 
   26400   -947.17467    43.521733   -903.65294    1558.7907    1154.9114    2.1826188    5.5044338   0.13535987 
   26500   -947.49816    42.037281   -905.46088     1505.623    7567.9779    2.1980852    4.9084211   0.14006919 
   26600   -942.46778    45.705627   -896.76215    1637.0098   -4088.6387     2.152099    4.9821408   0.13421681 
   26700   -943.06599    39.874051   -903.19194    1428.1439   -4509.0213    2.1526084    7.1626958   0.12112921 
   26800   -945.92528      42.2051   -903.72018    1511.6336    7133.7268    2.1929089    4.6600016   0.14230359 
   26900   -940.76523    45.665178   -895.10005    1635.5611    10235.943     2.186133    5.1512775   0.14253825 
   27000   -942.80877    41.302217   -901.50655    1479.2956   -3976.0213    2.1641004     4.003799   0.15498769 
   27100   -945.56334    40.618216   -904.94512    1454.7972   -6866.0149    2.1568587    4.4542307   0.15230003 
   27200   -942.45406    44.867222   -897.58684    1606.9812    4489.1453    2.1806507    6.6226841   0.13951915 
   27300   -945.58175    43.860574   -901.72117    1570.9267    8189.1926    2.1948724    4.6980528   0.13087087 
   27400   -950.15094    44.556063   -905.59488    1595.8366   -6244.1135    2.1682125    4.8654931   0.13301089 
   27500   -944.94028    44.844595   -900.09569    1606.1708   -7573.8139     2.154128    5.3525117   0.13284431 
   27600   -946.33683    46.350856   -899.98598    1660.1196    6593.0288    2.1919657    4.3917611   0.12815376 
   27700   -951.76194      44.7068   -907.05513    1601.2355    10243.318     2.211638    6.3817274   0.12880389 
   27800   -942.62737    42.576795   -900.05058    1524.9464   -5881.4611    2.1530036    4.5546668   0.12457074 
   27900   -948.25536    47.408699   -900.84666    1698.0077   -11856.034     2.148591    4.8940572   0.13976986 
   28000   -947.19253    41.435952   -905.75658    1484.0855     8897.531    2.2008037    3.3027975   0.13956621 
   28100   -943.99073    45.981364   -898.00937    1646.8857    9617.2642    2.1899208    4.7661735   0.13758136 
   28200   -945.09193    45.287082   -899.80485    1622.0191   -1493.8503    2.1669519    4.6467898   0.14011264 
   28300   -945.90393    40.610628    -905.2933    1454.5254   -453.91763    2.1734701    6.0254905   0.12088182 
   28400   -945.87858    46.119718   -899.75886     1651.841    1684.3898    2.1755513    4.5811462   0.13710378 
   28500   -945.27092    48.455155   -896.81576    1735.4879    179.33215    2.1699076    7.7343698   0.13725837 
   28600    -949.3792    45.648992   -903.73021    1634.9813   -2211.9515    2.1718693    6.0772878    0.1238829 
   28700   -944.15071    43.082147   -901.06856    1543.0463    3263.8615     2.174119    5.7686918   0.14199042 
   28800   -943.59998    50.997449   -892.60253    1826.5437    2759.6327    2.1727453    4.8344221   0.14442788 
   28900   -947.04698     46.60685   -900.44013    1669.2884    92.789974    2.1763596    6.1142309   0.13099374 
   29000    -946.9817    44.234736   -902.74696    1584.3278   -7056.6597    2.1540986    4.2940431   0.12533588 
   29100   -945.93981    44.655102   -901.28471    1599.3838   -915.98598     2.175752    5.1542088   0.13627263 
   29200   -946.89218    42.809441   -904.08274    1533.2789    7565.4139     2.195314    5.1347919   0.12764675 
   29300   -948.22473    39.257147   -908.96758    1406.0486    1645.6944    2.1836228    4.4951844   0.13385741 
   29400   -944.58989    41.358468   -903.23142    1481.3103   -3404.7654    2.1663264    5.1956328   0.15049247 
   29500   -947.33996     46.72251   -900.61745    1673.4309    1888.0809    2.1786404    6.4704604   0.13301629 
   29600   -949.70844    43.870806   -905.83764    1571.2932      5849.02    2.1967436    4.1897498   0.12480698 
   29700   -949.12062    41.281392   -907.83923    1478.5497   -4788.0839    2.1681462    4.2594521   0.12809997 
   29800   -947.89942    45.964043   -901.93538    1646.2653   -4801.8203      2.16626    4.3848973   0.11900712 
   29900   -943.17148    41.933493   -901.23799    1501.9057    9549.6901    2.1878431    5.3695548   0.13977848 
   30000   -949.77355    41.436844   -908.33671    1484.1175    3510.4314    2.1931631    5.7586285   0.13949807 
   30100   -945.46116    43.240079   -902.22108    1548.7028   -6137.5133    2.1606529    7.9430268    0.1471724 
   30200   -947.14386     47.55895   -899.58491    1703.3891    -81.39303     2.174963     6.677755   0.15104458 
   30300   -946.12987    45.143954   -900.98591    1616.8927    5168.1883    2.1948464    1.3948201   0.13581277 
   30400    -949.4527    41.435624   -908.01707    1484.0738   -1792.3552    2.1803387    3.0274812   0.12910987 
   30500   -943.85368    43.663383   -900.19029     1563.864   -8545.1477    2.1511026    3.2752391   0.13725198 
   30600   -945.37916     46.30652   -899.07264    1658.5316    8371.3806    2.1938438    5.8979293   0.13376664 
   30700   -948.01641    46.231097   -901.78531    1655.8303    7342.9926    2.1974126     8.098802   0.12477004 
   30800    -948.5488    40.501663   -908.04714    1450.6227   -9183.7383    2.1575606    5.3537363   0.13141053 
   30900   -946.83992    42.153852   -904.68607    1509.7981   -5335.4117    2.1685735    5.2600596   0.12559119 
   31000   -946.68443    47.059014   -899.62541    1685.4832    9302.6826    2.1995746    4.6237482   0.12508479 
   31100   -948.86621    44.909237   -903.95697     1608.486    3428.9487    2.1855658    6.4170037   0.10322087 
   31200   -952.33033    46.285986   -906.04434    1657.7962   -8346.6547    2.1669436     6.554455  0.091570541 
   31300   -945.24674    48.975099   -896.27164    1754.1104   -3659.8553    2.1642731    6.2945867   0.12392561 
   31400   -949.22024    47.812092   -901.40815    1712.4557     4402.799    2.1953004    5.0661427   0.11149875 
   31500    -948.0494    43.320897    -904.7285    1551.5974    2435.6824    2.1847269    6.4655676   0.11196815 
   31600   -947.29085    48.987299   -898.30355    1754.5474   -5850.5817    2.1603486    5.8516508   0.12305428 
   31700   -942.24246    43.945682   -898.29678    1573.9749    745.25428    2.1671023    4.8639108   0.13778597 
   31800   -948.48144    44.104652   -904.37679    1579.6687    3002.8635    2.1864675     5.740331   0.11558162 
   31900   -951.37279    48.974965   -902.39783    1754.1056   -737.85057    2.1813543    4.2086242   0.11488561 
   32000    -942.3618    47.268261   -895.09354    1692.9777   -3657.2698    2.1548367    6.1046748   0.12016337 
   32100   -949.19304    44.367806   -904.82523    1589.0939   -267.80754    2.1818887    6.7927622  0.098890946 
   32200   -944.73672    40.821863   -903.91485    1462.0911    3673.6398    2.1840162    7.8488093   0.11421652 
   32300   -943.59169    43.762632   -899.82906    1567.4188   -904.27951    2.1701747    4.9312998   0.10508849 
   32400   -943.51769    45.746879   -897.77081    1638.4873    -4678.457    2.1577768    7.6600931   0.11529788 
   32500   -949.18095    42.371481   -906.80947    1517.5928    6594.7723    2.1999903    5.0589515   0.11453832 
   32600   -949.66825    47.246605   -902.42164    1692.2021    6032.6949    2.1947953    6.0283489    0.1223307 
   32700   -949.76213    47.758061   -902.00407    1710.5205   -9907.5385    2.1561274     5.451048   0.12445798 
   32800   -951.15086    40.378394   -910.77247    1446.2076   -6262.5352    2.1713646    5.2490879   0.11501572 
   32900   -945.54082    39.918594   -905.62223    1429.7393    10465.802    2.1983278     6.273496   0.10956092 
   33000   -948.04861    47.108148   -900.94046     1687.243    3558.7005    2.1894596    6.4372377   0.12239862 
   33100   -947.42732    42.546513   -904.88081    1523.8618   -8162.4636    2.1571797    6.5569463   0.10654306 
   33200   -951.82122    41.327615   -910.49361    1480.2053   -5600.3851    2.1748159    6.1911016   0.10180816 
   33300   -947.40452    46.367848   -901.03667    1660.7282    5003.0495    2.1873025    5.3842929   0.11105408 
   33400   -947.73541    45.910102   -901.82531    1644.3333    4689.2622    2.1876486    5.7400951   0.10489629 
   33500   -950.82075    44.105437   -906.71531    1579.6968   -8128.8947    2.1638069    5.8921127    0.1116503 
   33600   -948.85923    44.821915   -904.03732    1605.3584   -3287.5645     2.170037    4.4309921   0.12354539 
   33700   -948.36851    49.675988   -898.69252    1779.2137    3670.4775    2.1872809    6.0167269   0.12269518 
   33800   -949.07709    46.055686   -903.02141    1649.5477   -305.49822    2.1788902     5.950829   0.11466331 
   33900   -948.82543    42.633907   -906.19153    1526.9919   -7019.4681    2.1627043    5.8581972   0.10879357 
   34000   -942.28704    44.945644   -897.34139      1609.79    1840.8247    2.1695939    6.0121489   0.11969983 
   34100   -945.07454     45.88419   -899.19035    1643.4053    19583.777    2.2200998    5.5520902   0.11982946 
   34200   -946.73612    42.718665   -904.01745    1530.0277   -4453.0006    2.1699387    5.8020497   0.11920017 
   34300   -945.59348    42.879254   -902.71422    1535.7794   -18881.005    2.1258558    4.9995778   0.11299428 
   34400   -941.74496    46.628461    -895.1165    1670.0624    6041.2957    2.1807957    5.0920968   0.12668756 
   34500   -949.91352     46.59296   -903.32056    1668.7909    12842.494     2.215389    4.1326732    0.1041242 
   34600   -946.20373    41.090709   -905.11302    1471.7202   -3455.9733    2.1694428    5.7853955   0.10753672 
   34700   -945.68132    46.013647   -899.66768     1648.042   -8399.4669    2.1538954    5.2064113   0.12956987 
   34800   -947.96807    43.810055   -904.15801    1569.1173    5172.0004    2.1886956    7.0150341   0.11293138 
   34900    -946.2908    39.614262   -906.67654    1418.8392      8595.66    2.2002532     5.093008   0.11372805 
   35000   -945.54085    44.428127   -901.11273    1591.2544   -927.47382    2.1695831    6.3317583   0.11593165 
   35100   -946.89055    44.630618   -902.25993    1598.5069   -6937.9944    2.1597134     5.474029   0.11493815 
   35200   -948.48753    39.462615   -909.02492    1413.4078    4818.2841    2.1973216    5.6784524   0.11300884 
   35300    -946.1382    45.784474   -900.35373    1639.8338    4819.7263    2.1856293    5.5551282   0.11553949 
   35400   -946.59517    44.305352   -902.28982     1586.857   -3235.9346    2.1667733    4.6307602   0.11202447 
   35500   -950.85197    42.580829   -908.27114    1525.0909   -4827.6964    2.1752057    4.4284252   0.10228693 
   35600   -949.67749    47.720182   -901.95731    1709.1639    4390.6436    2.1929893    5.8437036   0.12119011 
   35700   -947.02192    47.137027   -899.88489    1688.2774    5868.9407    2.1887207    5.4118415   0.12781438 
   35800   -950.80765    44.946704   -905.86094    1609.8279   -9939.6797    2.1613281    6.7294637   0.11530183 
   35900   -944.08485    42.514675   -901.57018    1522.7215   -6056.5856    2.1600075    5.5937853   0.12600882 
   36000   -944.42344    48.054968   -896.36847    1721.1547    8931.2775    2.1940152    3.0072255    0.1218628 
   36100   -947.43968    45.107727   -902.33195    1615.5952    4764.5133    2.1902253    3.2012663   0.12376425 
   36200   -946.14784    42.292764   -903.85508    1514.7734   -8657.0008    2.1540821    5.4016276   0.13460308 
   36300   -943.97028    49.108757   -894.86152    1758.8976   -6936.0364    2.1542888    6.9011604   0.14003354 
   36400   -947.60281    46.703953   -900.89886    1672.7662    11504.674    2.2065421    6.3428139   0.14829928 
   36500   -947.49316    44.512228   -902.98094    1594.2666    1944.4585    2.1863487   0.60091775   0.13976892 
   36600    -944.4555    48.690091   -895.76541    1743.9025    -8829.121    2.1470095    4.5066443   0.14057478 
   36700    -946.6361    46.046369   -900.58973     1649.214   -3405.6872    2.1691172    3.3565304   0.15805246 
   36800   -947.29617    43.888433   -903.40774    1571.9245    3181.9647    2.1884497    6.6460327    0.1562764 
   36900   -941.30552    42.069926    -899.2356    1506.7922    3807.2432    2.1747696    6.7906975   0.15489103 
   37000   -943.39913    43.555323    -899.8438    1559.9937   -1271.9791    2.1633853    7.8356068    0.1415948 
   37100   -949.24546    42.779489   -906.46597    1532.2061    1580.5148    2.1861433    5.5608675   0.13535539 
   37200   -949.04161    48.210557   -900.83105    1726.7273    2599.0528    2.1841855    5.8636309   0.12735205 
   37300   -946.58291    47.056997   -899.52592     1685.411   -716.75903    2.1698643    9.0886506   0.12734594 
   37400    -950.3145    41.935192   -908.37931    1501.9665   -3436.6572    2.1790772    5.7414594   0.13671291 
   37500   -942.41966     40.68295   -901.73671    1457.1157    2204.0434    2.1736224    7.5961073   0.14217646 
   37600   -943.80144    43.978878   -899.82256    1575.1639     4221.733    2.1823726    3.3204377   0.15113145 
   37700   -950.76492    42.596421    -908.1685    1525.6493   -359.63944    2.1862737    6.4038458   0.14303777 
   37800   -945.06439    43.705651   -901.35874    1565.3779   -5516.6432     2.157346    5.3594387   0.16236036 
   37900   -943.29967    43.181972    -900.1177    1546.6216    3202.7463    2.1763609    6.1120447   0.15757529 
   38000   -948.00414     43.22339   -904.78075    1548.1051    11261.327    2.2048697    5.1436027   0.13761222 
   38100   -944.98268    40.668403   -904.31428    1456.5947   -1835.9801     2.172386    6.1543213   0.13454785 
   38200   -943.16178    45.265904   -897.89587    1621.2605   -13817.489    2.1339111    5.8840832   0.15031305 
   38300   -947.42591    44.126769   -903.29914    1580.4608    1346.0424     2.181599    5.1929329   0.12939164 
   38400   -945.82701      43.0961   -902.73091     1543.546    12440.086    2.2095806   0.30664795   0.13724899 
   38500   -941.84006     46.99411   -894.84595    1683.1586   -3650.1336    2.1546168   0.36541305   0.15081651 
   38600   -946.91272    44.338458   -902.57426    1588.0428   -9444.5941    2.1566301   0.28334305    0.1363295 
   38700   -948.09741    44.885761   -903.21165    1607.6452      46.3497    2.1772908   0.87286827   0.13134893 
   38800   -946.27242    50.375306   -895.89711    1804.2608    6707.6931    2.1903272   0.38683699   0.12205954 
   38900   -946.95486    45.089852   -901.86501     1614.955   -3578.0772    2.1714826  0.047691477   0.12746932 
   39000   -948.39377    42.849534   -905.54423    1534.7149   -7680.9342    2.1629519  0.017067603   0.10883959 
   39100   -948.12968    48.408743   -899.72093    1733.8256    695.80412    2.1814115  0.057749899   0.10511142 
   39200   -946.70344    45.061338    -901.6421    1613.9337    2941.2993    2.1865544  0.063818071   0.10938994 
   39300   -950.69786    43.248335   -907.44952    1548.9985   -234.02001    2.1870949  0.046605828   0.11039043 
   39400   -947.07432    45.309074   -901.76524    1622.8067   -952.62843    2.1765002   0.15508728   0.13872521 
   39500   -945.19331    44.318828   -900.87448    1587.3397    1074.8641    2.1779806    0.0784441   0.14444634 
   39600   -951.31736    41.905928   -909.41143    1500.9184    1734.4248       2.1957  0.083003001   0.12483432 
   39700   -947.58387    45.596869   -901.98701    1633.1145   -1503.2733    2.1716884   0.15199484   0.11351772 
   39800   -947.93207    46.284198   -901.64787    1657.7321   -3709.2324    2.1705159   0.10842573    0.1182757 
   39900   -949.61193    40.991455   -908.62048    1468.1653    3811.6477    2.1948421  0.098212993   0.12379502 
   40000   -948.45445    45.244341   -903.21011    1620.4882     799.4891    2.1840999  0.097177044   0.11302397 
   40100   -948.28961     47.41418   -900.87543     1698.204   -2865.9798    2.1719618  0.073586449   0.11136993 
   40200   -946.98428    41.210588   -905.77369    1476.0138   -1623.8419    2.1750174   0.10386495   0.11313528 
   40300   -949.04805    44.325473   -904.72258    1587.5777    4662.0259    2.1977298   0.58585107    0.1225342 
   40400   -943.15404    45.677055   -897.47699    1635.9865    3374.9627    2.1820748   0.21331362   0.14287864 
   40500   -948.47701    44.430744   -904.04626    1591.3481   -9682.8943    2.1614748  0.096419726   0.14048915 
   40600   -948.66721     44.83432   -903.83289    1605.8028    -3080.578    2.1774808   0.10090351   0.13823254 
   40700    -941.3044    46.769344   -894.53505    1675.1083    11314.818    2.1938502  0.052307814   0.12903568 
   40800   -947.98989    45.843789    -902.1461    1641.9583    5201.4615    2.1938207  0.036278371   0.11865239 
   40900   -945.35823    40.072499   -905.28573    1435.2516   -8611.0032    2.1574782   0.02998434   0.13140305 
   41000   -944.40666    45.905814   -898.50085    1644.1798   -4671.8327    2.1672774   0.10043137   0.14264192 
   41100   -947.08007    46.096947   -900.98312    1651.0255    8783.4679    2.2069843  0.056703169   0.12335023 
   41200   -946.85725    41.198751    -905.6585    1475.5898    4135.3405    2.1926977   0.04617486   0.11715731 
   41300    -944.9467    42.805281   -902.14141    1533.1299   -7162.3677    2.1611106   0.16200195   0.11686142 
   41400   -941.61986    43.703869   -897.91599    1565.3141    -1700.385    2.1698664  0.038220299   0.14788007 
   41500   -951.39934     43.75401   -907.64533      1567.11    7995.9139    2.2110482  0.045143034   0.14162694 
   41600   -945.53531    41.960064   -903.57525    1502.8573    115.96233    2.1798309   0.16534429   0.13308117 
   41700   -946.65027    46.081823   -900.56845    1650.4838   -6091.5706    2.1622716  0.013874765   0.12741479 
   41800   -952.48314    44.002773   -908.48036    1576.0198   -300.50872    2.1915955  0.064576252   0.11488009 
   41900   -951.74192     46.27122    -905.4707    1657.2673    1407.2073     2.191328  0.070913576   0.11166188 
   42000   -945.40548    44.708927   -900.69655    1601.3116   -275.60156    2.1743168  0.050794872   0.12291304 
   42100   -947.01207    41.573357   -905.43871    1489.0069   -2333.7796     2.176817   0.29821345   0.11615636 
   42200   -950.08514    41.793375   -908.29176    1496.8871     990.3596     2.194151 0.0084887105   0.10587352 
   42300   -945.67698    45.835302   -899.84168    1641.6543    58.480297     2.175041  0.079264108   0.12192593 
   42400    -946.6864    42.981811   -903.70459    1539.4526   -956.59986    2.1790702  0.052647848   0.12291455 
   42500   -952.01747    44.583014   -907.43445    1596.8019   -669.34897    2.1909359  0.037095676   0.12333956 
   42600   -943.49822    45.762589   -897.73564      1639.05   -634.70046    2.1736349  0.019623453   0.14532492 
   42700   -944.74166    43.101599   -901.64006     1543.743    2608.4953    2.1834085   0.15533515   0.12925981 
   42800   -948.46073    42.597154   -905.86358    1525.6756    965.89417      2.18633  0.053691167   0.11880329 
   42900   -946.81405    48.482005   -898.33205    1736.4496   -1635.5389    2.1741669  0.026162626   0.12509357 
   43000   -947.60687    47.762922   -899.84395    1710.6947   -123.05932    2.1772131   0.28567398   0.10841298 
   43100   -946.80198    41.450099   -905.35188    1484.5922    1364.9846    2.1807688   0.12368284   0.11408014 
   43200   -948.26439    48.088644   -900.17575    1722.3608    472.47606    2.1794314 0.0096357832   0.11616141 
   43300   -945.57146    48.155199   -897.41626    1724.7446    2106.8367    2.1798021   0.21543139   0.11352067 
   43400   -948.70072    43.235682   -905.46504    1548.5453   -2096.0629    2.1796197   0.11283605   0.12168636 
   43500   -948.54891    46.165368   -902.38354    1653.4761   -3908.0875    2.1729067  0.021268931   0.12240814 
   43600    -944.0508    47.361866   -896.68893    1696.3303    868.03647    2.1766039  0.093265598   0.13967768 
   43700   -952.79223    46.383783   -906.40845    1661.2989    3042.1643    2.1971922  0.027560012   0.12917224 
   43800   -950.58724    46.593513   -903.99373    1668.8107   -7401.8493    2.1641467   0.18877761   0.11744559 
   43900    -945.8649    45.951412   -899.91349    1645.8129   -5290.5182    2.1612679   0.24079975   0.11773367 
   44000   -950.64258    42.566493   -908.07609    1524.5774    8976.5328    2.2077987  0.074721122   0.11786151 
   44100   -947.76165    42.160493   -905.60115     1510.036    2769.1156    2.1917861   0.15177371   0.11596733 
   44200   -944.64777    43.552423   -901.09535    1559.8899   -5223.3121    2.1594588    0.2416409   0.12012103 
   44300   -947.20815    43.424994   -903.78315    1555.3258   -1934.2437    2.1723273   0.27351522   0.12227431 
   44400    -951.3109    43.177687   -908.13321    1546.4682     9933.319    2.2117369    0.0769421   0.10996644 
   44500   -946.14392    46.623152   -899.52077    1669.8722    1019.6911    2.1785458   0.30886309   0.13473413 
   44600    -947.4254    44.039666   -903.38573    1577.3411   -7842.6693     2.158598  0.038328489   0.14157067 
   44700   -950.54866    43.315825   -907.23284    1551.4158   -888.51334    2.1822979  0.061033252   0.12579784 
   44800   -946.11723    47.493403   -898.62382    1701.0415     10873.06    2.2015676  0.082028661   0.12890703 
   44900   -947.99347    47.613258   -900.38022    1705.3342    3445.3946    2.1855837  0.090340175   0.12907656 
   45000   -950.53153    44.429034    -906.1025    1591.2869   -13589.113    2.1506257   0.14256986   0.12434694 
   45100   -947.27783    46.930771   -900.34706      1680.89   -4701.0956     2.165916  0.082631917   0.12834081 
   45200   -942.63175    46.457977   -896.17377    1663.9563    15838.835    2.2096559  0.032312789   0.14322987 
   45300   -949.52295    45.209674   -904.31327    1619.2466    3072.1267    2.1899964   0.15986523   0.11651136 
   45400   -946.40053    42.961525   -903.43901     1538.726   -12193.309    2.1504943   0.46355854   0.12904057 
   45500    -944.6064    47.605371   -897.00103    1705.0517   -1298.9865    2.1681713   0.10092758   0.13682647 
   45600   -950.03837     43.82952   -906.20885    1569.8145    6907.7435     2.201434  0.038530478   0.13572625 
   45700   -949.80206    45.264986   -904.53708    1621.2277    -3534.627    2.1784421   0.15369747     0.126682 
   45800   -947.24699    47.180537   -900.06645    1689.8357   -6125.8867    2.1649694 0.0072352855   0.13526922 
   45900   -951.04715     44.08013   -906.96702    1578.7904    210.47475    2.1871932  0.094823671   0.11888326 
   46000   -951.06002     44.72291   -906.33712    1601.8124     2690.887     2.188543  0.062896473   0.11660337 
   46100   -943.98995    43.443956   -900.54599    1556.0049   -623.38753    2.1720062   0.24969359   0.12824877 
   46200   -947.56059    43.379449   -904.18114    1553.6946   -1058.4848    2.1758408   0.21642711    0.1205791 
   46300    -950.1244    41.700105    -908.4243    1493.5465    3746.6964    2.1945044  0.016011619   0.11672545 
   46400   -945.19554    45.248822   -899.94672    1620.6487    994.96701    2.1764183   0.24310333   0.10888118 
   46500   -944.69604    41.510497   -903.18554    1486.7555   -214.81072    2.1757898  0.082882922   0.11889325 
   46600   -950.05302    41.788233   -908.26478     1496.703    -1605.772    2.1833702   0.11490775   0.12218644 
   46700   -946.68418     47.69667   -898.98751    1708.3217    863.47423     2.176702   0.38150189   0.14420682 
   46800   -946.54867     45.09252   -901.45615    1615.0505    4439.5727    2.1910693  0.014570779   0.13872639 
   46900    -951.4216    44.899051   -906.52255    1608.1212   -3213.5623    2.1773851  0.051853288    0.1249971 
   47000   -945.87962    47.526253   -898.35336     1702.218   -6548.7244    2.1558226   0.47453959   0.12534316 
   47100   -950.17742    50.011226   -900.16619    1791.2208    4854.4085    2.1939712   0.17218199   0.11659782 
   47200   -949.65484    45.016825   -904.63802    1612.3394    5003.8352    2.1948639  0.092091353   0.11334673 
   47300   -943.69379    42.857213   -900.83657    1534.9899   -5634.6046    2.1563728  0.069822958   0.11401047 
   47400   -946.35575    48.990945    -897.3648     1754.678   -7422.8232    2.1525845  0.036769907   0.11726565 
   47500   -950.65484    45.188249   -905.46659    1618.4792    8550.5907    2.2070948  0.068435315   0.11244225 
   47600   -945.66434    43.825424   -901.83891    1569.6678    6906.5244    2.1913788   0.05140146   0.13585906 
   47700   -943.74642    44.109023   -899.63739    1579.8252   -9850.2531    2.1450251  0.015306784   0.13241033 
   47800   -948.79743    39.927877   -908.86955    1430.0718   -2486.0685    2.1785793   0.13716519   0.12397629 
   47900   -947.37305    44.317948    -903.0551    1587.3082    9140.7333    2.2023724   0.09525148    0.1215241 
   48000    -950.0339    49.727934   -900.30596    1781.0743   -117.13146    2.1825972   0.26681047   0.11735987 
   48100   -950.92934    43.364066   -907.56528    1553.1436   -9419.1716     2.163696   0.25417039   0.10894267 
   48200   -948.42914    42.969211   -905.45993    1539.0013   -1395.6998    2.1782177  0.062018527   0.11987519 
   48300   -946.12035    46.664018   -899.45633    1671.3359    5380.4953    2.1884289  0.037769671   0.12188622 
   48400   -950.17372    44.384454   -905.78927    1589.6902    176.10414    2.1852528   0.10076218   0.11334502 
   48500    -948.8597    42.045459   -906.81425    1505.9159   -2721.3024    2.1791732  0.044741858   0.12391242 
   48600   -945.16373    46.077837    -899.0859     1650.341   -4460.4128    2.1674309  0.017116536   0.12096802 
   48700   -949.95957    45.795478   -904.16409     1640.228    120.35317    2.1844915  0.040020313     0.117565 
   48800   -947.82402    41.560831   -906.26319    1488.5583    2276.1533    2.1857413  0.026149703   0.11623495 
   48900   -940.93317    43.588872    -897.3443    1561.1953   -1990.8807    2.1622821   0.22135655   0.14709888 
   49000   -951.98457    47.953641   -904.03093    1717.5255   -1842.5977     2.184291   0.11105568   0.12750751 
   49100   -950.15628    45.245236   -904.91104    1620.5203     3123.759    2.1911414   0.12928496   0.11187609 
   49200   -943.14231    46.385129   -896.75718    1661.3471   -2192.3501     2.161718   0.10040649   0.11725164 
   49300   -947.75939    43.571377   -904.18802    1560.5687   -2505.3974    2.1742022   0.10402253   0.10983156 
   49400   -947.50547    42.722028   -904.78344    1530.1481    1576.4582    2.1858316   0.05553181   0.11827626 
   49500   -945.60271    47.673333   -897.92938    1707.4859    2667.5812    2.1799678  0.069503778   0.12911742 
   49600   -949.09777    45.126939   -903.97083    1616.2833   -4341.4467    2.1715035   0.16337349   0.12649787 
   49700   -948.52173    42.320108   -906.20162    1515.7528   -5057.1854     2.169661  0.061508234   0.11383729 
   49800   -946.07447    46.687126   -899.38735    1672.1635    5425.7574    2.1864773   0.24520635   0.12137842 
   49900   -946.39274    41.919446    -904.4733    1501.4025    9329.7539    2.1992166  0.089013714    0.1307727 
   50000   -949.58241    41.228728   -908.35368    1476.6635   -5585.8976    2.1722417   0.16167806   0.14227224 
   50100   -947.43177    46.474488   -900.95729    1664.5476   -8776.6309    2.1572476  0.067563103   0.12749185 
   50200   -951.30489    48.827019   -902.47787    1748.8068    4693.9895    2.1969548   0.14144345   0.11748354 
   50300   -955.26066    47.378253   -907.88241    1696.9172    5068.7825    2.2069454   0.11864293  0.096105143 
   50400   -942.98135    43.892571   -899.08877    1572.0727   -7349.0214    2.1491797  0.039511677   0.12130904 
   50500   -949.37341    47.116914    -902.2565     1687.557   -8077.0137    2.1631752  0.049557839   0.12865396 
   50600   -950.28544    44.723316   -905.56213     1601.827    7477.0257    2.2025921  0.059145586   0.11485539 
   50700   -945.24416    48.147266    -897.0969    1724.4604    2939.6317    2.1805786   0.15170554   0.12922778 
   50800   -945.11078    43.710327   -901.40045    1565.5454   -5768.6926    2.1602936   0.34608868   0.13326987 
   50900   -947.50696    41.504321   -906.00264    1486.5343   -2711.7515    2.1760659  0.085431392   0.13335245 
   51000   -944.16454    45.225362   -898.93918    1619.8084    7982.1604    2.1897267  0.015435367   0.13753981 
   51100   -947.91485    48.305719   -899.60913    1730.1357    660.35851    2.1811927   0.23290261   0.13114361 
   51200   -951.77098     45.26344   -906.50754    1621.1723   -6506.6168    2.1709392  0.052430515   0.10712071 
   51300   -942.84711    41.955301    -900.8918    1502.6867    1714.3454    2.1729361   0.10426643   0.12267468 
   51400   -946.18684    48.033804   -898.15304    1720.3967    3669.2567    2.1841842  0.005512024   0.11821162 
   51500   -952.03778    45.135896   -906.90188    1616.6041    2370.0534    2.1887177   0.11463669   0.10800149 
   51600   -948.76893    46.445389   -902.32354    1663.5054   -2518.1266    2.1725011  0.040741889   0.12994569 
   51700   -944.77304    45.286173   -899.48687    1621.9865   -272.97062    2.1720031   0.14152083   0.12204746 
   51800   -950.45193    41.875018   -908.57691    1499.8113    2934.9751    2.1962279   0.18366978   0.11896313 
   51900   -947.45281    44.777406    -902.6754    1603.7643   -1356.6814    2.1744636   0.08164708   0.12645308 
   52000   -944.94722    44.290848   -900.65637    1586.3376   -1847.3555    2.1683977   0.42420424   0.13144935 
   52100   -951.52446    43.006029   -908.51843      1540.32    2317.7322    2.1946132  0.015584258   0.12303853 
   52200    -948.8106    45.743097    -903.0675    1638.3518    2797.6774    2.1860629   0.36643643   0.12010043 
   52300     -946.979    46.392172   -900.58683    1661.5994   -3585.6109    2.1685847   0.16435249    0.1145575 
   52400   -948.40788    41.526894   -906.88098    1487.3428   -2373.5815    2.1762471   0.05814244   0.11864806 
   52500   -947.93121    43.706473   -904.22474    1565.4073    4571.4127    2.1900993   0.13213277   0.10859873 
   52600   -945.36095    46.650334   -898.71061    1670.8458    4696.4542    2.1831742  0.011611825   0.12510121 
   52700   -951.56411    46.414795   -905.14932    1662.4096   -8149.2721    2.1676758   0.06761648   0.11621268 
   52800   -946.23304    42.410678   -903.82236    1518.9967   -4994.0226    2.1669748   0.18033777   0.11075123 
   52900   -943.80125    47.257247     -896.544    1692.5832    6399.3081    2.1858979  0.046413625    0.1330586 
   53000   -948.83826    45.852595   -902.98567    1642.2737    5582.4554    2.1944446  0.067102356    0.1172462 
   53100   -945.96766    40.616748   -905.35091    1454.7446   -4986.6127    2.1634269   0.01118593   0.13931601 
   53200   -943.17494     46.37911   -896.79583    1661.1315   -8477.1929    2.1507609   0.13916488   0.14159786 
   53300   -944.68194     41.57491   -903.10703    1489.0625    12607.546    2.2062692  0.038932402    0.1188144 
   53400     -953.049    48.343452   -904.70554    1731.4871    1393.6185    2.1920386  0.032121689   0.11420479 
   53500   -948.26652    47.186694   -901.07982    1690.0562   -12347.872    2.1460205   0.10115256   0.11316843 
   53600   -945.65648    48.354667   -897.30181    1731.8888   -6227.4356    2.1570938   0.12730833    0.1207558 
   53700   -950.47098    44.138298   -906.33268    1580.8738    16374.969    2.2248047   0.12797496   0.11377745 
   53800   -948.49051    46.294472   -902.19604    1658.1001    989.52725     2.185069     0.108369   0.13365187 
   53900    -945.6043    44.382768   -901.22153    1589.6298   -10749.255    2.1487881  0.038834758    0.1368396 
   54000   -952.29737    42.828331   -909.46904    1533.9555   -599.58751    2.1868406  0.067364559   0.12902414 
   54100   -945.53303     42.11194   -903.42109     1508.297    8328.5415    2.1963262   0.11762666   0.13583775 
   54200   -947.74563    46.824233    -900.9214    1677.0742    38.665973    2.1763675   0.06984677   0.12658906 
   54300   -949.42137    42.527263    -906.8941    1523.1723   -5767.6637    2.1692747    0.1149553   0.11060993 
   54400   -949.38753    43.954204   -905.43333    1574.2802   -97.605874    2.1828785   0.19662571   0.10848353 
   54500   -945.89065    46.778682   -899.11197    1675.4427    5604.3096    2.1883996   0.11489945   0.11660199 
   54600   -947.02066    42.362395   -904.65826    1517.2674   -2002.0507    2.1774621   0.12371628    0.1218668 
   54700    -948.0094    42.375485   -905.63391    1517.7362   -5834.9817    2.1670768 0.00048647909   0.11886337 
   54800     -941.732    44.914661   -896.81734    1608.6803    2128.5492    2.1676307   0.15036676   0.12495501 
   54900   -949.52712    46.722457   -902.80466     1673.429    6531.5228    2.1999483  0.042344547   0.12991533 
   55000   -951.63362    46.172274   -905.46134    1653.7234   -1940.6456    2.1802742    0.1106803   0.12310754 
   55100   -943.62979    46.392487    -897.2373    1661.6106   -11388.886    2.1434732   0.13677744   0.14343947 
   55200   -948.56002    45.685322    -902.8747    1636.2825    3588.2248    2.1880632   0.26182853   0.12858704 
   55300   -949.28019    45.076402   -904.20379    1614.4733      11917.8    2.2114499  0.017594928   0.12120686 
   55400   -941.79111    41.238488   -900.55262    1477.0131   -2606.0221    2.1658396   0.06581575   0.13423087 
   55500   -942.59854    43.240995   -899.35755    1548.7356   -15737.559    2.1333316   0.22751067   0.13240222 
   55600   -951.40028    44.020566   -907.37971     1576.657    6846.4941    2.2108176    0.2543807    0.1247247 
   55700     -946.547    45.942833   -900.60416    1645.5056    15809.946    2.2151576    0.2348791    0.1324372 
   55800   -945.26315    43.815096   -901.44805    1569.2978   -5482.3543    2.1621685    0.1302431   0.13417117 
   55900   -951.09205    42.155381   -908.93667    1509.8529   -7544.7344    2.1727564  0.048843442   0.11366609 
   56000   -948.54986    45.228526   -903.32133    1619.9218    2609.1023    2.1925452  0.085969104   0.14054293 
   56100   -944.40435    44.398298   -900.00605     1590.186    5294.3568    2.1892108   0.13107203   0.12502607 
   56200   -948.83859    41.870502   -906.96809    1499.6495   -4248.9696    2.1796341      0.17925   0.13040205 
   56300   -948.83118    44.811972    -904.0192    1605.0023   -3037.6534    2.1750174   0.22603945   0.12600258 
   56400    -947.1142    48.088519   -899.02568    1722.3563    1908.4878     2.183291   0.11220665   0.11959046 
   56500   -950.25122    45.438603   -904.81262     1627.446    925.47655    2.1871952   0.19625131   0.12132061 
   56600   -950.36841    45.407728   -904.96069    1626.3402   -3898.4582    2.1753431   0.22984119   0.11979443 
   56700   -941.76769    44.388775   -897.37891     1589.845   -732.76192    2.1662751   0.24474336   0.14994301 
   56800   -947.42333    43.364352   -904.05898    1553.1538    7196.0629     2.200108  0.096336952   0.12067088 
   56900    -948.0556    43.421206    -904.6344    1555.1901    3479.8633    2.1910584   0.19311682   0.13196366 
   57000   -941.23396    44.190522   -897.04344    1582.7443   -7381.7875    2.1463057   0.15292074   0.13021721 
   57100   -947.55757    42.042007   -905.51556    1505.7922    502.99415    2.1831094  0.070651304   0.12754959 
   57200   -946.84439    42.882371   -903.96202     1535.891    11030.103    2.2116839  0.040322379   0.12812178 
   57300   -943.79836    44.929757   -898.86861    1609.2209   -767.23739    2.1746365  0.009711377   0.13819486 
   57400   -947.17142    45.097762   -902.07365    1615.2383   -13722.377    2.1420613   0.24381644   0.12391541 
   57500   -950.02464    43.406964   -906.61767      1554.68    1402.3568     2.188492  0.042705451   0.11941628 
   57600   -946.77667    48.312838   -898.46383    1730.3906    14211.671     2.209846  0.037685922   0.14206808 
   57700   -948.45043    46.022657   -902.42777    1648.3647   -968.29299    2.1763194  0.067948408   0.13553996 
   57800   -949.60669    41.090925   -908.51576    1471.7279   -8520.3646    2.1660705  0.014574473   0.13642775 
   57900   -945.04227    44.788706   -900.25356     1604.169    2187.2228    2.1805023   0.18645002   0.13784843 
   58000   -945.52508    44.452044   -901.07304     1592.111    6410.4642    2.1971682  0.075820833   0.13292238 
   58100   -950.95919    43.089525   -907.86966    1543.3105   -777.40227    2.1868231  0.040295092   0.11816897 
   58200   -946.36563    46.359625     -900.006    1660.4336   -7197.2678    2.1631546  0.042278354   0.12843193 
   58300   -945.54891    44.454875   -901.09403    1592.2124    1814.2716    2.1826496    0.1852215   0.12692215 
   58400   -951.82297    45.228225   -906.59474     1619.911     4375.392     2.197926  0.054390603   0.11375488 
   58500   -949.00352    50.225195   -898.77833    1798.8843   -5348.6533    2.1666811  0.031957957   0.11772582 
   58600   -946.80934    45.183488   -901.62585    1618.3087   -2970.1298    2.1688327   0.26382156   0.12202424 
   58700    -950.2189    43.762353   -906.45655    1567.4088    2151.8474    2.1900935   0.34313381   0.12820576 
   58800   -943.98126    45.516442   -898.46482    1630.2339    7129.0432    2.1845739  0.045369401   0.13193857 
   58900    -946.3886    44.537095    -901.8515    1595.1572   -783.23379    2.1737111   0.24333408   0.11689537 
   59000    -949.1756    42.115281   -907.06032    1508.4166   -6962.1222    2.1670718   0.16676965    0.1151765 
   59100    -945.2521    45.613101     -899.639    1633.6959    2590.7308    2.1801878  0.045109313   0.10622001 
   59200   -947.87404    46.455335   -901.41871    1663.8616    11772.882    2.2060133   0.25780373   0.10851042 
   59300   -949.74491     42.34774   -907.39717    1516.7425   -3260.2349    2.1761085  0.094068227   0.10879647 
   59400   -943.93839    42.427218   -901.51117    1519.5891   -11379.671    2.1441259  0.041692983   0.10358355 
   59500   -949.67528    50.662124   -899.01315    1814.5335    1613.9191    2.1839647   0.18277573   0.10874416 
   59600   -950.14196    43.880132   -906.26183    1571.6272    15107.459    2.2214713  0.054634823   0.11610114 
   59700   -946.33848    45.469593   -900.86888    1628.5559   -5360.0073    2.1645076   0.28348184   0.12626354 
   59800   -945.26165    44.806745    -900.4549    1604.8151   -8765.7444    2.1510195  0.054250047   0.13644716 
   59900   -949.72201    43.323288   -906.39872    1551.6831       3431.2    2.1927495  0.029107578   0.12518349 
   60000   -952.42877    49.990871    -902.4379    1790.4917    4183.9806    2.1965631  0.076451375   0.10067672 
   60100    -945.6581    46.547746   -899.11035    1667.1715   -4818.1251    2.1646673   0.14967194   0.12006221 
   60200     -950.892    44.241932   -906.65007    1584.5856    -6020.961    2.1709201    0.2187106   0.10608157 
   60300   -946.51337    44.090302   -902.42307    1579.1547    3668.0673    2.1857042   0.20256177   0.11204894 
   60400   -942.06045    44.323647    -897.7368    1587.5123    6895.0211    2.1827634  0.013060069   0.10926677 
   60500   -947.04595    40.690186   -906.35577    1457.3749    2173.1301     2.183467   0.20790307   0.10686009 
   60600   -945.20495    42.478661   -902.72629    1521.4316   -2036.1232    2.1677535   0.52004756   0.13165484 
   60700   -947.96892    49.720201   -898.24872    1780.7973    -490.8227    2.1721922   0.11263907   0.13420756 
   60800    -949.7956    42.985123   -906.81048    1539.5712    6352.8562    2.2015096   0.08180749   0.12958117 
   60900   -944.53238    41.926934   -902.60544    1501.6707    247.73189    2.1733959  0.090354183   0.12397111 
   61000   -944.81977    45.025519   -899.79425    1612.6508   -6764.9522    2.1545424   0.32345164   0.12063036 
   61100   -950.95255    42.956414   -907.99613     1538.543    2767.7531    2.1934752  0.025540061   0.10077888 
   61200   -949.35507    46.716521   -902.63855    1673.2164    11805.382    2.2098647  0.089408114   0.10675449 
   61300   -947.78421    47.609703   -900.17451    1705.2069   -7858.9089    2.1578204  0.067349908   0.11788887 
   61400   -948.47941    41.300605   -907.17881    1479.2379   -16741.739    2.1396742   0.20385385   0.10991126 
   61500   -946.65624    42.615578   -904.04066    1526.3355    8322.0574    2.1985747   0.15288015   0.11190697 
   61600   -946.19184     49.09544    -897.0964    1758.4206    13260.973       2.2066   0.23735251   0.12231739 
   61700   -950.51095    45.787474   -904.72348    1639.9413   -7155.5021    2.1651631  0.014747436   0.11357347 
   61800   -950.42397    45.290246   -905.13372    1622.1324   -11051.615     2.156518   0.19422208   0.12837197 
   61900   -944.68412    47.365243   -897.31888    1696.4512    3714.1243    2.1792315  0.084124112   0.12367538 
   62000    -951.7359    47.795716   -903.94019    1711.8692    5791.5075    2.1999862  0.071745906   0.10533983 
   62100    -949.5149     43.65032   -905.86458    1563.3962   -4534.7466    2.1727524 0.0091642829   0.10701538 
   62200    -944.0641    45.939033   -898.12507    1645.3696   -8633.5673    2.1499059  0.079873656   0.12131849 
   62300   -951.08851    45.753478   -905.33503    1638.7237    2648.0302    2.1947546  0.054377136   0.12037863 
   62400   -950.36551    45.172834   -905.19267    1617.9271    4323.6557    2.1998625  0.092136111   0.12057478 
   62500   -944.51636    45.680945   -898.83541    1636.1258   -5158.5443    2.1597312   0.13525521   0.11634763 
   62600   -948.12498    43.760994   -904.36398    1567.3601   -7771.4175    2.1618567  0.041154621   0.13655719 
   62700   -951.78409    45.978092     -905.806    1646.7685    3612.5235    2.1959784   0.20161625   0.12843402 
   62800    -944.9567    46.617284   -898.33942    1669.6621    7198.2175    2.1910296   0.11495403   0.14316994 
   62900   -949.80888     45.46885   -904.34003    1628.5293   -6725.2895      2.16815  0.015779174   0.13239261 
   63000   -953.35744    46.492534   -906.86491     1665.194   -8262.9604    2.1698547   0.07189034   0.11753648 
   63100   -944.36052    46.021984   -898.33854    1648.3406    3238.2387    2.1807185  0.050059868   0.12712617 
   63200   -947.70732    44.388675   -903.31865    1589.8414    4755.2649    2.1956062  0.038750126   0.12263199 
   63300   -948.03593    40.617463   -907.41847    1454.7702   -1780.8337    2.1785606  0.057540461   0.12388877 
   63400   -946.38883    47.578685   -898.81015     1704.096   -8614.7899    2.1563907  0.028042658   0.12593672 
   63500   -947.61547    44.539691   -903.07578    1595.2502    4225.2277    2.1899688   0.10034393   0.11335111 
   63600   -946.23826    40.061277   -906.17698    1434.8497    6010.3187    2.1957182  0.098899796   0.12641087 
   63700   -944.90059     46.59572   -898.30487    1668.8897   -3425.6543    2.1656707   0.10708789   0.13985604 
   63800   -948.74231    45.275806   -903.46651    1621.6152    -3135.581    2.1757694   0.05313532   0.11925076 
   63900   -950.31385    44.577942   -905.73591    1596.6202    994.25118    2.1860534 0.00049550981   0.11610895 
   64000   -941.22201    43.055617   -898.16639    1542.0961    3297.6447    2.1736567  0.084035383   0.12543601 
   64100   -948.38186      44.5623   -903.81956      1596.06   -1569.8554    2.1769551   0.04461373   0.11323512 
   64200   -945.47362    39.145919    -906.3277    1402.0649    1933.7003    2.1798388   0.14585596   0.11152312 
   64300   -941.85998    42.822259   -899.03772     1533.738    1969.4294    2.1745291  0.052296662   0.11709325 
   64400   -947.07398    42.687379    -904.3866    1528.9071    3908.2541    2.1873269  0.067964488   0.11239291 
   64500   -950.22443    43.343462   -906.88097    1552.4056   -2400.5754    2.1802615   0.16697751   0.11490299 
   64600    -946.9457    47.370648   -899.57505    1696.6448     -3477.62    2.1645316  0.044243546   0.11371406 
   64700   -948.78761    44.576154   -904.21146    1596.5562    2443.3536    2.1869565  0.058410986   0.11209942 
   64800   -951.29309    44.195888    -907.0972    1582.9364    2003.6376    2.1933967  0.024728476   0.12318111 
   64900   -945.74846    46.474384   -899.27408    1664.5439   -4987.0463    2.1603304  0.058528294   0.12824835 
   65000   -949.43603    45.004988   -904.43104    1611.9154   -4832.2249    2.1687432  0.096499704   0.11924177 
   65100   -952.84817    47.051025   -905.79715    1685.1971    5082.1748    2.1991541  0.016906232   0.11152083 
   65200   -944.85992    47.580516   -897.27941    1704.1615    2821.8438    2.1781947   0.12510926   0.12021724 
   65300   -943.60474    39.817686   -903.78706    1426.1251   -4387.4031    2.1614899   0.14171825   0.12539358 
   65400   -948.43191    42.628599   -905.80331    1526.8018    -3869.512    2.1695893     0.110302   0.11924741 
   65500   -940.89278    43.873941   -897.01883    1571.4055    9632.9253    2.1877447     0.125054   0.11572782 
   65600   -944.48626    41.973124   -902.51313    1503.3251    10277.327    2.1964536  0.087073924   0.11379983 
   65700   -949.80429     43.08758   -906.71672    1543.2408   -11336.347    2.1557577  0.027914522   0.11552651 
   65800   -947.23216    47.741885   -899.49027    1709.9412   -8980.7484    2.1509105   0.28644723   0.12676101 
   65900   -946.16921    44.125007    -902.0442    1580.3977    11812.937    2.2053059   0.10598892     0.130053 
   66000   -948.89864    42.615918   -906.28272    1526.3476    6067.5284    2.1978572  0.022356674   0.12309483 
   66100   -945.92277    44.737172    -901.1856    1602.3233   -8399.8485    2.1554758   0.13390089    0.1244395 
   66200   -945.76239    45.407237   -900.35515    1626.3226   -5545.0259    2.1635706  0.022386614   0.12168013 
   66300   -950.32742    42.694581   -907.63284     1529.165    7720.7441    2.2057864  0.020689051   0.11957211 
   66400   -946.18558    45.821058   -900.36452    1641.1441    1882.0237    2.1769455  0.014424133   0.11855994 
   66500   -947.43438    45.927002   -901.50738    1644.9386   -4741.0575    2.1654026   0.13659321   0.11573835 
   66600   -950.57919    42.713209   -907.86598    1529.8323    73.582291    2.1853991   0.36879825   0.10950866 
   66700   -945.82997    46.130074    -899.6999    1652.2119    2812.6207    2.1795159  0.050037887   0.11824001 
   66800   -948.97755    47.393438   -901.58411    1697.4611    -1821.969    2.1765163  0.083818304   0.11695587 
   66900   -949.28718    41.527473   -907.75971    1487.3635   -3330.8704    2.1756711   0.04279225   0.11785339 
   67000   -942.81003    43.097359   -899.71267    1543.5911    313.67138    2.1727578   0.07793317   0.13246041 
   67100   -948.37917    47.112591   -901.26658    1687.4022    3791.9396    2.1937211  0.071285145   0.12820917 
   67200   -951.23942    44.408127    -906.8313    1590.5381   -975.08501    2.1850586   0.17744717   0.11615273 
   67300   -944.78408    45.182394   -899.60168    1618.2695   -6758.9492    2.1541809  0.077358829   0.13917265 
   67400   -942.50269    41.821682   -900.68101     1497.901    4182.1922    2.1806786  0.024574308   0.12548977 
   67500   -949.69064    44.203831   -905.48681    1583.2209    10763.415    2.2099986  0.012921208   0.12053686 
   67600   -943.77252    44.307294   -899.46523    1586.9266   -642.87832    2.1671587   0.12677323   0.13726309 
   67700   -947.88953     46.92793    -900.9616    1680.7883    -17237.26    2.1355948  0.093561163   0.11698713 
   67800   -947.73831    40.796523   -906.94178    1461.1835    6113.2416    2.1949421   0.11529777    0.1306281 
   67900   -946.50014    46.401527   -900.09862    1661.9344    17887.116    2.2162752   0.15595627   0.12192261 
   68000   -946.70054    46.070402   -900.63013    1650.0747   -3423.9774    2.1662504  0.055897085   0.12709153 
   68100   -948.89765    40.699807   -908.19784    1457.7195   -9141.8419    2.1581708  0.018169078    0.1302613 
   68200   -949.70582    47.368131   -902.33769    1696.5547    941.24587    2.1839305   0.15301201   0.11410055 
   68300   -945.14883    46.286797   -898.86203    1657.8252    7613.4265    2.1916803   0.32248479    0.1196344 
   68400   -954.27854    46.979674   -907.29887    1682.6416   -2791.8098    2.1817532   0.11365555  0.097878741 
   68500   -946.07435    43.839328   -902.23503    1570.1657   -4918.3802    2.1636748  0.031323936    0.1162913 
   68600   -944.49914    45.494521   -899.00461    1629.4487    1590.0317    2.1753667  0.055990657   0.11922206 
   68700   -950.84692    44.473442   -906.37347    1592.8774    5108.3769    2.2005043    0.1254776   0.11679186 
   68800   -947.68221    46.202216      -901.48    1654.7958   -2311.0934    2.1708313  0.089535885   0.12685693 
   68900   -945.84834    45.997326   -899.85102    1647.4574   -4942.7697    2.1591329   0.15996337   0.12531164 
   69000   -952.09896    45.549717   -906.54925    1631.4257    873.01196    2.1925703  0.051295812   0.11931721 
   69100   -946.53986    44.935599   -901.60426    1609.4302     6008.297    2.1947351  0.055800236   0.12475106 
   69200   -942.73457    43.224143   -899.51043    1548.1321   -3397.0995    2.1596582   0.29655635   0.13455684 
   69300   -948.74136    41.311518   -907.42984    1479.6288   -8615.1429    2.1628006  0.028121449   0.10792001 
   69400   -947.03725    44.886327   -902.15092    1607.6655    6974.0754    2.1949391   0.11784908   0.11059171 
   69500   -948.75472     51.86464   -896.89008    1857.6033    10459.278    2.2016776  0.035842448    0.1105943 
   69600   -948.90576    43.390511   -905.51525    1554.0908    -11274.86    2.1561945  0.039979253     0.121145 
   69700   -946.62241    42.535913    -904.0865    1523.4822   -14351.516    2.1410385  0.067022477   0.13191726 
   69800   -943.82683    46.429318   -897.39751    1662.9298    10277.587    2.1932997  0.071420833   0.13779543 
   69900   -950.08556    45.665974   -904.41958    1635.5896    10712.658    2.2070228   0.12628233    0.1260808 
   70000   -949.82876    43.432855    -906.3959    1555.6074   -5573.6852    2.1694916   0.23540775   0.11900069 
   70100    -946.6563    48.091084   -898.56521    1722.4482   -8327.1851    2.1517891  0.017125138   0.13208228 
   70200    -949.3061    44.826064   -904.48004     1605.507    4966.3401    2.1944667  0.075089443   0.11477488 
   70300   -948.86328    43.168969   -905.69431    1546.1559    5216.5742    2.1961916  0.042372847   0.11474443 
[...]
  186800   -948.78832    43.728869   -905.05945    1566.2095   -4007.1032    2.1684721    17.111977   0.11440172 
  186900   -947.51138    46.777545   -900.73384     1675.402    4602.7531    2.1832701     11.33603   0.11035973 
  187000   -947.32579    44.152776   -903.17301    1581.3923    2742.7513    2.1838566    14.295646   0.11364688 
  187100   -953.06241     43.83797   -909.22444    1570.1171   -3557.3412    2.1784341    16.148312   0.11488439 
  187200   -946.59234    43.928555   -902.66379    1573.3615   -1487.5187    2.1724517    15.699875   0.11619297 
  187300   -945.86509    44.660301   -901.20479      1599.57    2612.3657     2.183933    16.617757   0.11571408 
  187400   -952.86838      43.2184   -909.64998    1547.9264    803.17523    2.1942347    16.740361   0.10713871 
  187500   -946.75926    42.926309   -903.83295    1537.4647   -4314.9103    2.1642069    15.156658   0.11636734 
  187600   -946.45348    45.133454   -901.32003    1616.5166    1151.2451    2.1754792    13.265408    0.1184764 
  187700   -949.69799    44.655994     -905.042    1599.4158    4803.3938    2.1944575    15.962891    0.1097292 
  187800   -952.55415    42.030608   -910.52354     1505.384   -70.637407     2.189227    15.724835    0.1124017 
  187900   -945.95644    45.428045    -900.5284    1627.0678   -12770.183    2.1442575    18.454001   0.13246763 
  188000   -944.59941    41.950398   -902.64901    1502.5111     4034.571    2.1847071    15.623627   0.11766934 
  188100   -947.55758    43.561158   -903.99642    1560.2027    15361.008    2.2184175    14.349207     0.131213 
  188200   -941.54141    46.696083   -894.84533    1672.4843   -5341.9874    2.1527869    17.783116   0.13737463 
  188300   -944.83321    44.882947   -899.95026    1607.5444   -8760.0156    2.1489795     15.99078   0.12068344 
  188400   -947.36348    43.774422   -903.58906     1567.841    4402.6742    2.1890923    14.318125   0.11204697 
  188500   -947.70773    44.643779   -903.06395    1598.9783    8692.4027    2.1999634    14.748972   0.12503873 
  188600    -938.7441    44.412272   -894.33183    1590.6865    -4896.507    2.1483376    15.072523   0.14513406 
  188700   -947.88332    44.116879   -903.76644    1580.1066   -3004.5999    2.1698486    15.967524   0.11157516 
  188800   -947.99611    44.445431   -903.55068    1591.8741    4139.4597    2.1886693    18.133231    0.1183184 
  188900    -947.1282    47.661987   -899.46621    1707.0795    1148.1732    2.1791715    15.832274   0.12397744 
  189000   -943.01194      46.8074   -896.20454    1676.4713   -4317.4312    2.1574859    15.517778   0.11560523 
  189100   -948.34829    43.043406   -905.30488    1541.6587    4438.6404    2.1871682    17.060971   0.12190571 
  189200   -946.08982    43.571577   -902.51824    1560.5759    4925.3593    2.1890612    15.998842   0.12382798 
  189300   -946.85793    46.459543   -900.39839    1664.0124   -2964.2414    2.1715378    17.267904   0.12776671 
  189400   -953.46939    44.651369   -908.81802    1599.2501   -6508.0393    2.1753186    14.885997   0.11642237 
  189500   -949.82208    42.942596   -906.87949    1538.0481   -672.21085    2.1822898    17.063956   0.11644448 
  189600   -944.73055    43.042573   -901.68798    1541.6289    6589.7917    2.1897868    19.009345   0.12593581 
  189700   -942.67278    40.401842   -902.27094    1447.0475    2518.2931    2.1765101    16.193821   0.11779389 
  189800   -951.75522     40.76776   -910.98746    1460.1533   -1565.8318    2.1799907    16.141235   0.10663683 
  189900   -949.09546    45.425781   -903.66968    1626.9867   -2029.2876    2.1728944    16.619968   0.10517278 
  190000   -949.67185    48.858506   -900.81334    1749.9345    3880.5619    2.1881275    14.914461   0.11433503 
  190100     -950.732    43.537209   -907.19479    1559.3449    2145.4535    2.1883319    15.558533   0.11532385 
  190200   -950.21568    42.210537   -908.00514    1511.8284   -12424.181    2.1543864    14.421864   0.12668639 
  190300   -945.35263    43.783571   -901.56906    1568.1687    137.45042    2.1731917    16.339046   0.13020181 
  190400   -949.19641    47.352002   -901.84441     1695.977     14867.18     2.217374    17.076143   0.11216397 
  190500   -955.47339    47.628186    -907.8452    1705.8689   -3507.0826    2.1835912    16.524554   0.10494303 
  190600    -944.9135    46.994307    -897.9192    1683.1657   -14925.673    2.1337869    18.509096   0.11589025 
  190700   -948.72805    48.114449    -900.6136    1723.2851    887.76163    2.1836277    16.916701    0.1156171 
  190800   -950.42621    46.588451   -903.83776    1668.6294    10567.892    2.2057647     15.12522   0.10538333 
  190900   -946.40171    43.960972   -902.44073    1574.5226   -2939.3524    2.1700766    15.019156   0.12656346 
  191000   -943.55974    47.495781   -896.06396    1701.1266   -11599.635     2.142678    16.669537   0.12948243 
  191100   -951.22199    46.482248   -904.73974    1664.8256    3916.0067    2.1949131     14.35147   0.12862565 
  191200    -947.7933    44.685908   -903.10739    1600.4872      8205.69    2.1991122    17.049748   0.11979404 
  191300   -943.18879    46.329795     -896.859    1659.3652   -4263.7439    2.1563915    14.753136   0.13154318 
  191400   -949.65619    45.361218   -904.29498    1624.6743   -8677.6627    2.1612234    18.028504   0.10956599 
  191500   -948.83011    44.136464   -904.69365    1580.8081    3564.8479    2.1875005    15.812585   0.10602785 
  191600    -946.2692    46.662877   -899.60632     1671.295    6370.8544     2.189986    16.002986   0.11514575 
  191700   -945.84483    43.679769   -902.16506    1564.4509   -3881.3342    2.1670416    15.235214   0.11391838 
  191800   -953.17405    45.317914   -907.85613    1623.1233   -5859.1282    2.1747812    15.998281   0.12128301 
  191900   -949.51846    48.197605   -901.32085    1726.2634     4006.825    2.1879106    16.744356   0.11286104 
  192000   -947.83956    45.775155   -902.06441       1639.5    2707.7052    2.1844419    15.121957   0.11831771 
  192100   -951.22639    40.862427   -910.36396     1463.544   -2383.9552    2.1834444    17.340866   0.12387529 
  192200   -947.11892    44.611912   -902.50701    1597.8369   -1936.6678    2.1700347     15.72218    0.1169423 
  192300   -946.55895    45.499269   -901.05968    1629.6188    5509.1321    2.1866392    14.076572   0.12203921 
  192400   -949.77324    41.750228   -908.02301    1495.3418    3557.1529    2.1920291    17.625673   0.12276428 
  192500   -946.90114    44.865035   -902.03611    1606.9028   -312.13779     2.173313    17.572292   0.11682254 
  192600   -945.10344    44.709334   -900.39411    1601.3262    1028.1909    2.1744078    17.049444   0.12106077 
  192700    -950.7203    45.183851   -905.53644    1618.3217   -1124.6353    2.1836405    15.343917   0.11860339 
  192800   -948.23321    44.027969   -904.20524    1576.9222    1235.0244    2.1815301    14.554311   0.10107391 
  192900   -946.60763    48.923678   -897.68395    1752.2687   -3266.2882    2.1662072    16.411538   0.14299394 
  193000   -949.68226    45.248008   -904.43425    1620.6195   -2832.4303     2.177777    16.707422   0.14641113 
  193100   -947.88852    43.807569   -904.08095    1569.0282    515.83507    2.1831308    15.601798   0.13681526 
  193200   -944.62188    49.007501   -895.61438     1755.271   -2553.4484    2.1626533    15.989594   0.14282925 
  193300    -948.5809    44.278059   -904.30285    1585.8795    1153.5635    2.1814619    15.252253   0.12440507 
  193400    -949.5866    45.551949   -904.03465    1631.5056    1141.1213    2.1846651    14.246318   0.12464748 
  193500   -945.51618    48.222728   -897.29345    1727.1632   -1370.4862    2.1679811    18.582859   0.13914179 
  193600   -949.03574    45.714791   -903.32095     1637.338   -3906.0366    2.1729715    16.777667   0.12681328 
  193700   -954.69182    49.232191   -905.45963    1763.3185   -5846.5618    2.1799271    15.449253   0.12281734 
  193800   -943.99536    43.989162    -900.0062    1575.5322    6535.1913    2.1873761    14.893919   0.12108249 
  193900   -950.46647    47.578351   -902.88812     1704.084   -2418.5464    2.1760968    14.876491   0.12597405 
  194000   -950.83589    42.530745   -908.30515    1523.2971   -5901.0786    2.1728004    17.761032   0.12935585 
  194100   -949.35428    47.357561   -901.99672    1696.1761   -1043.9295    2.1804518     16.68894   0.14136633 
  194200   -950.60631    49.235112    -901.3712    1763.4232    4450.6226    2.1923058    14.626551   0.13711559 
  194300   -952.21079    42.374253   -909.83654    1517.6921   -1504.1862    2.1867626    15.966917   0.12263392 
  194400   -945.12409    43.245697    -901.8784     1548.904   -9719.3596    2.1502448    12.784945   0.14445893 
  194500   -943.36757    43.173308   -900.19426    1546.3113    4055.8652    2.1844819    12.682767   0.12194857 
  194600   -947.56926    43.544635   -904.02462    1559.6109    9974.1237    2.2049518    11.135403   0.12630038 
  194700   -949.17819    39.799711   -909.37848    1425.4813   -1826.2629    2.1789618    14.479958   0.11576308 
  194800   -943.84678    44.561351   -899.28543     1596.026   -10185.547     2.142551    10.077196   0.13051837 
  194900   -947.85024    46.669541    -901.1807    1671.5337    5971.3868    2.1936539    15.352959   0.12221143 
  195000   -949.95511    45.411453   -904.54365    1626.4736     7159.406    2.2033913    17.089217    0.1334299 
  195100   -942.91732    43.643724   -899.27359    1563.1599   -3817.8921    2.1634113    15.282889   0.13764408 
  195200   -944.22004    46.487186   -897.73285    1665.0024   -4594.6006    2.1578646    16.563534   0.14241847 
  195300   -949.37208    45.907639   -903.46444    1644.2451    3443.6157    2.1909637     15.26407   0.12697773 
  195400   -948.82728    44.781463   -904.04581    1603.9096    4071.3722    2.1904567    14.761886   0.12343798 
  195500   -941.07908     46.28705   -894.79203    1657.8343   -1475.0034     2.158311    15.255826   0.12167441 
  195600    -948.7355    45.717124   -903.01837    1637.4216      264.898    2.1806627    15.652351   0.10877054 
  195700   -952.44601    48.403757   -904.04225    1733.6471   -2023.3613    2.1813649    15.981575   0.11156107 
  195800   -947.88889    49.195059   -898.69383    1761.9886   -944.93173    2.1741973    13.048684   0.12314799 
  195900   -946.41201    48.381375   -898.03063    1732.8454   -4035.7522    2.1677142    15.518228   0.13853717 
  196000   -948.89265    43.495436   -905.39722    1557.8488    1572.2525    2.1883346    13.269726    0.1462237 
  196100   -947.39924    45.621243     -901.778    1633.9875    1480.9568    2.1850237    13.892803   0.11992447 
  196200    -947.8038    48.161533   -899.64226    1724.9715   -4048.8622    2.1680059    16.301813   0.12867391 
  196300   -949.72284    40.395837     -909.327    1446.8324   -125.66602    2.1871993    15.569372   0.11549398 
  196400   -946.89439    42.513671   -904.38072    1522.6855    2728.9524    2.1824756     17.56029   0.11401928 
  196500   -947.73744    47.141326   -900.59611    1688.4314   -410.48073    2.1773858    16.149622   0.11009741 
  196600   -948.99784    42.508141    -906.4897    1522.4874   -5143.8611    2.1721877    14.852403   0.12933964 
  196700   -949.69823    42.365659   -907.33257    1517.3843    534.28891     2.182076    14.764904   0.11325382 
  196800   -950.95269    50.529902   -900.42279    1809.7979    2501.0518    2.1903802    17.600369   0.11804663 
  196900   -946.18683    43.192402   -902.99443    1546.9952   -2045.5955    2.1692995    14.705888   0.12694207 
  197000   -947.03173    40.395405   -906.63632    1446.8169   -7391.6024    2.1621848    17.908561   0.12117629 
  197100   -953.21255    41.584271   -911.62828    1489.3978    5114.8675    2.2067227     15.01132   0.12073393 
  197200     -948.168    44.902418   -903.26558    1608.2418    6996.4199    2.1945585    16.004171   0.12130203 
  197300   -945.13774    42.420051   -902.71769    1519.3324   -6294.8974    2.1596987    17.049446   0.12438531 
  197400   -945.32574     43.67283   -901.65291    1564.2024   -4167.9886    2.1618039    15.079418   0.12338589 
  197500   -955.41439    43.771082   -911.64331    1567.7214    6919.2884     2.214226    15.859978    0.1259887 
  197600   -948.39709    42.634896   -905.76219    1527.0273    282.61429    2.1856089    14.814766   0.12986026 
  197700   -946.29678    43.733282    -902.5635    1566.3676   -5723.4728    2.1576444    18.557886   0.13212173 
  197800   -945.86172    44.141296   -901.72043    1580.9811   -982.40686    2.1743535    16.240518   0.11800909 
  197900   -952.18363    41.612806   -910.57083    1490.4198    10290.768    2.2159997     15.29386     0.110245 
  198000   -946.49216    43.062613   -903.42955    1542.3466   -2091.4744    2.1719849    15.720321    0.1215552 
  198100   -944.34858    42.110705   -902.23788    1508.2527   -7471.9179    2.1580066    17.196231   0.13749407 
  198200   -942.81325    38.659187   -904.15407    1384.6319    6510.3684    2.1883445    15.207872   0.13481321 
  198300   -953.16787    42.616151   -910.55172     1526.356    10124.026    2.2184146     15.83195   0.12705351 
  198400   -944.88112     44.23615   -900.64497    1584.3785   -5972.2069    2.1555288    17.687725   0.12630527 
  198500   -946.69198     44.11509   -902.57689    1580.0426   -11152.197    2.1505925    18.107621   0.14147776 
  198600   -950.73273    47.631327   -903.10141    1705.9814    10870.337    2.2144825    14.255961   0.12606786 
  198700   -950.68146     41.15837   -909.52309    1474.1436    16377.805    2.2274292    14.214273   0.13504334 
  198800   -943.09585    41.007992   -902.08786    1468.7575   -13035.953    2.1354609    17.304975   0.12468546 
  198900   -947.66902    45.997682   -901.67134    1647.4702    -6323.586    2.1598517    14.760534   0.11398065 
  199000   -945.87016    43.468089   -902.40207    1556.8693     9512.365    2.2009309    16.723284   0.12201121 
  199100   -949.68053    44.835966   -904.84456    1605.8617    3203.1349    2.1903106    15.132117   0.11939696 
  199200   -945.27665     49.57599   -895.70066    1775.6322   -6470.7949    2.1527824    15.355016   0.13496215 
  199300   -944.62732     45.68411   -898.94321    1636.2392     215.1904    2.1742524    17.708521   0.14180988 
  199400   -945.60273    42.323239   -903.27949    1515.8649     6608.305    2.1933427    15.072666   0.14091315 
  199500   -944.59029    40.411107   -904.17919    1447.3793    581.88212    2.1791022     15.51065   0.13730172 
  199600   -942.74774    47.926872   -894.82087    1716.5667   -6615.6839    2.1523942    18.957767   0.14117285 
  199700    -947.5136    44.765843   -902.74775    1603.3501    6611.1277     2.194917    15.816111   0.11696383 
  199800   -949.12194    45.185618   -903.93632     1618.385    3193.3748    2.1902394    16.584246   0.11713293 
  199900   -946.54858    46.189776   -900.35881    1654.3503   -5621.6554    2.1634875    15.185152   0.10937254 
  200000   -943.21205    48.933102   -894.27894    1752.6063   -5155.9869    2.1541006    17.285329   0.12824301 
  200100   -949.62647    45.165049   -904.46142    1617.6483    12276.819    2.2119889     13.58312   0.12338782 
  200200   -946.77042    43.971955   -902.79846    1574.9159    5614.5889    2.1903555    15.073215   0.13702869 
  200300   -946.18101    44.402156   -901.77885    1590.3242   -14888.918    2.1386842    14.984654   0.13469933 
  200400   -951.95319    40.848912   -911.10427    1463.0599   -4048.5348    2.1809405    16.604337   0.12372274 
  200500   -948.59122    41.887128    -906.7041     1500.245    13607.415    2.2157665    17.255965    0.1176288 
  200600   -948.71895      46.7391   -901.97985    1674.0251    1413.4421    2.1848007    18.112847   0.12273028 
  200700   -947.25115     44.31142   -902.93973    1587.0744   -8198.7823    2.1588737    14.868939   0.12606326 
  200800   -952.37934    41.299322   -911.08001    1479.1919     -923.544    2.1900324    15.654465   0.11306126 
  200900   -948.78612     45.63773   -903.14839     1634.578    3298.8615    2.1863552    16.054083   0.11741116 
  201000   -945.82897    44.256587   -901.57238    1585.1104    3611.9711    2.1814882    14.201408   0.11595741 
  201100   -947.71623    42.131586   -905.58465    1509.0006   -1364.0885    2.1773307    16.370872   0.12256096 
  201200   -953.17773    42.048478   -911.12925     1506.024   -1635.6124    2.1883246     15.33903   0.12936271 
  201300   -947.34354    45.880959   -901.46258    1643.2896   -773.27586    2.1751533     17.68633   0.12936902 
  201400   -948.96477     46.65098   -902.31379    1670.8689    1528.6596    2.1831911    15.452971   0.11996692 
  201500    -948.3161    43.117013   -905.19909     1544.295    2409.9554    2.1838256    16.014049   0.12291827 
  201600   -953.26601    41.519772   -911.74624    1487.0877   -3480.0044    2.1833603    14.259099   0.10249263 
  201700   -949.97547     40.67365   -909.30182    1456.7826     543.4718    2.1873863    17.436647   0.12594146 
  201800   -947.64486    43.612936   -904.03192    1562.0572    8124.6003    2.2007192    13.942688   0.11607611 
  201900   -947.22347    44.680161   -902.54331    1600.2813   -4727.5217    2.1713754     17.74412   0.12718853 
  202000   -946.23381    44.270654   -901.96316    1585.6143   -11897.368    2.1447448    17.507271   0.13750139 
  202100   -955.15764    43.754738   -911.40291     1567.136    7116.7479    2.2120291     14.66165   0.10819767 
  202200   -949.83272    45.930737   -903.90198    1645.0724    8979.1825    2.2077462    15.658502   0.13185975 
  202300   -950.06619    47.722092    -902.3441    1709.2323   -10839.738    2.1548432    14.822575   0.12314986 
  202400   -947.16021    44.212246   -902.94797    1583.5223   -8389.7442    2.1555899    17.129459   0.14112897 
  202500    -949.5111    38.910665   -910.60043    1393.6389    12813.809    2.2169381    16.073194   0.12609916 
  202600   -945.86592    44.087887   -901.77803    1579.0682    6149.5191    2.1873119    16.521467   0.12448985 
  202700   -944.60874    42.447152   -902.16158    1520.3031   -4357.9163    2.1626169    17.236713   0.12526044 
  202800    -949.8267    44.988708   -904.83799    1611.3324   -3556.3123    2.1738189    17.983398   0.11366116 
  202900   -952.05682    41.307694   -910.74912    1479.4918    4397.0527    2.2032358     13.61276    0.1210719 
  203000   -944.83163    43.836938   -900.99469    1570.0801   -221.25805    2.1727149    17.027639   0.13170783 
  203100   -949.20754    47.165897   -902.04164    1689.3114   -2508.4304    2.1754607    17.895259   0.12654438 
  203200   -947.59728    43.661574   -903.93571    1563.7992    1091.4734    2.1839428    15.315567    0.1257236 
Loop time of 142.814 on 1 procs for 200000 steps with 217 atoms

Performance: 362.989 ns/day, 0.066 hours/ns, 1400.422 timesteps/s
100.0% CPU use with 1 MPI tasks x no OpenMP threads

MPI task timing breakdown:
Section |  min time  |  avg time  |  max time  |%varavg| %total
---------------------------------------------------------------
Pair    | 138.24     | 138.24     | 138.24     |   0.0 | 96.80
Neigh   | 1.3832     | 1.3832     | 1.3832     |   0.0 |  0.97
Comm    | 0.8909     | 0.8909     | 0.8909     |   0.0 |  0.62
Output  | 0.0684     | 0.0684     | 0.0684     |   0.0 |  0.05
Modify  | 1.9238     | 1.9238     | 1.9238     |   0.0 |  1.35
Other   |            | 0.3056     |            |       |  0.21

Nlocal:    217 ave 217 max 217 min
Histogram: 1 0 0 0 0 0 0 0 0 0
Nghost:    957 ave 957 max 957 min
Histogram: 1 0 0 0 0 0 0 0 0 0
Neighs:    4189 ave 4189 max 4189 min
Histogram: 1 0 0 0 0 0 0 0 0 0
FullNghs:  8378 ave 8378 max 8378 min
Histogram: 1 0 0 0 0 0 0 0 0 0

Total # of neighbors = 8378
Ave neighs/atom = 38.6083
Neighbor list builds = 2333
Dangerous builds = 19
Total wall time: 0:02:25
