LAMMPS (3 Mar 2020)
Reading data file ...
  orthogonal box = (0 0 0) to (17.469 17.469 17.469)
  1 by 1 by 1 MPI processor grid
  reading atoms ...
  217 atoms
  read_data CPU = 0.00119052 secs
Reading potential file library.meam with DATE: 2012-06-29
Reading potential file LiSi.meam with DATE: 2020-11-07
1 atoms in group Li
216 atoms in group Si
Neighbor list info ...
  update every 1 steps, delay 10 steps, check yes
  max neighbors/atom: 2000, page size: 100000
  master list distance cutoff = 6
  ghost atom cutoff = 6
  binsize = 3, bins = 6 6 6
  2 neighbor lists, perpetual/occasional/extra = 2 0 0
  (1) pair meam/c, perpetual
      attributes: full, newton on
      pair build: full/bin/atomonly
      stencil: full/bin/3d
      bin: standard
  (2) pair meam/c, perpetual, half/full from (1)
      attributes: half, newton on
      pair build: halffull/newton
      stencil: none
      bin: none
Setting up Verlet run ...
  Unit style    : metal
  Current step  : 0
  Time step     : 0.003
Per MPI rank memory allocation (min/avg/max) = 8.895 | 8.895 | 8.895 Mbytes
Step Temp E_pair E_mol TotEng Press Volume 
       0         1425   -951.04357            0   -911.25729   -116259.55    5330.9442 
    3200    1463.4383   -954.48976            0   -913.63028    5376.1761    4577.9015 
Loop time of 2.33 on 1 procs for 3200 steps with 217 atoms

Performance: 355.982 ns/day, 0.067 hours/ns, 1373.389 timesteps/s
100.0% CPU use with 1 MPI tasks x no OpenMP threads

MPI task timing breakdown:
Section |  min time  |  avg time  |  max time  |%varavg| %total
---------------------------------------------------------------
Pair    | 2.2725     | 2.2725     | 2.2725     |   0.0 | 97.53
Neigh   | 0.0076915  | 0.0076915  | 0.0076915  |   0.0 |  0.33
Comm    | 0.014163   | 0.014163   | 0.014163   |   0.0 |  0.61
Output  | 2.5513e-05 | 2.5513e-05 | 2.5513e-05 |   0.0 |  0.00
Modify  | 0.030553   | 0.030553   | 0.030553   |   0.0 |  1.31
Other   |            | 0.005095   |            |       |  0.22

Nlocal:    217 ave 217 max 217 min
Histogram: 1 0 0 0 0 0 0 0 0 0
Nghost:    957 ave 957 max 957 min
Histogram: 1 0 0 0 0 0 0 0 0 0
Neighs:    4211 ave 4211 max 4211 min
Histogram: 1 0 0 0 0 0 0 0 0 0
FullNghs:  8422 ave 8422 max 8422 min
Histogram: 1 0 0 0 0 0 0 0 0 0

Total # of neighbors = 8422
Ave neighs/atom = 38.8111
Neighbor list builds = 13
Dangerous builds = 0
Setting up Verlet run ...
  Unit style    : metal
  Current step  : 3200
  Time step     : 0.003
Per MPI rank memory allocation (min/avg/max) = 9.665 | 9.665 | 9.665 Mbytes
Step PotEng KinEng TotEng Temp Press Density c_msdli[4] c_msdsi[4] 
    3200   -954.48976    40.859479   -913.63028    1463.4383    5376.1761    2.2030417            0 6.2763917e-32 
    3300   -958.94428    37.032795   -921.91149    1326.3804   -5187.0914    2.1928878  0.074194112  0.080558895 
    3400   -954.01418     37.93731   -916.07687    1358.7769   -9169.9691    2.1695673    0.1162376  0.081618239 
    3500   -955.33839     42.26723   -913.07116    1513.8589   -1701.0012    2.1897581   0.22298088   0.07710667 
    3600   -952.21059    39.026756   -913.18383    1397.7969    9831.4911    2.2145197   0.23821597    0.1226834 
    3700   -956.57554    35.211204   -921.36434    1261.1376    7206.7548    2.2182462  0.040403545  0.097616122 
    3800   -952.87597    38.186679   -914.68929    1367.7083   -9298.4487     2.172014  0.030065724   0.11975378 
    3900   -951.67186    38.328375   -913.34348    1372.7834   -7577.3781    2.1702941  0.076104667   0.11244825 
    4000   -955.42901    41.252099   -914.17691    1477.5006     5244.925    2.2051022  0.086857324  0.094798127 
    4100   -960.43631    39.171728   -921.26458    1402.9893    9968.6314    2.2343966  0.067357788  0.084502006 
    4200   -950.73792    36.704887   -914.03303     1314.636     1717.059    2.1916794   0.21377124  0.079232318 
    4300    -950.1331    36.738985   -913.39411    1315.8572   -6489.9427    2.1711705  0.005112463  0.095930847 
    4400   -955.30446    40.938194   -914.36626    1466.2577   -5317.6798     2.184538   0.37668832  0.075263416 
    4500   -956.87506    36.597473   -920.27759    1310.7888     8379.291    2.2219579  0.045586582  0.086059949 
    4600   -957.75135    40.195679   -917.55567    1439.6634    6320.4585    2.2187412   0.63228995  0.094218898 
    4700    -954.8018    40.972937   -913.82886     1467.502   -4541.3478    2.1862998    0.4547499   0.10753694 
    4800   -953.54465    39.534409   -914.01024    1415.9791   -9303.1453    2.1700941  0.026375769   0.12261504 
    4900   -951.39971    37.013939   -914.38577     1325.705   -999.99174    2.1885622   0.19047973   0.11148019 
    5000   -956.58726    33.388522   -923.19874    1195.8558    12795.474    2.2345242  0.010495024   0.10611294 
    5100   -957.23361     39.69308   -917.54053    1421.6622    2005.6755    2.2082166     0.158027   0.10104332 
    5200   -954.82325    40.452755   -914.37049     1448.871   -7210.0704    2.1774228  0.030449731   0.10038256 
    5300   -954.63193    41.965644   -912.66629    1503.0572   -6534.2233    2.1776877   0.10443806  0.093244593 
    5400   -958.21311    38.674692   -919.53842    1385.1872     2566.102    2.2129599  0.074932183  0.070916962 
    5500   -952.75185    35.363479   -917.38837    1266.5916    9224.0914    2.2197552   0.22299373  0.096964763 
    5600   -954.83847    41.993643   -912.84483      1504.06   -1386.3894    2.1946372    0.2390828  0.086241075 
    5700   -954.66257    40.598394   -914.06418    1454.0873   -8965.5609    2.1752094   0.23933059  0.086019593 
    5800   -955.89334    34.757139   -921.13621    1244.8747   -1515.8413    2.1971485   0.23369119  0.095802126 
    5900   -953.59216    39.794397   -913.79776     1425.291    4385.2316    2.2038032   0.33608884   0.10174804 
    6000   -953.98666    41.324433   -912.66223    1480.0913    6579.3582    2.2144346  0.033945987   0.12313647 
    6100    -955.1137    38.375203    -916.7385    1374.4606   -300.22882    2.1995322  0.075445462   0.12108887 
    6200   -957.89253    36.912676   -920.97986    1322.0782   -8081.7623    2.1860646   0.15192201   0.11149633 
    6300   -950.10735    37.817165   -912.29019    1354.4737   -6158.0408    2.1736592  0.057737703   0.11105161 
    6400   -953.70767     40.37043   -913.33724    1445.9224    3974.3775    2.2084727   0.24916799  0.095443074 
    6500   -953.75652    39.175131   -914.58139    1403.1111    11175.105    2.2241286   0.32144081  0.077219681 
    6600   -947.16847    39.112151   -908.05632    1400.8554    2305.1622    2.1920559   0.25083851   0.10534798 
    6700   -952.57659    43.004898    -909.5717    1540.2795   -8909.8935    2.1710698  0.050973955   0.10107032 
    6800   -958.00478    43.366784     -914.638    1553.2409   -8373.8442    2.1823478   0.11614316  0.082901702 
    6900   -953.71048    39.838995   -913.87148    1426.8883    5930.1233    2.2089186   0.20445221   0.10611973 
    7000   -951.32767    45.752898   -905.57477    1638.7029     6663.653    2.2029632  0.067069425   0.10839607 
    7100   -953.82464    40.867231   -912.95741     1463.716    753.94667    2.1996478 0.0087602799   0.12059038 
    7200   -952.38596    37.276337   -915.10962    1335.1032    -5503.589    2.1788378   0.14047651   0.13441895 
    7300   -952.11305    41.295121   -910.81793    1479.0415   -5342.4014    2.1806455   0.19761391   0.12972187 
    7400   -950.40631    43.853081   -906.55323    1570.6583    4824.2578    2.1999242   0.11620769   0.12522024 
    7500   -955.03046     40.26893   -914.76153     1442.287     9391.736    2.2259602   0.22366346  0.096757464 
    7600   -953.65323     40.04538   -913.60785    1434.2803    716.97788     2.198376   0.14429628  0.096012784 
    7700   -951.86258    40.324465   -911.53812    1444.2761   -10920.104    2.1671233    0.3000222  0.095293605 
    7800   -954.32031     34.33276   -919.98755    1229.6749   -5007.8327    2.1915793    0.1446195  0.090861792 
    7900   -954.04256    36.952816   -917.08974    1323.5159    3872.7542     2.210701  0.029462839   0.09929116 
    8000   -952.53271    39.649207    -912.8835    1420.0908    5518.7547     2.206937   0.12915514  0.096105036 
    8100   -954.46385    41.467696   -912.99616    1485.2225   -919.85668    2.1957444  0.059376301    0.1103722 
    8200   -957.14472    36.183725   -920.96099    1295.9698   -241.30902    2.2050801   0.23348048    0.1140114 
    8300   -956.29626      41.7932   -914.50306    1496.8809   -4127.9968     2.191952   0.16277789   0.11786758 
    8400   -953.07507    40.617336   -912.45773    1454.7657   -166.76998    2.1966903   0.21187247    0.1194332 
    8500   -956.79996    39.550089   -917.24987    1416.5408    182.39565    2.2041332   0.33540464   0.10590539 
    8600   -955.95695    37.294897   -918.66205     1335.768    639.54821    2.2047533  0.062295783  0.096798888 
    8700   -952.38361    40.195259   -912.18835    1439.6484   -963.40832    2.1898617   0.14114072  0.090859424 
    8800   -953.16874    39.017849   -914.15089    1397.4778   -2880.6151    2.1904657      0.21717  0.091825609 
    8900   -957.95684    38.319123   -919.63771     1372.452   -879.29633     2.204827   0.14768586  0.078571601 
    9000   -954.61472    39.893927   -914.72079    1428.8558    3251.3877    2.2084088  0.050119098  0.097260175 
    9100   -952.63732    40.273459   -912.36386    1442.4492    4446.2682    2.2026295  0.085206852  0.095773114 
    9200   -953.44075    38.539974   -914.90077    1380.3621   -5674.3347    2.1801199   0.07582084   0.10690124 
    9300   -955.35428     39.56791   -915.78637    1417.1791   -7395.7684    2.1786156   0.15106947   0.10427597 
    9400   -948.18695    40.909335   -907.27762     1465.224    2338.0491    2.1880953   0.31223457   0.12065515 
    9500   -953.25978    41.700366   -911.55941    1493.5559    12574.578    2.2260982   0.16894495   0.11917937 
    9600   -953.04022    38.325913    -914.7143    1372.6952    4083.1127    2.2046516   0.28477779   0.10920272 
    9700   -954.57435    41.206972   -913.36738    1475.8843   -13088.347    2.1640671    0.1633439   0.10952951 
    9800   -950.36103    43.915668   -906.44536       1572.9    -11629.98    2.1572266   0.14778665   0.10182207 
    9900   -954.38712    39.807209   -914.57991    1425.7499    6638.8314    2.2159295   0.10742636  0.082584853 
   10000   -952.75907    38.594818   -914.16425    1382.3264     9672.066    2.2183592  0.035208115  0.091331805 
   10100   -952.59138    43.463156   -909.12823    1556.6926   -2943.1572    2.1841058  0.044590034  0.086549246 
   10200   -952.28693    40.724085   -911.56284     1458.589   -6813.1895    2.1742042   0.11336893  0.091202122 
   10300    -953.5015    37.998221   -915.50328    1360.9585   -428.00436    2.1918727   0.19962519  0.098772239 
   10400   -953.72317     41.59318   -912.12999    1489.7169     5772.449    2.2067268   0.13383451   0.10623801 
   10500   -950.86927    41.550177   -909.31909    1488.1767    4044.7195    2.1989015   0.22284921   0.12632516 
   10600   -955.52192    37.501138   -918.02078    1343.1548   -282.36243    2.1997816   0.20569385   0.11949533 
   10700   -953.80753    38.670812   -915.13672    1385.0482   -8790.1566    2.1773403   0.31838664   0.12062062 
   10800   -951.66433    39.803384   -911.86095    1425.6129   -2938.5633    2.1830868   0.10574457   0.10372616 
   10900   -956.72885    39.140765   -917.58809    1401.8803    4859.5497    2.2148081  0.012673581  0.092710684 
   11000   -956.80324    39.145334   -917.65791    1402.0439    4731.1616    2.2157855   0.15183231  0.084624365 
   11100   -951.89091    39.381725   -912.50918    1410.5106   -1949.0885    2.1879322   0.33791107  0.088369705 
   11200   -952.03221    37.825657   -914.20655    1354.7779   -9035.5226    2.1713861   0.12613994  0.085362758 
   11300   -957.42535    36.845913   -920.57944     1319.687   -2622.3704     2.199195  0.099615189  0.082613939 
   11400   -956.26051    43.497738   -912.76277    1557.9312    8878.3717    2.2214319   0.19705617  0.092666424 
   11500    -955.4849    43.311165   -912.17373    1551.2489     11140.04    2.2236087  0.052308186   0.10331529 
   11600   -953.19904    36.301006   -916.89803    1300.1704   -8126.3275     2.175761 0.0036532624   0.11261866 
   11700   -952.83962    40.112021    -912.7276    1436.6671   -17659.192     2.148854   0.10924079   0.13270366 
   11800    -953.8198    43.662269   -910.15753    1563.8241   -1826.3519    2.1912497   0.12034707   0.12177544 
   11900   -952.39703    38.973697   -913.42334    1395.8965    11016.434    2.2210326  0.073728664   0.11260722 
   12000   -956.19431    40.485683   -915.70862    1450.0504    3316.7104    2.2078198   0.12943476  0.099165244 
   12100   -950.21555    43.245104   -906.97045    1548.8828   -5385.1355    2.1697637  0.025617608  0.098205091 
   12200   -951.55724    38.933473   -912.62377    1394.4558   -3677.3939    2.1839076    0.1964059   0.09067493 
   12300   -953.17906    38.213785   -914.96527    1368.6792    2776.3721    2.2011307  0.043747341  0.091528077 
   12400    -954.9147    43.308761   -911.60594    1551.1628    2650.3448    2.2019645  0.018029721  0.089144875 
   12500   -953.39414    46.097778   -907.29636    1651.0552   -3117.2116    2.1819407   0.15257924  0.098617902 
   12600    -953.6921    38.327648   -915.36446    1372.7573   -3541.0011    2.1866004    0.3979913   0.11084339 
   12700   -956.37487    42.587916   -913.78695    1525.3447   -1829.3568    2.1944841    0.1554717   0.10590641 
   12800   -949.19983    39.709819   -909.49001    1422.2617    5275.2983    2.2009402  0.061805439   0.12843523 
   12900   -949.58852    42.311225    -907.2773    1515.4347    1815.3088    2.1915808   0.04642107   0.13189991 
   13000   -956.70674    41.367306   -915.33943    1481.6269   -4252.6371    2.1882204   0.07005473   0.10036454 
   13100   -955.92405    41.559808   -914.36425    1488.5216   -5765.9701    2.1869862   0.14803747  0.099152533 
   13200   -953.50342    41.225306   -912.27811    1476.5409    2282.1578     2.198249  0.096808713  0.081727731 
   13300   -953.37995     38.89415    -914.4858    1393.0474     5712.777    2.2090001   0.11177832  0.084509972 
   13400    -954.8693    35.579045   -919.29026    1274.3124    2628.9822    2.2026822  0.068755769  0.086635404 
   13500   -953.41269    38.647707   -914.76499    1384.2207   -4436.7643    2.1820249   0.40889076   0.08942669 
   13600   -954.44636    42.178063    -912.2683    1510.6653   -3096.3642    2.1852077  0.041026401  0.089206513 
   13700   -957.22035    39.413343   -917.80701     1411.643    4050.7765    2.2087662  0.052788507  0.091769732 
   13800   -953.11731    35.437724   -917.67958    1269.2508    6803.8557    2.2117016   0.11995864   0.11293565 
   13900   -953.05477    40.561631   -912.49314    1452.7705   -188.52973     2.191503  0.079449464   0.11814999 
   14000   -953.59794     38.94998   -914.64796     1395.047   -4665.3995    2.1820073   0.30103906   0.12511556 
   14100   -958.29768    37.753649   -920.54403    1352.1988   -1024.1819    2.2004205  0.073600645   0.10705816 
   14200    -954.3026    41.705808   -912.59679    1493.7508    3393.3161    2.2011283   0.32751586  0.095969719 
   14300   -955.14025    42.411701   -912.72855    1519.0333    6938.4095    2.2113201   0.14408958  0.093149704 
   14400   -954.23329    37.872289     -916.361     1356.448    1144.0983    2.1975689   0.16529586  0.089648638 
   14500   -953.04975    35.734071   -917.31568    1279.8648   -6238.0485    2.1781585   0.17169598  0.074755495 
   14600   -950.24142    40.853935   -909.38749    1463.2398   -7154.2852    2.1682857  0.028715218  0.088717494 
   14700   -955.77569    42.771414   -913.00427    1531.9169     4820.932    2.2064166   0.25822882  0.094104984 
   14800   -954.56327    40.294425   -914.26885    1443.2002    11632.535    2.2253547  0.084460886   0.08985685 
   14900   -953.15918    39.598733   -913.56045     1418.283    1064.7728    2.1931275  0.059217165   0.11295273 
   15000   -945.53547    38.582196   -906.95327    1381.8743    -10905.54    2.1451202   0.10060181   0.13908075 
   15100   -951.64243    36.857689   -914.78474    1320.1087   -5681.0905     2.181704   0.10787443   0.12106444 
   15200   -956.13857    42.095551   -914.04302      1507.71    5655.0892    2.2145505  0.085996321   0.12384161 
   15300   -949.86421    40.008611    -909.8556    1432.9634    8711.6168    2.2061391  0.021949802   0.10910292 
   15400   -951.05301    43.068525   -907.98449    1542.5584    -5416.704    2.1726972  0.098442165   0.10239661 
   15500   -954.99054    39.959842    -915.0307    1431.2166    -5256.302    2.1825796   0.07348758  0.093785869 
   15600   -952.37969    38.812102   -913.56759    1390.1088    1772.2203    2.1975942   0.13629257  0.085899479 
   15700   -950.70468    40.869623   -909.83506    1463.8017    4063.7802    2.2008266  0.069577098    0.1063634 
   15800   -946.80804    41.241547   -905.56649    1477.1226   -899.19575    2.1789965  0.085880922    0.1069148 
   15900   -954.60413    40.503024   -914.10111    1450.6714   -2152.0209     2.187081  0.063516126  0.085206242 
   16000   -951.42636    37.450064   -913.97629    1341.3255    3615.8476    2.1964111   0.39037527   0.10231441 
   16100   -954.48125    41.782288   -912.69896      1496.49    1681.2824    2.1982804    0.2173045   0.10116995 
   16200   -948.96689    44.881536   -904.08536    1607.4939   -2910.4046    2.1754649   0.13259315   0.13263137 
   16300   -951.77663    39.413416   -912.36322    1411.6456    39.381362    2.1911286   0.14450402   0.11867848 
   16400   -955.99001    41.796077   -914.19393    1496.9839   -2956.7404    2.1931325  0.018839565   0.10811253 
   16500   -953.64166    39.823114   -913.81855    1426.3195   -6.5740028    2.1936478  0.099212551   0.11067702 
   16600   -946.54655    41.239911   -905.30664     1477.064    1117.3171    2.1834471  0.061685989   0.10356445 
   16700   -951.77456    40.857203   -910.91736    1463.3568    3595.4225     2.201245   0.22974254  0.098408074 
   16800   -954.95695    40.736204   -914.22074    1459.0231   -1375.6691     2.191803  0.055560131   0.10640112 
   16900   -953.31871    38.896877   -914.42184    1393.1451   -5288.0997    2.1820847   0.03546713  0.096935605 
   17000   -949.99035    43.660407   -906.32995    1563.7575   -1352.6197    2.1802948   0.10910619   0.11251065 
   17100    -951.9018    40.778665   -911.12314    1460.5439    8135.1784    2.2121631   0.15428764   0.11326565 
   17200   -953.64733    39.297531    -914.3498    1407.4951    2129.3717    2.2022709   0.12987833   0.10928774 
   17300   -951.19122    37.612048   -913.57918    1347.1272   -4184.7504    2.1826916   0.13413478   0.13460824 
   17400   -945.89279    39.975447   -905.91735    1431.7755   -3188.8273    2.1709924   0.10214816   0.12588385 
   17500      -950.19    38.259581   -911.93042    1370.3195    5842.3863    2.2056575   0.25011215   0.11892409 
   17600   -955.10209    41.261471   -913.84062    1477.8363    5079.5336    2.2083685   0.23644804   0.10171204 
   17700   -953.75846    40.017404   -913.74106    1433.2783   -1583.8363    2.1894135  0.028571096  0.098065482 
   17800   -949.94909     40.39375   -909.55534    1446.7577   -6776.2218    2.1676709   0.12289988   0.10400724 
   17900   -948.60865    42.281559   -906.32709    1514.3721   -3528.5596    2.1722404  0.083425694   0.10665509 
   18000   -956.35453    43.243796   -913.11073     1548.836    7340.3172    2.2163214   0.21053313  0.088371003 
   18100   -955.81663     42.25988   -913.55675    1513.5956    9154.1499    2.2217456   0.18483102   0.09022322 
   18200   -952.98402    37.736465   -915.24755    1351.5833   -5231.0685    2.1811724  0.081492667   0.10279357 
   18300   -959.71422     36.58511   -923.12911     1310.346   -15194.522    2.1704607  0.018563603  0.093044256 
   18400   -952.75434    35.031471   -917.72286    1254.7002    -2795.837    2.1896361  0.021843073   0.10832181 
   18500   -956.27342    42.727398   -913.54602    1530.3405    8379.2285    2.2193372   0.14086124   0.10870858 
   18600   -953.99523    41.214069   -912.78117    1476.1385    4732.0899    2.2062473  0.085210032   0.11953287 
   18700   -954.89619    42.866891   -912.02929    1535.3366    -5742.688    2.1825084  0.041564488   0.10238464 
   18800   -958.43839    37.803019   -920.63537    1353.9671   -2156.9347    2.2005436   0.07829932  0.095145563 
   18900   -952.54583    36.176985   -916.36884    1295.7284    2063.8227    2.1988977   0.12317957  0.095092209 
   19000   -952.61317    39.604105   -913.00907    1418.4754     2606.238     2.198081  0.068881208  0.092263035 
   19100   -951.38001    38.596183   -912.78382    1382.3753    257.99396    2.1944927  0.021259061   0.10512413 
   19200   -959.23509    38.420119   -920.81497    1376.0693   -23.749289    2.2058925  0.060048811  0.078892735 
   19300   -954.45901    39.763914    -914.6951    1424.1992   -4501.8122    2.1885199  0.077502227  0.098860077 
   19400   -953.21837    40.404764   -912.81361    1447.1521   -937.44815    2.1901789   0.01433659   0.10324385 
   19500   -955.03777    38.167995   -916.86977    1367.0392     3540.122    2.2097735   0.08388832   0.10271802 
   19600    -955.1042    35.191518   -919.91268    1260.4325     5688.708    2.2170838  0.025686127   0.11629294 
   19700    -952.1045    39.291884   -912.81262    1407.2928   -3045.7756    2.1870424    0.1344342   0.11920653 
   19800   -951.39074    37.426264   -913.96447     1340.473   -8036.5597    2.1730204   0.16642524   0.10838278 
   19900   -959.05118    40.746932   -918.30425    1459.4073   -3193.0738     2.197274    0.2107773  0.097640203 
   20000   -957.48856    38.671237   -918.81732    1385.0635     13165.64    2.2365417   0.19088053  0.090907892 
   20100   -950.01777    37.896824   -912.12094    1357.3268    10973.361    2.2107862   0.56471686   0.10057976 
   20200   -952.27851    38.279965   -913.99855    1371.0495   -9311.8428    2.1726337  0.008766487  0.099024799 
   20300   -954.70441    38.703799   -916.00061    1386.2297   -11502.327    2.1724432  0.060295598   0.09709673 
   20400   -957.78478    34.976906   -922.80787    1252.7459    4455.8142    2.2198219  0.063518806   0.08871676 
   20500   -952.69117    38.240096   -914.45108    1369.6216    7273.0048    2.2124421   0.14025008  0.087925295 
   20600    -952.2302    38.798718   -913.43148    1389.6294    2580.7003    2.1989707    0.1817892   0.10141635 
   20700   -952.97135    38.796839   -914.17451    1389.5621   -4298.4283    2.1847403  0.089055705  0.091825219 
   20800   -956.86468    34.898708   -921.96598    1249.9452   -2873.0321    2.1990087  0.077896258   0.10490399 
   20900   -955.08388     38.45732   -916.62656    1377.4018    782.44547      2.20072  0.099991122   0.11284552 
   21000   -954.13273    40.905683   -913.22704    1465.0932     4412.332    2.2074317   0.14599296  0.093205096 
   21100   -954.05638    40.408061   -913.64832    1447.2702    1105.5214    2.1982946  0.067569417   0.10834889 
   21200   -960.71533    39.615573   -921.09976    1418.8862    -6508.707    2.1937373   0.34879625  0.086250709 
   21300   -954.13588    37.714591   -916.42129    1350.7999    -5677.575    2.1848597  0.073919168  0.085612154 
   21400   -951.92944    38.827071   -913.10237    1390.6449    5140.6046    2.2055369   0.17327066  0.092161781 
   21500   -951.95088    38.504934   -913.44594    1379.1071    11161.414    2.2224254   0.04004436  0.098489581 
   21600   -956.90348    35.992732   -920.91075    1289.1291    704.28441    2.2085718   0.14630459   0.08879604 
   21700   -952.35779    37.492206   -914.86559    1342.8349   -16626.061    2.1509982   0.10094893  0.095427917 
   21800   -950.91618    37.649767   -913.26641    1348.4781   -6178.1386    2.1745208   0.15414394   0.11793144 
   21900   -953.46475     40.58054   -912.88421    1453.4478    14226.305    2.2283515  0.018189904  0.096331623 
   22000   -960.37795    42.100194   -918.27776    1507.8763    7795.0407    2.2280946  0.022936236  0.095809144 
   22100   -954.95893    40.136533    -914.8224    1437.5451   -3865.7413     2.188969  0.023728542    0.1133131 
   22200   -951.92907     40.05439   -911.87468     1434.603   -7646.7842    2.1749988  0.014894115   0.10034894 
   22300    -952.7792    38.598558   -914.18064    1382.4604   -177.12857    2.1900958   0.12473698  0.097211074 
   22400   -955.05951    40.436488   -914.62302    1448.2883    4951.6607    2.2060681  0.016912418  0.084645541 
   22500   -948.75816    42.288696   -906.46946    1514.6277    1696.1761    2.1876873   0.46739779   0.10597586 
   22600   -953.66143    40.635554   -913.02588    1455.4182   -1087.6778    2.1892716   0.24652052  0.095136884 
   22700   -955.06793    41.278343   -913.78959    1478.4406   -6711.2762    2.1835035    4.7514395   0.10817037 
   22800   -944.95395    38.631424   -906.32253    1383.6375   -470.94852    2.1751221    5.5976107   0.13340038 
   22900   -953.91828    42.308601   -911.60968    1515.3407    959.88146    2.1992843    3.9462225   0.10855532 
   23000    -953.0899    39.242517   -913.84738    1405.5247     1686.494    2.1967347    4.1758412   0.13223596 
   23100   -951.21374    38.683726   -912.53002    1385.5108   -1800.8306    2.1838801    4.1674921    0.1364575 
   23200   -947.90069    42.904954   -904.99574    1536.6999   -2485.6771    2.1709281    3.8259492   0.13452988 
   23300   -953.15512    41.020077   -912.13505    1469.1904     3714.886    2.1998277    4.9694556   0.12195901 
   23400   -954.40849      41.1194   -913.28909    1472.7478    3340.9161     2.201521    4.7503366   0.11870164 
   23500   -950.26929    37.418687    -912.8506    1340.2017   -1790.0687    2.1829926    4.6288869   0.11522992 
   23600   -947.72784    41.316757   -906.41108    1479.8164   -4087.0311    2.1671983    4.2889361   0.12246939 
   23700   -948.26272    40.830317   -907.43241    1462.3939    2079.2138    2.1867386    12.626307   0.11955438 
   23800    -954.3081    42.154983   -912.15312    1509.8386    4209.1476    2.2055595     10.88836  0.093431056 
   23900   -953.48738    39.944586   -913.54279    1430.6702     2799.292    2.2006388    15.006247   0.10206586 
   24000    -955.3337    36.857872   -918.47582    1320.1153    -4928.054    2.1861199    14.676501   0.10041163 
   24100   -952.36458    35.831852   -916.53273     1283.367   -4370.5928    2.1839185    13.106523   0.10730593 
   24200   -952.85955     40.93055     -911.929    1465.9838    2640.5594    2.2006905    14.286004   0.11776526 
   24300   -954.04487    40.461319   -913.58355    1449.1777    7924.3075    2.2144141    14.224008  0.099988166 
   24400   -955.60932    38.318239   -917.29108    1372.4203    996.81321    2.1996355    14.730441   0.10150634 
   24500   -955.86774    35.201298   -920.66644    1260.7828    -7175.231    2.1825631    14.222404  0.097885945 
   24600   -951.27564    39.299684   -911.97596    1407.5722   -7230.1986    2.1736138    17.094486   0.10866652 
   24700   -953.95779    41.217518   -912.74028     1476.262     10064.55    2.2201433    18.125492  0.095998632 
   24800   -951.72856    38.594381   -913.13418    1382.3107    12600.573    2.2231943    15.279529  0.098523737 
   24900   -954.34864    37.657934   -916.69071    1348.7706   -4991.5509    2.1859815    15.946794  0.093208566 
   25000   -960.13823    37.531908   -922.60632    1344.2568   -9319.2355    2.1834958    14.019855  0.089450177 
   25100   -956.76143    41.747882   -915.01355    1495.2577   -3475.8908    2.1892381     15.05629  0.096627215 
   25200   -954.24824    40.896387   -913.35186    1464.7603    4948.4292    2.2058204    13.273761   0.10636292 
   25300   -954.73828    40.830224   -913.90805    1462.3906     2358.977    2.2008001     14.25792   0.10372465 
   25400   -957.85578    35.649864   -922.20591    1276.8488    -1353.494    2.2017121    14.160731  0.093675734 
   25500   -954.81295    38.186388   -916.62656    1367.6979   -5131.8218    2.1836433    13.722633  0.096376648 
   25600   -954.95458    41.476233   -913.47834    1485.5282   -112.42353    2.1930292       15.148   0.10266751 
   25700   -956.55126    43.093722   -913.45754    1543.4608    1539.4396    2.2033065    15.563559  0.097795401 
   25800   -958.81009    37.565095   -921.24499    1345.4455    2752.4594    2.2131935    14.656626  0.090416187 
   25900   -957.80308    41.807183   -915.99589    1497.3817   -7708.9285    2.1839118    13.510616  0.088635755 
   26000   -951.55541    38.312825   -913.24258    1372.2265   -3949.7486    2.1794017    14.769906  0.093677531 
   26100   -951.31494    37.405626   -913.90931    1339.7339    4767.5398    2.2005608    13.241564  0.089623842 
   26200    -957.7893    36.689442   -921.09986    1314.0828     9771.221    2.2275829    15.186955  0.086482232 
   26300   -956.20082    42.457888   -913.74293    1520.6876   -4319.0348    2.1875539    12.835184   0.10402336 
   26400   -952.49216    39.293022   -913.19914    1407.3335   -10847.514     2.163461    16.266811   0.10826321 
   26500   -953.13947    38.348064   -914.79141    1373.4886   -4211.2803    2.1852787    16.222056   0.11222742 
   26600   -957.15692    36.776577   -920.38034    1317.2036    14786.314     2.239768    15.368942  0.089464601 
   26700   -956.23115     42.72254   -913.50861    1530.1664    9645.3766    2.2225902    15.456663  0.095096731 
   26800    -953.1495    40.092582   -913.05692    1435.9709   -6458.3096    2.1784096    14.846787  0.097881703 
   26900   -950.64396    36.023688   -914.62027    1290.2379   -10106.991    2.1650687    16.135993  0.099813863 
   27000   -951.75835    39.183289   -912.57506    1403.4033   -286.16643    2.1909986    14.919664   0.10627306 
   27100   -948.06867    41.630534   -906.43814    1491.0547     5958.231    2.1973066    14.422388   0.10349388 
   27200   -953.15598     39.85754   -913.29844    1427.5525    2090.4272    2.1985359    13.736293   0.10634203 
   27300   -954.01806    39.168362    -914.8497    1402.8687   -3146.0655    2.1867094    14.783854  0.097410024 
   27400   -949.05752    39.330495   -909.72702    1408.6757   -951.08209     2.184324    17.143729   0.10359011 
   27500   -952.50849    43.693636   -908.81486    1564.9476   -1719.0916    2.1893934    14.303793   0.11533573 
   27600   -955.29586      40.8946   -914.40126    1464.6963    302.15137    2.1978707    14.965582   0.10018696 
   27700   -955.14153     41.24189   -913.89964    1477.1349   -1864.1315    2.1938918    14.275696   0.10995572 
   27800   -948.36515    41.553232   -906.81192    1488.2861   -954.18012    2.1810492    16.773524   0.12221456 
   27900   -950.89925    38.337405   -912.56185    1373.1068   -84.532911    2.1898647    14.272234   0.10552314 
   28000   -954.33242    39.592873   -914.73955    1418.0731   -4313.8893    2.1850253    15.607241   0.10455985 
   28100    -951.2511    38.509778   -912.74132    1379.2806    1973.0087    2.1909089     15.82813   0.10314271 
   28200   -949.51107    41.412101   -908.09896    1483.2313     6576.063    2.2027086     14.11606   0.09581568 
   28300   -949.92225    43.847716   -906.07453    1570.4662    126.67235    2.1861246    17.104364   0.11253385 
   28400   -951.07673    38.058411   -913.01832    1363.1142   -6937.8345     2.172748    15.325324   0.10483902 
   28500   -952.98849    38.823674   -914.16482    1390.5232   -4674.4734    2.1837332    14.402497  0.089190971 
   28600   -953.07293    39.853578   -913.21936    1427.4106    6173.6075    2.2119794    14.716102   0.11108514 
   28700    -949.4324    45.101387   -904.33101    1615.3681    6902.6668    2.2004869    16.106434  0.096003712 
   28800   -955.44767    44.247645   -911.20002    1584.7902   -2210.6263    2.1905808    13.551028  0.099022228 
   28900   -953.28404    38.827916   -914.45612    1390.6751   -9401.2669    2.1730209    15.806067   0.12059565 
   29000   -954.46428    40.481582    -913.9827    1449.9035   -4843.3564     2.185313     15.14288  0.099906952 
   29100   -948.81004    43.156181   -905.65386    1545.6979    7905.7017    2.2022242    13.942049   0.11166553 
   29200   -954.31531    42.459113   -911.85619    1520.7315    7419.9151     2.214588    16.364529  0.096185413 
   29300   -953.28374    38.331222   -914.95252    1372.8853   -3363.1154    2.1845061     14.60946    0.1029342 
   29400   -953.51357    40.968769   -912.54481    1467.3527   -9032.1466     2.170318    16.349515  0.097108397 
   29500   -950.41341    44.821332   -905.59208    1605.3376   -1920.0885     2.181302     15.49231   0.10926138 
   29600    -954.4966     39.97819   -914.51841    1431.8738    8022.3456    2.2167655    13.504691    0.1015028 
   29700   -955.83592    41.376801   -914.45912     1481.967    418.20212    2.1983869    15.084356   0.10020654 
   29800   -951.40037    39.606062   -911.79431    1418.5455   -4264.9514    2.1793182    13.528621   0.12184271 
   29900   -947.06815    42.006201   -905.06195    1504.5098   -449.45714    2.1761119    15.771078    0.1102238 
   30000   -951.28836    39.022482   -912.26588    1397.6438    5791.9466    2.1997703    13.574282   0.10271306 
   30100     -954.477    40.689756   -913.78724    1457.3595   -1655.9757    2.1933335    16.839203   0.11617345 
   30200   -953.65189    39.688373   -913.96352    1421.4936   -3064.5569    2.1893654    15.476948   0.10929123 
   30300   -958.78781    44.475484   -914.31233    1592.9506   -4533.9524    2.1930894    14.938777   0.10346822 
   30400   -961.56226    38.546138   -923.01612    1380.5829    1062.3853    2.2135421    14.916876  0.091945472 
   30500   -955.31826    37.243493   -918.07476    1333.9268   -1535.5957    2.1963639    15.936642   0.10158115 
   30600   -955.33593    40.894898   -914.44104    1464.7069   -3791.3874    2.1872363    15.359249   0.10082804 
   30700   -952.65283    40.274342   -912.37849    1442.4809    628.52575    2.1944751    13.447287   0.11462379 
   30800   -952.24978    33.934383    -918.3154    1215.4065    5816.2242    2.2101859    17.073606   0.11706145 
   30900   -957.17785    39.231449    -917.9464    1405.1282   -1016.8931    2.2000407    14.796645   0.11092418 
   31000   -953.15764    40.044984   -913.11266    1434.2661   -3872.4734    2.1857561    16.291002   0.10576905 
   31100   -950.43086    37.115268   -913.31559    1329.3343    1483.9435    2.1916718    15.546161   0.10724209 
   31200   -956.95888    36.041187   -920.91769    1290.8646    3286.6408    2.2149686    14.121511   0.10871654 
   31300   -951.65295    37.876832   -913.77612    1356.6108    2801.3232    2.1993523    14.938871  0.099629996 
   31400   -951.54918    38.534257   -913.01492    1380.1573   -2105.8685    2.1876641    13.915349   0.11189952 
   31500   -955.03591    38.289836   -916.74607    1371.4031   -3433.0025    2.1911215    14.732963   0.11204066 
   31600   -957.23173    36.858291   -920.37344    1320.1303    1051.1337    2.2064598    16.582196  0.097576435 
   31700   -953.49348    41.297662   -912.19582    1479.1325    2498.4767     2.194975    12.679638    0.1034237 
   31800   -955.68797    42.033251   -913.65472    1505.4786   -1215.6169    2.1948686    14.337059   0.09593833 
   31900   -954.58934    37.696375   -916.89296    1350.1475   -1157.7364    2.1941923    13.386041   0.10565365 
   32000   -959.09512    37.687867   -921.40726    1349.8427   -1577.7847    2.2036218    14.975681   0.10820285 
   32100    -951.4249    38.005778   -913.41912    1361.2291    1765.6557    2.1976903    18.145694   0.12060882 
   32200    -953.5064    40.585822   -912.92058     1453.637    9116.1502    2.2150385    14.185644   0.10077982 
   32300   -954.73926    41.309835   -913.42942    1479.5685     2350.326    2.2021254    13.891882   0.09448672 
   32400   -954.22539    38.837355   -915.38803    1391.0132   -8009.2995    2.1757568    14.347473   0.11175135 
   32500   -956.57338    33.744472   -922.82891    1208.6046   -5047.7888    2.1931377    14.431366   0.10941821 
   32600   -955.29898    39.914695   -915.38429    1429.5996    3516.1205    2.2078137     15.81069   0.10404849 
   32700   -954.83171    41.898833   -912.93288    1500.6643     9152.208    2.2183987    14.539017   0.10773602 
   32800   -955.15364    40.492695   -914.66095    1450.3015   -2161.6449    2.1962278      13.7464     0.101241 
   32900   -960.30264     38.21049   -922.09215    1368.5612   -8969.5882    2.1834288    14.188768   0.10089322 
   33000   -955.68878     39.85508    -915.8337    1427.4644   -9078.7324    2.1784091    15.382955   0.12055703 
   33100   -955.28925    42.396084   -912.89317     1518.474    6206.9491    2.2144841    13.752998   0.11888757 
   33200   -955.60648    41.685363   -913.92112    1493.0185     9603.331    2.2237364     13.27678   0.11405031 
   33300   -957.00013    35.434376   -921.56575    1269.1309   -1090.1462    2.2029978    14.211086    0.1030893 
   33400   -954.66633    38.733046   -915.93329    1387.2772   -8737.4601     2.178527    14.231574   0.11004411 
   33500   -952.19683    38.787542   -913.40929    1389.2291   -461.67852    2.1928333    14.722677   0.12131372 
   33600   -954.79996    41.093137   -913.70682    1471.8072    2237.8155    2.2069217    14.678022   0.11850184 
   33700   -958.51851    37.837987   -920.68052    1355.2195    745.18467    2.2116227    14.200316    0.1033705 
   33800    -957.9773    40.495503    -917.4818    1450.4021   -4112.6863    2.1962927    12.821525  0.098862454 
   33900   -956.00193    42.252362   -913.74957    1513.3264   -3593.6278    2.1916926    14.601059   0.10087799 
   34000   -955.21646    41.884602   -913.33186    1500.1546   -10.955097     2.197407    14.353782   0.10364001 
   34100   -957.87942    38.018608   -919.86081    1361.6887    1358.0863    2.2117946     14.63777  0.098448233 
   34200   -954.80993    36.890449   -917.91948    1321.2821   -574.37506    2.2017104    14.498592   0.11558084 
   34300   -954.79092    41.262834   -913.52809    1477.8851   -3838.6535    2.1865215    14.158154   0.10859652 
   34400   -956.90971     43.48445   -913.42526    1557.4553   -4627.4032    2.1890262    15.113816     0.103819 
   34500   -958.17669    38.708898   -919.46779    1386.4124    1970.2298    2.2091772    15.617902   0.10966563 
   34600   -957.92814    39.619901   -918.30824    1419.0412    1738.8162    2.2091495    13.510813   0.10795174 
   34700   -954.03939    40.683742   -913.35565    1457.1441    605.87409    2.1975027    15.117482    0.1188431 
   34800   -950.96062    37.291311   -913.66931    1335.6395   -3512.8668    2.1835219    14.446644   0.13334232 
   34900   -955.40122    35.592778   -919.80844    1274.8042   -4677.4817    2.1924481    14.410697   0.10168333 
   35000   -955.66359    38.623475   -917.04011    1383.3528    4918.5604    2.2130142    15.721378  0.091480674 
   35100   -954.20087    41.799306   -912.40157    1497.0996    9045.2894    2.2171853    13.977774  0.090831994 
   35200   -950.52532    35.920434   -914.60489    1286.5397   -283.94178    2.1921032     15.85773   0.10532983 
   35300   -956.92318    36.516788   -920.40639    1307.8989   -11827.494    2.1765213    16.992597   0.10823294 
   35400   -955.39887     38.90036   -916.49851    1393.2698   -3899.6446    2.1908149    14.577291   0.10777305 
   35500   -956.90597     44.21465   -912.69132    1583.6084    8741.8436    2.2211198    15.150782  0.099967093 
   35600   -952.97603    39.219434   -913.75659    1404.6979     6557.148    2.2095362    13.160975   0.10339533 
   35700   -955.98818     38.32802   -917.66016    1372.7707   -8166.3553    2.1818567    14.121056   0.11200453 
   35800   -957.77588    36.499556   -921.27632    1307.2817   -4573.4482    2.1936175    14.663289   0.11002513 
   35900   -951.12043     36.67452   -914.44591    1313.5483     3628.688    2.2013061    16.775326   0.12302038 
   36000   -951.90152    38.577221    -913.3243    1381.6962    3602.1315    2.2042583    14.431762   0.11541083 
   36100   -953.30258     38.37616   -914.92642    1374.4949     216.4414    2.1983881    14.420787   0.10221618 
   36200   -957.10134    34.957471   -922.14387    1252.0498   -141.69277    2.2066265    14.139982  0.098223068 
   36300   -953.23699    38.359794    -914.8772    1373.9087   -1950.1533    2.1914892    18.084788  0.094165458 
   36400   -953.52357    40.364332   -913.15924     1445.704    1606.6047    2.1983105    15.353245   0.10743119 
   36500   -952.10797    36.988309   -915.11967    1324.7871    4099.0305    2.2066297     14.24204   0.10089622 
   36600   -956.42554     34.84894    -921.5766    1248.1626    3724.1783    2.2158448    12.334072   0.10729703 
   36700   -952.68664     38.85344    -913.8332    1391.5893   -3528.8668    2.1871787     13.78196    0.1177161 
   36800   -953.23018    39.847596   -913.38258    1427.1964   -5615.3288    2.1816543     15.56538   0.11027743 
   36900   -955.59412    39.695356   -915.89877    1421.7437    686.96309    2.2030612    13.342176   0.11981706 
   37000   -957.50534    36.772661   -920.73268    1317.0634    14244.915    2.2409786    15.448572   0.10403311 
   37100    -952.4273     39.64102   -912.78628    1419.7976    1549.1787    2.1976206    14.130331   0.11762465 
   37200   -952.08607    38.417976   -913.66809    1375.9926   -14573.138    2.1580718    15.525577   0.12116023 
   37300   -951.76617    37.699617   -914.06655    1350.2636   -6523.5598    2.1756752    12.292366   0.10561538 
   37400   -959.06834    36.612683   -922.45565    1311.3335     8949.553    2.2312796    16.346373   0.08781952 
   37500   -955.75091    40.028864   -915.72205    1433.6887    7691.6803     2.220226    13.933328  0.099070088 
   37600    -955.7784      42.1143    -913.6641    1508.3815   -3398.1494    2.1907503    13.533629   0.10189932 
   37700   -954.79984    40.972001   -913.82784    1467.4685   -9326.3083    2.1745425    13.599522   0.10631699 
   37800   -954.78391    33.279111    -921.5048    1191.9371   -120.59115    2.1997867     15.20629   0.11124009 
   37900   -956.59599    39.981762   -916.61423    1432.0017    3484.8281    2.2089934    14.662619   0.10788965 
   38000   -950.83745    37.935432   -912.90201    1358.7096    9381.8233    2.2099649     13.34365   0.11430693 
   38100   -954.69475    40.363254    -914.3315    1445.6654   -1414.4475    2.1943963    13.622205   0.11813098 
   38200   -956.39389    34.604129   -921.78976    1239.3944   -5881.7766    2.1890514    12.817694   0.11252705 
   38300   -953.51498    38.322697   -915.19228      1372.58   -5216.2463    2.1818464    13.930669   0.10893421 
   38400   -956.67658    43.697346   -912.97924    1565.0805     3359.774    2.2078597    15.437157   0.10048268 
   38500    -955.1319    40.943613   -914.18829    1466.4517    7553.0377    2.2162392    13.866502  0.094991059 
   38600   -956.02849    34.615368   -921.41312    1239.7969    -1707.453    2.1960352    14.277538  0.089922791 
   38700    -952.5813    36.328387   -916.25291    1301.1511   -9676.8118    2.1699499    14.855265   0.10239608 
   38800   -950.55238    36.853127   -913.69925    1319.9454    272.38252    2.1950114    13.126115   0.10603264 
   38900   -952.67345    39.709503   -912.96395    1422.2504    8184.6092    2.2137041    12.488449   0.10045519 
   39000    -956.5078    38.789433   -917.71836    1389.2968    538.38901    2.2033007    14.890434   0.10579742 
   39100   -954.75419    34.938409   -919.81578    1251.3671    66.149938    2.1994631    13.943232   0.10986709 
   39200   -953.57886    39.568213   -914.01065    1417.1899    -564.0965    2.1933556    12.776358   0.11433039 
   39300   -951.92887    39.113824   -912.81505    1400.9153    1358.0841    2.1971438    14.545596   0.11406825 
   39400   -956.83369    38.482314   -918.35137    1378.2969   -1137.7032    2.2006803    15.042472   0.10450015 
   39500   -957.20205    38.864341   -918.33771    1391.9798   -466.74843    2.2010381    14.486673   0.10470091 
   39600     -954.186    41.174575   -913.01143     1474.724   -218.02388    2.1950563     13.70394  0.099650497 
   39700   -954.29141    40.374377   -913.91704    1446.0638   -406.35914     2.195454    16.328544   0.10439588 
   39800   -960.03081    39.187379   -920.84343    1403.5498    -2030.926    2.2028406    12.909383  0.094069471 
   39900    -955.2101    39.615887   -915.59421    1418.8974   -1990.9174    2.1926823    12.917791  0.091778917 
   40000   -953.17707    40.025056   -913.15201    1433.5524    2279.5324     2.199533    13.740667   0.10630295 
   40100   -955.54235    41.990973   -913.55137    1503.9644    2196.7676    2.2051688    15.124852   0.10723914 
   40200   -956.49051     36.55013   -919.94038    1309.0931   -3696.4737    2.1942993    15.162983   0.10557934 
   40300   -953.35805    35.309528   -918.04852    1264.6593   -7122.4877    2.1799866    13.845862   0.10444854 
   40400   -955.00931    41.324831   -913.68448    1480.1056    1025.5977    2.1985261    14.839129  0.099674032 
   40500   -952.96676    40.297328   -912.66943    1443.3041    9824.8462    2.2199061    13.816148   0.11036959 
   40600   -956.56992     37.90577   -918.66415    1357.6472    3116.7997    2.2095561    13.833618   0.10879451 
   40700   -956.27214    37.872023   -918.40011    1356.4385   -10573.291    2.1781107    13.474637   0.10853332 
   40800   -953.14482    39.356552   -913.78827     1409.609   -6554.9682    2.1783472    13.619092   0.10387933 
   40900   -958.47955    45.209081   -913.27047    1619.2253    1411.5649    2.2102717    14.186513   0.10473333 
   41000   -958.83989    40.136559   -918.70333     1437.546     7581.309      2.22857    15.648809  0.098389847 
   41100   -956.90416    37.819987   -919.08417    1354.5748   -147.28516     2.205502    15.316421   0.10166999 
   41200   -953.65369    39.901804   -913.75189    1429.1379   -7754.3596    2.1797738    13.418584   0.11806652 
   41300   -952.36029    38.904931   -913.45535    1393.4335    -2956.076    2.1859727    15.002296   0.10552139 
   41400    -958.7314    41.280661   -917.45074    1478.5236    588.65572     2.208448    15.286124   0.10410754 
   41500   -958.21164      38.1373   -920.07434    1365.9398    4643.8462    2.2175304    14.490481  0.089544883 
   41600   -951.47479    37.932207   -913.54258    1358.5941   -16.843426    2.1942875    14.071321   0.11200102 
   41700   -954.20459     40.65644   -913.54815    1456.1662   -3740.6047    2.1868515    16.872452   0.11084924 
   41800   -955.26142    37.501176   -917.76025    1343.1561   -1247.0053    2.1964405    11.499302   0.10877391 
   41900   -956.94054    37.250926   -919.68961    1334.1931    2515.3697    2.2118667    15.284517   0.11335113 
   42000   -951.47113    38.325449   -913.14568    1372.6786    5254.5318    2.2034808    16.208226    0.1088044 
   42100   -951.98163    38.427604   -913.55403    1376.3374   -277.87491    2.1926911    15.096293   0.11426849 
   42200   -955.87155    37.200305   -918.67125      1332.38   -4787.7376    2.1903514    15.528818   0.10070874 
   42300   -957.65967    39.223576   -918.43609    1404.8463   -876.67443    2.2016821    15.773403  0.092979025 
   42400   -950.74008     37.94817   -912.79191    1359.1658    7495.9871    2.2117658    13.376079   0.10550466 
   42500   -954.80418    41.120134   -913.68404    1472.7741    3416.8469    2.2057643    17.234221   0.10342368 
   42600   -956.88969    38.241711   -918.64798    1369.6794   -7055.0141    2.1855767    14.627641  0.096514625 
   42700   -955.71638    36.270854   -919.44553    1299.0905   -9417.6087    2.1792806    13.243645   0.10123446 
   42800     -953.586    39.888431   -913.69757    1428.6589     3636.272     2.207655    14.970899   0.10388407 
   42900   -955.98571    43.289813    -912.6959    1550.4841    13780.851     2.231382    14.397846  0.099449395 
   43000   -954.56435    37.745104   -916.81924    1351.8927    1571.0992    2.2023492    14.669131   0.11042447 
   43100   -958.17768    35.455005   -922.72267    1269.8697   -14574.775     2.171618     15.98327   0.10460658 
   43200   -956.29889    41.496628   -914.80226    1486.2587   -12504.305    2.1700406    16.023489   0.11336919 
   43300   -954.62987    41.333677   -913.29619    1480.4224    6878.7829    2.2153002    16.348178   0.10862971 
   43400    -954.5757    40.547594   -914.02811    1452.2678    7937.6908    2.2186797    15.159602  0.099892908 
   43500   -952.62308    43.962266   -908.66081    1574.5689   -1332.6329    2.1897041    14.110159   0.11177797 
   43600   -953.21082    44.716866   -908.49396     1601.596    -6919.988    2.1744515     13.88634  0.097078563 
   43700   -950.20653    36.686425    -913.5201    1313.9747   -1299.5151    2.1843984    16.066497   0.10365763 
   43800   -953.36791    38.968455   -914.39946    1395.7088    4744.2626    2.2065722    14.814445  0.095555799 
   43900   -950.42325      39.7191   -910.70415    1422.5941    8778.0784    2.2111055    15.394603   0.10383403 
   44000   -952.27698    44.359135   -907.91785    1588.7833   -3340.1587    2.1859734    14.570498    0.1293461 
   44100   -954.41381    40.126442   -914.28736    1437.1836   -7278.7787     2.178194    15.312811   0.10528578 
   44200   -955.23224    41.125199   -914.10704    1472.9555    -3476.964    2.1921791    16.346921   0.11205624 
   44300   -950.77452     43.45783   -907.31669    1556.5019    7166.0214    2.2062868    13.951127   0.11931572 
   44400   -951.43372    39.690339   -911.74338     1421.564    6126.0134    2.2074981    13.825365   0.10375314 
   44500   -953.78913    38.703564   -915.08557    1386.2213   -7417.3588    2.1806558    15.382238   0.10538291 
   44600   -954.41117    41.478017   -912.93315    1485.5922   -9027.9692    2.1743787    15.463411   0.10303214 
   44700   -949.88836    43.078355   -906.81001    1542.9105    3023.7866    2.1926867     12.98261   0.10435051 
   44800   -953.77973    39.320313   -914.45942     1408.311    8590.4912    2.2178815    13.497441  0.099667354 
   44900   -955.80414      40.7779   -915.02624    1460.5165   -2880.0644    2.1931052    15.476429  0.094999881 
   45000   -952.37189    39.250045   -913.12184    1405.7943   -3688.6271    2.1836469    15.443361   0.10018795 
   45100   -949.23851    40.364149   -908.87436    1445.6974    1440.8239    2.1897928    16.366437   0.12048196 
   45200   -949.57317    44.669226   -904.90395    1599.8897   -729.22463    2.1856692    15.862907   0.12774104 
   45300   -954.34953    41.033836    -913.3157    1469.6832    1435.4872    2.2035529     15.41076   0.12280337 
   45400   -952.99159    39.136909   -913.85468    1401.7422    502.51344    2.2025069    14.909203   0.11411323 
   45500   -952.51634      38.3555   -914.16084    1373.7549   -905.77911    2.1963876    15.540895   0.10347067 
   45600   -949.61602    43.692744   -905.92328    1564.9156   -3770.5428    2.1844325    12.243639   0.12258084 
   45700   -953.39927    43.306361   -910.09291    1551.0768    787.59168    2.1989657     14.20257   0.10562251 
   45800   -956.33674     42.53712   -913.79962    1523.5254   -68.707743    2.1993889    14.908189    0.1039958 
   45900   -954.08017      39.2123   -914.86787    1404.4424   -2981.7635    2.1889857    15.448404   0.10389828 
   46000   -951.66382    44.652457   -907.01136    1599.2891   -2755.6023     2.180544    16.091981  0.097204921 
   46100   -949.09405    38.342556    -910.7515    1373.2913    7117.2958    2.2056454    16.133481   0.11672654 
   46200   -950.44683    36.253976   -914.19286    1298.4859    4372.9514     2.204866    15.521278   0.10541799 
   46300   -949.89582     35.76609   -914.12973    1281.0116   -3910.2854    2.1809366    17.193632   0.10902624 
   46400   -950.18749    44.236571   -905.95092    1584.3936   -8759.2446    2.1632304     14.94187   0.12443785 
   46500   -953.51985    40.897153    -912.6227    1464.7877    5142.3147    2.2086915    12.942482    0.1147245 
   46600   -952.92873    38.975653   -913.95308    1395.9665     9757.623    2.2199212    14.622747  0.099808742 
   46700   -954.52926    40.879479   -913.64978    1464.1547   -2467.2748     2.190816    13.156664   0.10805451 
   46800   -950.35494    43.261438    -907.0935    1549.4678   -10854.653    2.1573502    14.545447   0.11018952 
   46900   -953.34006    42.964686   -910.37538    1538.8392   -6660.4987    2.1763474    14.438506   0.10399386 
   47000   -952.96839    39.082167   -913.88622    1399.7815     5999.892    2.2126149    13.950372   0.11741341 
   47100   -954.05385    40.720714   -913.33314    1458.4683      8007.26    2.2165921     16.26159   0.10937601 
   47200   -952.78729    38.396395    -914.3909    1375.2196     -954.073    2.1902937    16.512781   0.10670808 
   47300   -956.70145    34.598784   -922.10267     1239.203   -4736.5395    2.1944085     14.77115    0.1040931 
   47400   -952.99118    37.144208   -915.84697    1330.3708   -1938.5847    2.1932865    15.083007   0.10327284 
   47500   -951.90899    38.868858   -913.04014    1392.1415    3049.5586    2.2051099    13.696942   0.11318624 
   47600   -951.68907    38.163461   -913.52561    1366.8768    5481.8174    2.2052111     14.09781   0.10223328 
   47700   -958.69001    37.357251   -921.33276    1338.0013    210.34449    2.2098579    16.063231  0.099753061 
   47800   -951.42972    36.990736   -914.43899     1324.874   -1176.2704    2.1887461    14.672849   0.10773206 
   47900   -956.77611    43.987073   -912.78903    1575.4574   -3317.6096    2.1917914    16.002281   0.10308534 
   48000     -952.703    35.557141   -917.14586    1273.5279    3352.7666    2.2025907    14.906418   0.10098392 
   48100   -956.02387    36.929445   -919.09443    1322.6788    2705.5931     2.210646    13.676804   0.10254975 
   48200   -953.40789     40.87504   -912.53285    1463.9957   -1993.8221    2.1946048    16.158456   0.11692786 
   48300   -952.04357    37.789168    -914.2544    1353.4709   -2101.5473    2.1888605    14.429954   0.10566277 
   48400   -956.39658    36.809239   -919.58734    1318.3735   -1047.4875    2.2010523    15.226231  0.092535235 
   48500    -956.1449    40.692546   -915.45235    1457.4594    2352.8104    2.2051272    15.628992  0.095539484 
   48600    -954.3403    41.824771   -912.51553    1498.0116    2875.7953    2.2046601    14.412436   0.10935154 
   48700   -952.94102    38.631981   -914.30904    1383.6575   -1364.0222    2.1918136    14.203312   0.10366692 
   48800   -954.46621    37.258118   -917.20809    1334.4507     -6349.73    2.1825283    15.536314  0.095961328 
   48900   -959.36121     35.31507   -924.04614    1264.8577   -1447.3284    2.2074125    13.614315  0.096113359 
   49000   -956.04815    40.269181   -915.77897     1442.296    2769.0267    2.2073303    16.530422    0.1053368 
   49100   -955.39491    41.437981   -913.95693    1484.1582    2299.7789    2.2032066    16.090097   0.10111032 
   49200   -953.79913    40.583419   -913.21572    1453.5509   -4380.2343    2.1843324    16.515073  0.099368617 
   49300     -946.709    39.128437   -907.58056    1401.4387   -3694.3945    2.1682204    16.586937   0.11518037 
   49400   -950.45527    43.102171    -907.3531    1543.7635    1803.3978    2.1890387    13.521671   0.11026839 
   49500   -954.21339     41.67916   -912.53423    1492.7964    6475.6103    2.2109964    14.822752  0.094212575 
   49600   -954.32713    40.269303   -914.05783    1442.3004    4312.7742    2.2035579    15.003633   0.08997611 
   49700   -955.19884    39.347828   -915.85101    1409.2965   -10291.477    2.1722114    14.064783  0.095470236 
   49800   -960.77854     36.75485   -924.02369    1316.4254   -10124.447    2.1841865    16.391194   0.08421262 
   49900   -953.95576    36.168687   -917.78707    1295.4312    3301.6118    2.2031748    15.003964  0.095673753 
   50000   -952.23224    38.517307   -913.71493    1379.5502    13243.006    2.2225257     19.24379   0.10268252 
   50100   -950.33318    37.591886   -912.74129     1346.405    5224.9732    2.1991811    14.760837   0.11164487 
   50200   -950.55511    40.381167   -910.17395     1446.307   -8019.9476    2.1629197    17.380078   0.10325992 
   50300   -947.19273    45.603092   -901.58964    1633.3374   -4450.8649    2.1628158    13.646454   0.10677995 
   50400   -947.89777    41.329795   -906.56797    1480.2834    7643.5727     2.199939    14.380307   0.10130432 
   50500   -952.55643    41.739637   -910.81679    1494.9624    1240.4565    2.1928751    15.485392   0.10338979 
   50600   -950.32246    36.628708   -913.69375    1311.9075    -1065.689    2.1829668    18.329681   0.10009015 
   50700   -955.77534     40.25281   -915.52253    1441.7097   -3580.6937    2.1877043    14.267871  0.087984637 
   50800   -956.88772     39.50738   -917.38034    1415.0111    796.72844     2.201634    14.639949  0.091180971 
   50900   -950.38169    42.192122   -908.18957    1511.1688   -363.94743    2.1841822    15.140008  0.098118623 
   51000   -952.16751    40.701969   -911.46554    1457.7969    2496.1864    2.1941217     15.36816   0.10725693 
   51100    -952.7295    38.599948   -914.12956    1382.5101    1050.7909    2.1970672    16.160691   0.10755526 
   51200   -954.18435    38.188057    -915.9963    1367.7577   -788.80848    2.1915707    14.955496   0.10651803 
   51300    -948.4115    41.397506     -907.014    1482.7085   -1121.4203    2.1820029    15.245803   0.12375712 
   51400    -952.9455    41.946532   -910.99897    1502.3727    4068.6701    2.2040645    17.033021   0.10613069 
   51500   -953.29021    38.778935   -914.51128    1388.9208    3595.4862    2.2063418    15.384245    0.1117205 
   51600   -952.58581    37.840445   -914.74537    1355.3075   -3735.3792    2.1847225    17.708247   0.10632786 
   51700   -948.61023    42.283158   -906.32707    1514.4294   -12669.843    2.1510297    15.024686   0.11550483 
   51800   -954.96592    40.571332   -914.39459     1453.118    3318.8012    2.2056037     14.59333   0.10317995 
   51900   -953.49838    39.696832   -913.80155    1421.7966    16343.929    2.2366386    14.820912   0.10023309 
   52000   -953.14583    41.334998   -911.81083    1480.4697    3652.8994     2.202323    17.716655   0.10440602 
   52100   -951.90145    44.267185   -907.63427      1585.49   -13015.671    2.1531317    15.989412  0.094438579 
   52200   -954.01087    37.273417   -916.73745    1334.9986   -3559.3893    2.1870451    16.124886    0.1038959 
   52300   -952.39177    38.599655   -913.79211    1382.4997    7869.8048    2.2131685    14.131186   0.10847845 
   52400   -950.47146     40.13483   -910.33663    1437.4841    7524.8061    2.2086079    15.860119   0.11179548 
   52500   -954.88807    39.887238   -915.00084    1428.6162   -6141.7252     2.186927    15.388569   0.11075278 
   52600    -954.5998    37.404399    -917.1954    1339.6899   -6667.4073    2.1824453    12.393671  0.093190454 
   52700   -952.30633    39.261819   -913.04451     1406.216    1344.7208    2.1979489    13.831128   0.10967163 
   52800   -951.53216    40.017755    -911.5144    1433.2909    8474.2494    2.2128276    13.740934   0.10849889 
   52900   -958.52474    38.714563   -919.81018    1386.6152    4212.4109    2.2147214    14.371554  0.089744672 
   53000   -954.42982    39.742457   -914.68737    1423.4307   -7748.4826    2.1787671    16.316773   0.10505643 
   53100   -951.16305    38.660451    -912.5026    1384.6772   -4723.1631    2.1790828    16.918919   0.10582685 
   53200   -953.16721    36.078641   -917.08856    1292.2061     4856.269    2.2072103    14.203565   0.10342251 
   53300   -958.08232    40.089395   -917.99292    1435.8567    6216.8901    2.2218718    14.125547   0.10259405 
   53400   -950.87886    39.176577   -911.70229    1403.1629    642.40989     2.194251    14.836725   0.10768802 
   53500    -953.3459    38.611608   -914.73429    1382.9278   -3880.3157    2.1819096    14.536074    0.1046012 
   53600   -953.87797    34.766736   -919.11124    1245.2184   -2021.1152     2.193906    12.391044   0.10676015 
   53700   -950.21686    39.305807   -910.91106    1407.7915    1569.1137    2.1961901    13.134976   0.11164895 
   53800   -953.44349     40.83967   -912.60382    1462.7289    3719.2311    2.2056149    14.024149    0.1071918 
   53900     -951.503    35.451418   -916.05158    1269.7412    2254.1252    2.1990504    14.302355   0.10833958 
   54000   -947.48378    37.459473   -910.02431    1341.6625    335.10415    2.1832089    14.408626   0.10430698 
   54100   -950.14442    39.930891   -910.21353    1430.1797   -1366.6649    2.1852416      14.2612   0.10431508 
   54200    -953.4008    38.187122   -915.21368    1367.7242    1119.7634    2.1992196    13.710938  0.092734261 
   54300    -952.6292    38.771624   -913.85758     1388.659    1543.4547    2.1985202    15.775083  0.096636138 
   54400   -950.60429    43.244873   -907.35942    1548.8745   -3204.1703    2.1795515    13.717475   0.11901026 
   54500   -953.70775    38.374751     -915.333    1374.4444    1049.5529    2.1970148    16.052905  0.089529405 
   54600   -955.29204    40.966033     -914.326    1467.2547    682.05725    2.2020845    12.721052   0.10380091 
   54700   -951.00894    43.189004   -907.81993    1546.8735    1386.5935    2.1925465    14.383675   0.12329348 
   54800   -957.26634    42.422304   -914.84404    1519.4131    -4789.878    2.1926444    14.243019  0.097317551 
   54900   -957.49042    42.032476   -915.45795    1505.4508    -8429.343    2.1811025    13.481041    0.1136499 
   55000   -954.08107    43.502266   -910.57881    1558.0934   -1071.5674     2.189734    14.408604   0.10440435 
   55100   -954.17768    38.687923   -915.48976    1385.6611    9860.5556    2.2209844    14.159583   0.09664191 
   55200   -957.51774    40.463432   -917.05431    1449.2534    2958.4254    2.2088701    14.444666   0.09215605 
   55300   -952.02729    39.409357   -912.61793    1411.5002   -6906.9488    2.1778444    14.897007    0.1162811 
   55400   -951.32625    38.890995   -912.43525    1392.9344   -5519.7936    2.1788421    17.529749   0.11066976 
   55500   -958.21124    38.735249   -919.47599    1387.3561      4793.12    2.2184385    13.876026  0.093363278 
   55600   -954.49652    42.384608   -912.11192    1518.0629    8762.8741    2.2180631     12.92883   0.11101412 
   55700   -954.97133     42.06935   -912.90198    1506.7715   -808.76794      2.19577    15.130344   0.11589384 
   55800    -955.6339    36.583085   -919.05082    1310.2734   -7233.8169    2.1840026    14.126544   0.11371417 
   55900   -954.98158    41.664158   -913.31742    1492.2591   -5769.0287    2.1836135    16.285115    0.1228456 
   56000   -954.23187    42.795527   -911.43634    1532.7806    6497.3158    2.2136958    14.168211   0.10711342 
   56100   -953.70755    37.726308   -915.98124    1351.2196    9153.9682    2.2205608    14.816427   0.10192165 
   56200   -953.60845    40.191485   -913.41696    1439.5132   -4352.9448    2.1856066    13.519182   0.10592856 
   56300   -950.80781    40.945208    -909.8626    1466.5089   -8665.4204    2.1658231    14.203697   0.10324899 
   56400   -953.34928     37.71621   -915.63307    1350.8579   -1211.1452    2.1913631    13.600179   0.10899755 
   56500   -953.08769    39.134322   -913.95336    1401.6495    5562.6779    2.2106128    15.278618   0.10488118 
   56600   -949.91236    42.193883   -907.71848    1511.2319    554.95997    2.1892398     13.03085   0.11110197 
   56700   -955.96501    40.301748   -915.66326    1443.4624   -1826.1113    2.1955527    14.758961   0.10238217 
   56800   -952.23756    37.774894   -914.46266    1352.9597   -1208.5286    2.1918108    13.928149   0.11389832 
   56900   -950.99256    42.631074   -908.36149    1526.8905   -1317.6317    2.1836399    12.998459   0.12702942 
   57000     -956.012    39.969981   -916.04201    1431.5798   -366.53925    2.1983075    14.507084  0.094912487 
   57100   -954.63292    39.255032   -915.37789    1405.9729    111.33068    2.1921453    15.206359   0.10623701 
   57200   -954.19446    43.263936   -910.93053    1549.5573   -3912.0937    2.1844255    15.135275   0.10749147 
   57300   -957.59139    41.502507   -916.08888    1486.4693   -2202.0191    2.1952252    15.964762  0.094663879 
   57400   -954.18611    37.074659   -917.11145    1327.8798    1297.0252    2.1978366    14.018372   0.10428319 
   57500    -951.2398    39.330043   -911.90976    1408.6595    54.126402    2.1897172    14.682084   0.10195617 
   57600   -954.55153    39.873084   -914.67844    1428.1093   -3500.3737     2.189629    14.430047   0.10156339 
   57700   -958.15273    39.032335    -919.1204    1397.9967   -2563.2852    2.1977067    13.900045  0.098855723 
   57800   -953.95142    42.028756   -911.92266    1505.3176    153.83056    2.1934637    12.661814   0.10642966 
   57900   -956.68938    42.721512   -913.96787    1530.1296    456.53766    2.2002583    12.683608   0.10657449 
   58000   -957.12742    37.879221    -919.2482    1356.6963    436.16985    2.2018864     15.63223  0.097826547 
   58100   -950.80282    39.767264   -911.03555    1424.3192   -4509.0602    2.1752539    15.255453   0.11215753 
   58200   -952.15012    38.744083   -913.40604    1387.6725    52.532145    2.1895596    15.028044   0.10345657 
   58300   -952.47488    35.643773    -916.8311    1276.6307    7911.6452    2.2133057    15.432123  0.098709837 
   58400   -951.16701    42.172892   -908.99412    1510.4801    2993.8485    2.1973666    13.183154   0.10570106 
   58500   -952.97864    41.002964   -911.97568    1468.5775   -1352.1381    2.1868528    14.901512  0.092059626 
   58600   -953.26193    36.832908   -916.42902    1319.2212   -5823.1477      2.18174    15.805545   0.11259618 
   58700   -950.45318    39.927345   -910.52583    1430.0527   -2000.7741    2.1848114    14.069973   0.10830349 
   58800   -948.96834     38.42422   -910.54412    1376.2162    6196.5814    2.2060185     13.01363   0.11424941 
   58900   -953.84178    38.064297   -915.77748    1363.3251     6309.785    2.2116371    14.747725   0.10946657 
   59000   -952.11435    39.768333   -912.34602    1424.3575   -4534.8916    2.1828944    15.181078   0.11798526 
   59100    -951.2754    41.698025   -909.57738     1493.472   -10577.347    2.1654507    17.858465   0.12478722 
   59200   -956.44427    39.001811   -917.44246    1396.9034    1732.1019    2.2061195    14.327454  0.099169189 
   59300   -951.37387    38.869067    -912.5048     1392.149    13837.528     2.225626    13.170163   0.11562921 
   59400    -954.8822    43.638958   -911.24324    1562.9892    2087.8732    2.2001835    14.645434  0.093958335 
   59500   -955.45373    36.488019   -918.96571    1306.8685   -9433.3324    2.1756787    15.442668   0.10688268 
   59600   -955.19884     40.60832   -914.59052    1454.4428   -11827.279    2.1698243    16.374982   0.11601982 
   59700   -952.78186    41.823074   -910.95879    1497.9508    3346.2835    2.2000725    14.802897  0.097388873 
   59800   -956.17069    38.670867   -917.49982    1385.0502    8541.7374    2.2221646     12.74944   0.10163657 
   59900   -956.40437    41.091718   -915.31266    1471.7563    85.566796    2.1986492      15.0658  0.095288975 
   60000   -950.56443    38.975216   -911.58921    1395.9509   -5641.1594    2.1784328    14.652867   0.12163037 
   60100   -952.83009    36.262277   -916.56781    1298.7832   -2658.6782    2.1888905    14.349903   0.10958846 
   60200   -953.54389    37.920525   -915.62337    1358.1757    3444.2158    2.2036063    16.745182  0.090488683 
   60300   -949.59823    39.984594   -909.61364    1432.1032    2332.2074    2.1949213    13.540945   0.10594994 
   60400   -957.16318    41.676164   -915.48701    1492.6891   -2669.9276    2.1940015     14.45635   0.10015625 
   60500   -953.25826    38.158788   -915.09948    1366.7094   -3254.3602    2.1868004    13.842835   0.10326908 
   60600   -955.54792    47.162093   -908.38583    1689.1752   -4787.1751    2.1819262    14.866392   0.09529915 
   60700   -956.00279    40.843398   -915.15939    1462.8624    3371.2556    2.2072402    14.693661  0.094247425 
   60800   -955.53905     40.85013   -914.68892    1463.1035    3497.5049    2.2076969    15.347191  0.095087881 
   60900   -949.74267    41.750405   -907.99226    1495.3481   -3319.4561    2.1782618    15.679343   0.12093925 
   61000   -954.77468    39.041664   -915.73302    1398.3308   -6011.4616    2.1823984    18.443796   0.10268085 
   61100   -954.41189    39.728857   -914.68303    1422.9436   -149.34817    2.1951929    15.013785   0.10187565 
   61200   -950.54724    41.475353   -909.07189    1485.4967    8262.0305    2.2112006    14.634405   0.11231346 
   61300   -956.18161    40.178192   -916.00342    1439.0371    4874.9283    2.2139784    14.384677   0.10176138 
   61400   -952.55235    36.216966   -916.33539    1297.1604   -8711.3382    2.1725172    12.993238    0.1207412 
   61500   -950.39926    38.515041   -911.88422    1379.4691   -9428.4515    2.1646843    17.720372   0.10101399 
   61600   -954.40279    39.139664   -915.26313    1401.8408    3107.2328    2.2054364    15.368346   0.09877232 
   61700   -956.73251    38.813022   -917.91948    1390.1417    11366.931    2.2317152    15.927265   0.10333044 
   61800    -953.1783    41.829308   -911.34899    1498.1741     1626.751    2.1966283    14.837344   0.10610124 
   61900    -950.7915    36.263599    -914.5279    1298.8306   -6082.2154    2.1756027    17.730766   0.11126926 
   62000   -956.87945    38.177704   -918.70175    1367.3869   -5645.7677    2.1884673    16.334198  0.093835368 
   62100   -951.55224    40.991333   -910.56091    1468.1609    1947.0374    2.1942762    16.320991   0.10727317 
   62200   -951.78392    38.788307   -912.99562    1389.2565    7724.2034    2.2098622    15.564041   0.11040264 
   62300   -955.07406    37.831553   -917.24251     1354.989    3227.2746    2.2050683    14.106124   0.10654021 
   62400   -951.97557    42.713025   -909.26255    1529.8257   -6335.4743    2.1764367      13.9745   0.11998884 
   62500   -952.43947     39.60463   -912.83484    1418.4942    -1812.245    2.1883616     14.32178   0.10619366 
   62600   -953.55755    37.506609   -916.05095    1343.3507    4074.3636    2.2035649    15.492073  0.098874435 
   62700   -948.44229    39.005504   -909.43679    1397.0357    5722.7655    2.1977664    15.486808   0.10559656 
   62800   -948.49215    36.410806   -912.08135     1304.103    2052.3574    2.1919162    16.457577   0.10652537 
   62900   -954.81103    38.270043   -916.54098    1370.6941   -3928.2313     2.187366    15.756785   0.10755532 
   63000   -952.86377    41.870404   -910.99337     1499.646    -2751.461    2.1865237    16.159838    0.0991581 
   63100   -952.00919    40.815985   -911.19321    1461.8806    4814.8463    2.2009768    13.407429  0.095848053 
   63200   -956.61674    39.659103   -916.95764    1420.4452    3684.3868    2.2132186    13.111399   0.10733062 
   63300   -955.15692    42.978997   -912.17793    1539.3518   -4634.8302    2.1826364    14.091432    0.1007528 
   63400   -949.65218    37.478803   -912.17338    1342.3548   -11770.121     2.161327    13.855751   0.11832554 
   63500   -957.12055    37.913951    -919.2066    1357.9402   -33.729637    2.2045873    14.129251   0.10658754 
   63600    -956.3862    44.259821   -912.12638    1585.2263    10670.295    2.2241859    12.914909  0.088390593 
   63700   -949.55073    37.262942   -912.28779    1334.6234    8935.5673    2.2088407    16.074223   0.10800416 
   63800   -956.65621    37.816538   -918.83967    1354.4512   -8477.0028    2.1816952    15.688616   0.10409523 
   63900   -952.05626    39.731497   -912.32476    1423.0381   -9061.5892    2.1657316    15.663472   0.10100203 
   64000   -952.93131    41.513299   -911.41801    1486.8558    3278.3634    2.1993148    13.569021   0.10604102 
   64100   -955.89348    39.817734   -916.07575    1426.1268    8359.5508    2.2208116    14.110117  0.088140914 
   64200    -954.0752    42.647843   -911.42736    1527.4911    1612.7213    2.1983016    15.440572   0.10867291 
   64300   -954.79874     44.21284    -910.5859    1583.5436   -9254.4786    2.1733774    13.302306   0.10934735 
   64400   -956.84255    40.323068   -916.51949    1444.2261   -6712.1179    2.1841779    13.103143  0.097859258 
   64500   -953.58941    41.268838   -912.32057    1478.1001    3554.8304    2.2035756    14.570441   0.10740357 
   64600   -950.11711    41.485062   -908.63205    1485.8445     5729.067    2.2028496    15.505374   0.11241656 
   64700   -952.57562    36.402296   -916.17332    1303.7982    4174.8122     2.199566    15.135194   0.10939869 
   64800   -954.83109    41.193208   -913.63789    1475.3913   -7723.2377    2.1814058    16.316711   0.11132017 
   64900   -949.15504    40.063454   -909.09158    1434.9276   -1104.5281    2.1782019    14.115722   0.10847474 
   65000   -958.76999     40.97263   -917.79736     1467.491    4306.3062    2.2147928    15.158057  0.098669741 
   65100   -957.69621    43.399156   -914.29705    1554.4004    734.60677    2.2044608      14.8476    0.1083845 
   65200   -952.23942    40.865805   -911.37362    1463.6649   -3581.5041    2.1797275    13.271522   0.10791357 
   65300   -956.13539    37.625682   -918.50971    1347.6155    -8636.206    2.1775135    13.076912   0.10636765 
   65400   -950.93655    34.925719   -916.01083    1250.9126    1252.7674    2.1932144    12.755202  0.097920707 
   65500   -952.19023    41.922065   -910.26816    1501.4963    19345.554    2.2355051    13.650487   0.10626808 
   65600   -955.68862     40.43342    -915.2552    1448.1785    8918.8557    2.2204994      15.2878    0.1125162 
   65700   -956.25259    36.921558   -919.33103    1322.3963   -11934.152    2.1702286    16.648077   0.11027684 
   65800   -952.20679    41.292388   -910.91441    1478.9436   -15133.965    2.1552148    15.677526   0.12270422 
   65900   -954.07047    40.521848   -913.54863    1451.3456    3086.7378    2.2026524    13.956838    0.1071784 
   66000   -956.11698    39.994432   -916.12255    1432.4555    9985.7237    2.2229494    13.054688  0.098227335 
   66100   -951.49639     43.42903   -908.06736    1555.4704    633.79568    2.1888911    16.211594  0.095702892 
   66200   -953.89441    41.323969   -912.57044    1480.0747   -6168.0328    2.1790343    13.995647   0.10651695 
   66300   -956.86356    40.496919   -916.36664    1450.4528   -8239.7233    2.1827442    13.484875  0.099168963 
   66400    -953.1045    43.145142   -909.95936    1545.3025    956.83972    2.1925933    14.634918  0.099729494 
   66500   -952.01201     40.22327   -911.78874    1440.6517    6621.9215    2.2059688    13.860343   0.11305207 
   66600   -955.04568     38.70157   -916.34411    1386.1499    610.18235    2.2001797    16.001235  0.095419678 
   66700   -951.15471    39.454222   -911.70049    1413.1071   -5469.7801     2.175882    15.334144   0.10554152 
   66800   -950.91575    39.916919   -910.99883    1429.6793   -4863.9446    2.1748389    16.749731   0.10824661 
   66900   -954.29962    36.673479   -917.62614     1313.511    4816.5603    2.2115135    15.717467   0.10403831 
   67000   -949.53908     37.88444   -911.65464    1356.8833    9596.7102    2.2114149    13.017815   0.11425942 
   67100   -952.79802     40.60321   -912.19481    1454.2597   -3174.0506    2.1852806    15.419665   0.10025535 
   67200   -956.53268    37.081477    -919.4512     1328.124   -9765.8651      2.17485    14.885315   0.09431026 
   67300   -952.97798    39.351542   -913.62644    1409.4295   -4668.1347     2.180416    14.180138   0.10295692 
   67400   -950.49628    39.566584   -910.92969    1417.1315    11436.934    2.2173418    13.686845   0.10415521 
   67500   -956.19961    38.800266   -917.39935    1389.6848    12526.167    2.2294421    14.211902  0.098326265 
   67600   -952.78707    40.439874    -912.3472    1448.4096   -6219.4629    2.1737518    15.523617   0.10007657 
   67700   -952.07747    40.604313   -911.47315    1454.2993   -12937.181     2.156643    16.587314   0.11882286 
   67800   -955.07426    39.128119   -915.94614    1401.4273    256.32861    2.1931121    14.576483  0.095087169 
   67900   -955.72659    40.402695   -915.32389     1447.078    8565.3792    2.2135376    15.200121   0.09419283 
   68000   -951.37328    42.194947   -909.17834      1511.27   -8.5013673     2.185904    16.768458  0.093758533 
   68100   -955.52924    39.839224   -915.69002    1426.8965   -4359.6877    2.1847492     14.48068  0.094038062 
   68200   -952.42711    37.900587   -914.52653    1357.4616   -1100.8466    2.1872097    13.632741   0.10230982 
   68300   -949.57027    41.598679    -907.9716    1489.9138    2841.1795    2.1870781    13.580834  0.098763088 
   68400   -955.56729    39.929775   -915.63752    1430.1397    2722.2881    2.2076066    13.568162   0.10584701 
   68500   -953.32984    39.060361   -914.26948    1399.0005    1700.3307     2.195829    14.602929   0.09608657 
   68600   -948.65495    39.755446    -908.8995    1423.8959   -3964.2482    2.1733932    15.008031   0.11861679 
   68700     -954.991    37.813593   -917.17741    1354.3458   -215.00834    2.1956337    14.316474  0.098555401 
   68800   -953.19851    38.540154   -914.65835    1380.3686     4267.049    2.2064474    14.399665   0.10386116 
   68900   -952.49202    42.406137   -910.08588     1518.834    4392.6324    2.1996635    15.050109    0.1103724 
   69000   -957.41787    40.452335   -916.96554    1448.8559    -4211.401    2.1902749    15.233441  0.087624539 
   69100   -951.89512    35.800534   -916.09458    1282.2453   -9523.7812    2.1701622    13.578061   0.10427408 
   69200   -954.44077    42.900313   -911.54045    1536.5336   -3506.2997    2.1851681    13.785578   0.10184515 
   69300   -955.37296    39.464691   -915.90827    1413.4821    12192.004    2.2296546    14.895777  0.095801578 
   69400   -955.61709    38.193791    -917.4233    1367.9631    10154.894    2.2246026    15.911538  0.097110323 
   69500   -951.04419    40.269158   -910.77503    1442.2952   -7509.8502    2.1649408    10.965413   0.11868553 
   69600   -949.98569    37.095339   -912.89035    1328.6205   -10593.977    2.1598024     14.97333   0.10263747 
   69700   -956.93422    39.271496   -917.66272    1406.5626    671.82863    2.2006581    13.648873    0.1046305 
   69800   -951.51591    41.241388   -910.27452     1477.117    7171.4179    2.2081387    16.788153   0.11172646 
   69900   -952.15045    39.567912   -912.58254    1417.1791    5280.8874    2.2024786    13.842795  0.099035733 
   70000   -957.08595    39.456962   -917.62898    1413.2053   -3857.0784    2.1897975    14.531926  0.098650991 
   70100   -953.03272    42.530105   -910.50261    1523.2741   -6030.0304    2.1763844    14.366941  0.095187469 
   70200    -953.7239    41.213942   -912.50996    1476.1339     922.3405     2.195036     12.73215  0.095194394 
   70300   -957.04672    40.481808   -916.56491    1449.9115    3335.5592    2.2092522    13.266759  0.097453689 
   70400   -949.81744    39.861974   -909.95547    1427.7114     1571.352    2.1924578    13.990278   0.10268105 
   70500   -952.34703    39.019243   -913.32779    1397.5278   -3580.4003    2.1820913    14.070569   0.11021554 
   70600    -953.3473    36.587308   -916.75999    1310.4247    -704.5443    2.1899361     13.22759   0.10084902 
   70700   -950.47889    41.348605   -909.13029    1480.9571    2094.2114    2.1901192    15.634315  0.099069676 
   70800   -954.30869    40.823688     -913.485    1462.1565    7060.9552     2.209033    12.464902   0.09587712 
   70900   -956.93592    40.565227   -916.37069    1452.8993   -223.29984     2.199982    15.202444  0.091518339 
[...]
  186800   -954.80758    39.657709   -915.14987    1420.3953    6436.7974    2.2159237    14.848116   0.11274545 
  186900   -956.61883    41.147561   -915.47127    1473.7564   -2807.9731     2.195927    14.518513   0.10564688 
  187000   -951.01035    40.783606   -910.22674    1460.7209   -6104.5253    2.1765504    11.582296   0.10417029 
  187100   -954.52199    37.751614   -916.77037    1352.1259   -3268.9802    2.1958723    12.374819    0.1057734 
  187200   -955.83711    39.583251   -916.25386    1417.7285    1404.6751    2.2037105    12.563667  0.080973433 
  187300   -951.45393    40.392837   -911.06109    1446.7249    2322.6542     2.197097    10.895417  0.099879039 
  187400   -953.24397     37.49925   -915.74472    1343.0871     658.3031    2.1978145    13.443336   0.11076672 
  187500   -954.17482     36.36986   -917.80496    1302.6365   -804.77616    2.1989405    15.470427   0.10975915 
  187600   -953.85747    42.880422   -910.97704    1535.8212   -1377.6105    2.1882353    15.122994   0.11839402 
  187700   -954.79291    39.906841   -914.88607    1429.3183   -843.81741     2.198853    14.614287   0.11921772 
  187800   -958.67916    40.898713   -917.78045    1464.8436     356.1706     2.206824    13.651216   0.09613156 
  187900   -950.21301    40.464009     -909.749    1449.2741      807.353    2.1868122    12.341819   0.11948998 
  188000   -953.85368    39.447188   -914.40649    1412.8552   -1423.2718    2.1960824    12.810641   0.11120896 
  188100   -954.40187    37.788254   -916.61362    1353.4382    2379.9419    2.2040272    14.015328  0.098296055 
  188200      -947.65     39.14413   -908.50587    1402.0008    2342.6142    2.1914564    12.627714   0.12416959 
  188300     -953.202    39.166237   -914.03576    1402.7926    2461.6519    2.2019355    14.281708   0.09268641 
  188400   -953.25063    37.357975   -915.89265    1338.0272    400.07695    2.1961236     13.46408   0.10334697 
  188500   -951.00439    42.359989   -908.64441    1517.1812   -3636.2452    2.1779005    14.566315   0.11173899 
  188600   -952.89076    38.076126   -914.81463    1363.7488    1775.7614    2.1989251     13.56571   0.11990851 
  188700     -955.093    39.483281   -915.60972    1414.1479    2948.8309    2.2078045    15.409211   0.11983642 
  188800   -954.50886    44.909871   -909.59899    1608.5087    7.8567979     2.195386    14.719603   0.11895409 
  188900   -954.06234    39.417676   -914.64467    1411.7982    -2644.876    2.1881996     13.90253   0.12201421 
  189000    -955.5693    39.029992   -916.53931    1397.9128   -4542.8493    2.1860112    12.752851   0.10306162 
  189100   -955.27982    44.678154   -910.60167    1600.2094   -722.49168    2.1943793    13.033923  0.095685227 
  189200   -955.57496    40.646887   -914.92807    1455.8241    4421.9823    2.2098506    12.705937   0.10915206 
  189300   -955.07357    37.262518   -917.81105    1334.6083    1355.1744    2.2045844    12.259858  0.085040357 
  189400   -949.42394    38.040431   -911.38351    1362.4703   -3701.8623    2.1763398     13.32436    0.1158541 
  189500   -953.90519    40.197844   -913.70734     1439.741   -2933.1794    2.1885969    11.596531   0.10941552 
  189600   -955.48885    37.945022   -917.54383    1359.0531     7644.478    2.2197203    15.041333   0.10066701 
  189700   -952.75929    42.960027   -909.79926    1538.6724    6361.7287    2.2053708    15.645289   0.13175677 
  189800    -953.5236    39.671545   -913.85205    1420.8909   -3483.2287    2.1884824    14.082439   0.11387976 
  189900   -954.47508    36.741685   -917.73339    1315.9539   -7512.6017    2.1778628     14.29642   0.11368869 
  190000   -953.94471    43.807242   -910.13746    1569.0165   -6541.6653    2.1806344    13.253319   0.11707023 
  190100   -953.66334    40.755002   -912.90834    1459.6964    9921.5342    2.2209412    14.712283   0.10887342 
  190200   -957.78351    41.572402   -916.21111    1488.9727    8584.5803    2.2240574    12.297525  0.098724248 
  190300   -947.49439    37.727838   -909.76655    1351.2744   -4208.6855    2.1767057    14.208168   0.10346658 
  190400   -951.42245    38.769664   -912.65279    1388.5888   -11055.076    2.1643307    12.960598   0.11492984 
  190500   -957.02021    40.504097   -916.51611    1450.7099   -2178.0995    2.1983475    14.667581  0.099204063 
  190600   -950.34468    40.701545   -909.64314    1457.7817    11311.587    2.2146721     15.15563   0.11671167 
  190700   -953.92202     41.18936   -912.73266    1475.2535      4252.16    2.2043372    16.332837   0.11113557 
  190800   -957.81958    40.499386    -917.3202    1450.5411   -4873.5183    2.1933568    13.719915   0.10967551 
  190900   -953.68829    42.840849   -910.84744    1534.4039    -4427.274    2.1830554    12.459734   0.12276596 
  191000   -953.77928    40.242214   -913.53706    1441.3302    -964.9981    2.1973315    13.608257   0.11386831 
  191100    -954.7897    37.542464   -917.24724    1344.6349    4514.9008    2.2106428    12.407682   0.11083138 
  191200   -950.94124     40.34056   -910.60068    1444.8526    679.60367    2.1934448    14.208974   0.11139402 
  191300   -953.11649    39.121092    -913.9954    1401.1756   -4450.3759     2.186034    12.521163   0.10253833 
  191400   -955.72513    37.710911   -918.01422    1350.6681   -1801.4409    2.1969056    11.346356   0.10078603 
  191500   -951.35478    40.602041   -910.75274    1454.2179    1340.5983    2.1966051     11.31297   0.11362202 
  191600   -956.61535    42.484293   -914.13105    1521.6333    3057.9841    2.2098455    12.721424  0.099469659 
  191700   -955.96402    38.036275   -917.92775    1362.3214    372.47205     2.202799    12.877039   0.11001976 
  191800   -951.16455    41.094123   -910.07043    1471.8425   -8612.2443    2.1711479    13.564996   0.11181295 
  191900    -955.8045    41.570194   -914.23431    1488.8936   -4336.9964    2.1894991    15.464764   0.10520779 
  192000   -956.71833     40.54305   -916.17528     1452.105    6258.5713    2.2207053    14.522536    0.1168544 
  192100   -950.24256    42.014638   -908.22792    1504.8119    7285.4923    2.2089024    13.700952   0.10050925 
  192200   -954.12677    40.449384   -913.67739    1448.7502   -4905.8132    2.1871326    11.442446   0.11384149 
  192300   -954.65683     38.08617   -916.57067    1364.1085   -12439.073    2.1709403    14.297614   0.10735688 
  192400   -949.65079    40.163828   -909.48696    1438.5227   -1718.1902     2.183662    12.492387   0.10979671 
  192500   -954.36494    41.236518   -913.12842    1476.9425    13034.144     2.228296    13.545441   0.10553166 
  192600    -954.0719    38.077269   -915.99463    1363.7897    7411.3142    2.2197272     15.21688   0.10006069 
  192700   -951.01361    39.489086   -911.52452    1414.3559   -6825.5378    2.1766242    12.156187   0.11391032 
  192800   -951.15011    39.803198   -911.34691    1425.6062   -6794.9611    2.1703007     12.89019   0.11427205 
  192900   -956.81142    39.009497   -917.80192    1397.1787    303.87852    2.2075543    13.699252   0.10080711 
  193000   -953.87233     42.18102   -911.69131    1510.7712    4345.3092    2.2084649    13.286662   0.10983597 
  193100   -954.51016    41.623755    -912.8864    1490.8119    915.15643    2.1981473    12.829297  0.099490707 
  193200   -957.38464    38.413276   -918.97136    1375.8242   -3958.2259    2.1976391    12.324979  0.097829071 
  193300   -953.41798    41.492842   -911.92514    1486.1231   -4530.7619    2.1847401    12.706063   0.10771088 
  193400   -952.00853    39.004941   -913.00359    1397.0155    2315.2829    2.1987337    13.658445    0.1034442 
  193500   -959.50843    41.188449   -918.31999    1475.2209    3897.8362     2.214437    12.638715   0.08976877 
  193600   -950.49408    39.944649   -910.54943    1430.6725    249.31277    2.1903441    14.136684   0.10651889 
  193700   -952.03675    39.056931   -912.97982    1398.8776   -2480.3413    2.1869393    14.086827   0.10539291 
  193800   -955.27692    37.626003   -917.65092     1347.627    95.187958    2.1987248    14.443549    0.1026526 
  193900   -953.13158    42.957053   -910.17453    1538.5658    1920.2385    2.1994985    13.964359   0.11708753 
  194000   -952.79782    40.766331   -912.03149    1460.1021    7222.4494    2.2120266    12.388347   0.10665772 
  194100    -957.8057    41.021096   -916.78461    1469.2269   -2649.1591    2.1964122    13.012215  0.096066347 
  194200   -951.81066    41.598126   -910.21254     1489.894   -11858.929    2.1604034    13.561412   0.11401134 
  194300   -950.94345    39.264985   -911.67846    1406.3294   -4546.7949    2.1820257     12.38827   0.10224368 
  194400   -952.19262    36.768846   -915.42378    1316.9267    12788.352    2.2265931     14.02884   0.10394461 
  194500   -954.33843    43.365771   -910.97265    1553.2047    9280.8243    2.2163463    11.410891  0.099916739 
  194600   -952.64337    41.698336   -910.94503    1493.4832   -6235.8911    2.1743056    15.740894  0.091275082 
  194700   -956.09551    38.341132   -917.75438    1373.2403   -10140.153    2.1759013    13.195914   0.10179747 
  194800    -954.1487    41.537369   -912.61133    1487.7179    251.84986    2.1930697    17.092928  0.097350991 
  194900   -952.53557    42.429989   -910.10558    1519.6883    7210.2291    2.2087961    13.108496  0.098118674 
  195000   -956.08218    37.994742   -918.08744    1360.8339    3256.9149    2.2114455    12.788652   0.10325159 
  195100   -955.00457    41.590707   -913.41386    1489.6283   -6535.1971    2.1804329    11.531434   0.10565858 
  195200   -954.69622    43.107014   -911.58921    1543.9369   -5710.4875     2.179056    12.785287   0.10585365 
  195300   -958.38214    39.694022   -918.68811    1421.6959    1421.2104    2.2080552    14.125595  0.089144492 
  195400   -953.17021    40.321798   -912.84841    1444.1806    4822.0423    2.2038424    12.649687  0.088371458 
  195500   -953.24845    41.357244   -911.89121    1481.2665    200.21329    2.1916447     13.81708  0.091126261 
  195600   -957.32561    39.029194   -918.29642    1397.8842   -3733.8229    2.1923669    13.767513  0.090211978 
  195700   -952.06146    39.365614   -912.69585    1409.9335   -1990.3529    2.1863986    13.571581    0.1053496 
  195800   -952.73343     41.33209   -911.40134    1480.3656    2352.2997    2.1971939    12.255974  0.097647464 
  195900   -956.44397    39.569677   -916.87429    1417.2423    2208.1291    2.2059737    13.958814  0.096937051 
  196000   -951.16991    39.429977   -911.73993    1412.2388    1071.8986    2.1896267    11.911265   0.10711129 
  196100   -950.65586    39.821314   -910.83455     1426.255   -2500.6181    2.1811359     12.84255   0.11049763 
  196200    -954.3902     37.72558   -916.66462    1351.1935   -1869.7982    2.1921353    12.636403   0.11423802 
  196300   -956.07737    43.825909   -912.25146    1569.6851    1748.0934    2.2036368     13.09337   0.10935932 
  196400   -950.40581    41.387633   -909.01818    1482.3549    8158.6506    2.2048734    13.796077    0.1027541 
  196500    -953.5217    37.215857   -916.30584     1332.937   -1975.3414    2.1886905    11.614711   0.10107052 
  196600   -953.19234    39.675975   -913.51636    1421.0496   -8725.8069    2.1706684    14.502666   0.10820079 
  196700   -949.21992    40.450544   -908.76938    1448.7918   -430.05152    2.1831226    12.791737   0.11112381 
  196800   -952.43413    35.396784   -917.03734    1267.7844    14405.939    2.2273317    13.189992    0.1027872 
  196900   -955.15468    41.201505   -913.95318    1475.6885    4282.4314    2.2066883    12.786085    0.1039331 
  197000   -950.87894    39.507912   -911.37102    1415.0301   -8697.9438    2.1694311    11.776482   0.11143607 
  197100   -955.93832    36.805612   -919.13271    1318.2435   -7616.3748    2.1823637    13.432926    0.1047857 
  197200   -957.39542    42.168096   -915.22732    1510.3083    171.03599    2.2014296    13.619078  0.093711487 
  197300   -951.97105    40.970367   -911.00068      1467.41    7567.2289    2.2108904    12.844314   0.10709459 
  197400    -957.8858    40.601755   -917.28405    1454.2076    1009.9703    2.2047714    12.465297  0.094893186 
  197500   -955.34023    38.599112   -916.74111    1382.4802   -7244.1566    2.1829728    16.228418  0.093630075 
  197600   -953.00772    41.482159   -911.52556    1485.7405    -5668.859    2.1778485    13.102176   0.11376688 
  197700   -954.90904    39.573393   -915.33565    1417.3754    970.34194    2.1994373     12.00436  0.094227599 
  197800   -955.13604    37.648488   -917.48755    1348.4323    8044.9644     2.216844    13.325261   0.10132512 
  197900   -954.00933    44.597055   -909.41227    1597.3048   -2051.5833    2.1849118    14.998589   0.11283742 
  198000   -953.67511    39.263454   -914.41166    1406.2745   -6636.4965    2.1764441    13.385694  0.086842234 
  198100   -955.47401    39.381766   -916.09224     1410.512   -3279.9643    2.1871545    13.903743   0.10516888 
  198200   -949.28193    41.286889   -907.99505    1478.7466    8171.8151    2.2031234     12.81027   0.10534222 
  198300   -956.18665    43.523147   -912.66351    1558.8413    13269.881    2.2302604    12.003134  0.083687697 
  198400     -956.583    40.653733   -915.92927    1456.0693   -6315.1509    2.1807287    14.317926   0.10375372 
  198500   -950.02098    38.621443   -911.39953      1383.28   -17483.169    2.1419113    13.755956   0.11800843 
  198600   -951.14096    41.760004   -909.38095    1495.6919   -2777.0144    2.1766285    13.664878   0.10614662 
  198700   -957.02029    40.314287     -916.706    1443.9116    13096.191    2.2318865    12.978288  0.096871391 
  198800   -955.28991    42.870022   -912.41989    1535.4487    4814.7223    2.2079859    15.353795  0.091000256 
  198900    -954.6398    42.447807   -912.19199    1520.3265   -8054.2959    2.1745725     15.51483   0.10060601 
  199000   -958.14434    38.624508   -919.51983    1383.3898   -8006.6269    2.1835656    15.321095  0.093868842 
  199100    -952.1824    38.896055   -913.28635    1393.1156   -249.17787    2.1914478    13.781873  0.099314748 
  199200   -955.11521    43.340536   -911.77467    1552.3008     6357.416    2.2082901    13.095016  0.090501786 
  199300    -955.1859    36.562981   -918.62291    1309.5534    5005.2404     2.209744    13.395478  0.095946464 
  199400   -953.99504    41.889085   -912.10596    1500.3151    -7065.881    2.1767197     12.61165   0.10410614 
  199500   -953.63545    41.519032   -912.11642    1487.0612   -4618.3639    2.1782835    14.621534  0.096069414 
  199600   -954.45978    37.359342   -917.10043    1338.0761     1941.864    2.2036088    13.885903  0.096350051 
  199700   -951.89854    39.645066   -912.25348    1419.9425     8095.052    2.2095453    13.613915    0.1029374 
  199800   -952.56187    41.935129   -910.62674    1501.9642    3079.5371    2.1971805    14.071924   0.10618799 
  199900   -954.49271    37.988175   -916.50454    1360.5987   -6812.9266    2.1774484     15.00791  0.095063832 
  200000   -953.68081    41.343577   -912.33723     1480.777   -8784.7922    2.1737766    15.571616   0.10981395 
  200100   -952.00021     43.12226   -908.87795     1544.483    4165.8999    2.2001933    12.066011   0.10664762 
  200200   -951.37947    36.399845   -914.97963    1303.7104    13861.945    2.2285196    11.827235  0.095560327 
  200300   -951.85426    38.282494   -913.57177    1371.1401    1299.7339    2.1940052    13.529294   0.10692768 
  200400   -948.55834    39.290989   -909.26736    1407.2607    -12968.93    2.1506654    14.319114   0.11928782 
  200500   -954.37174    36.301995   -918.06975    1300.2058   -5066.0635    2.1868953    15.382459  0.097536415 
  200600   -953.12234    38.994696   -914.12764    1396.6486     11258.46    2.2219316    11.732663  0.099603684 
  200700    -951.6094     41.32533   -910.28407    1480.1235    7087.7512    2.2096732    15.170551   0.10231066 
  200800   -952.71008    36.021316   -916.68876    1290.1529   -1448.0324    2.1894603    12.853203   0.10487032 
  200900   -955.90889     39.30657   -916.60232    1407.8188   -4966.4476    2.1873625    14.797158   0.10101238 
  201000   -952.79288    41.679806   -911.11307    1492.8195    336.25073    2.1904691    13.577369   0.10935176 
  201100   -956.68097    40.655982   -916.02499    1456.1498    1813.9873    2.2058881    15.322194  0.097377922 
  201200   -954.79397    37.312277    -917.4817    1336.3904    3407.7217    2.2046427    12.590318   0.10183876 
  201300   -949.69297    38.537797   -911.15518    1380.2841   -821.38586    2.1841062    12.098138   0.12311608 
  201400   -953.77605    38.486102   -915.28995    1378.4326   -3655.5017    2.1883638    11.654022   0.11056976 
  201500   -956.22809    38.148259   -918.07983    1366.3323   -796.52972    2.2029513    13.931674   0.10249778 
  201600   -953.45254     43.31576   -910.13678    1551.4134    1689.9322    2.1980837    12.025894   0.10706632 
  201700    -957.4391    43.224519   -914.21458    1548.1455   -1051.6161     2.200259    12.707089  0.091129824 
  201800   -955.59087    38.093051   -917.49782    1364.3549   -3091.6632    2.1946079    16.017381  0.099987763 
  201900   -950.64886     41.64909   -908.99977    1491.7194   -5839.1614    2.1736223    14.175633   0.11126749 
  202000   -951.70674    38.226088   -913.48065    1369.1198    2612.6414    2.2001712    15.345331   0.10793016 
  202100   -952.79461    37.478459   -915.31615    1342.3425    10734.371    2.2215246    14.837688  0.097451809 
  202200   -950.13031    41.963303   -908.16701    1502.9733    2873.8648     2.190408    13.688824   0.10551001 
  202300   -950.85536    38.256547   -912.59881    1370.2108   -8984.9511      2.16903    12.674196   0.12097816 
  202400   -952.77095    36.553629   -916.21732    1309.2184   -6443.6303    2.1775586    15.072314   0.11266917 
  202500   -952.71439    42.408359   -910.30603    1518.9136    4324.6524    2.2055705    12.453413   0.11812536 
  202600   -952.10656    40.146971   -911.95959    1437.9189    11975.227    2.2213061    13.010352    0.1119001 
  202700   -955.09325    37.982562   -917.11068    1360.3976    236.32604    2.1993196    14.788978   0.10490011 
  202800   -952.18435      39.4516   -912.73275    1413.0133   -7785.8158     2.171149    15.612809   0.11172462 
  202900   -953.95157    43.050673    -910.9009     1541.919   -4981.0921    2.1799831     14.23257   0.10139259 
  203000    -956.0422    37.508275   -918.53392    1343.4104    6924.7319    2.2180289     13.23474  0.097442458 
  203100   -953.76759    41.307984    -912.4596    1479.5022    3213.7979    2.2030906    12.615733   0.10330969 
  203200    -952.5705     40.11753   -912.45297    1436.8644   -2200.9402    2.1876037    13.104159   0.12051707 
Loop time of 144.523 on 1 procs for 200000 steps with 217 atoms

Performance: 358.698 ns/day, 0.067 hours/ns, 1383.867 timesteps/s
100.0% CPU use with 1 MPI tasks x no OpenMP threads

MPI task timing breakdown:
Section |  min time  |  avg time  |  max time  |%varavg| %total
---------------------------------------------------------------
Pair    | 141        | 141        | 141        |   0.0 | 97.57
Neigh   | 0.35351    | 0.35351    | 0.35351    |   0.0 |  0.24
Comm    | 0.89101    | 0.89101    | 0.89101    |   0.0 |  0.62
Output  | 0.069806   | 0.069806   | 0.069806   |   0.0 |  0.05
Modify  | 1.892      | 1.892      | 1.892      |   0.0 |  1.31
Other   |            | 0.3119     |            |       |  0.22

Nlocal:    217 ave 217 max 217 min
Histogram: 1 0 0 0 0 0 0 0 0 0
Nghost:    957 ave 957 max 957 min
Histogram: 1 0 0 0 0 0 0 0 0 0
Neighs:    4240 ave 4240 max 4240 min
Histogram: 1 0 0 0 0 0 0 0 0 0
FullNghs:  8480 ave 8480 max 8480 min
Histogram: 1 0 0 0 0 0 0 0 0 0

Total # of neighbors = 8480
Ave neighs/atom = 39.0783
Neighbor list builds = 594
Dangerous builds = 3
Total wall time: 0:02:26
