LAMMPS (3 Mar 2020)

# ---------- 1. Initialize simulation ----------
units metal
atom_style atomic
dimension 3
boundary p p p
read_data /home/modeler/RemLabs/Project/arrhenius_4/T1800.0/n3_T1800.0_timestep3.000000e-03_eqsteps3200_time600_rseed3344/20201205-153627/lammps.data
  orthogonal box = (0 0 0) to (17.469 17.469 17.469)
  1 by 1 by 1 MPI processor grid
  reading atoms ...
  217 atoms
  read_data CPU = 0.000974051 secs

pair_style meam/c
pair_coeff * * library.meam Li Si LiSi.meam Li Si
Reading potential file library.meam with DATE: 2012-06-29
Reading potential file LiSi.meam with DATE: 2020-11-07

group Li type 1
1 atoms in group Li
group Si type 2
216 atoms in group Si

velocity all create 1800.0 3344 dist gaussian

# ---------- 2. Specify equilibration ensemble  ----------
fix 1 all npt temp 1800.0 1800.0 0.15 tchain 2 iso 1.0 1.0 1.0 pchain 2
# fix 1 all nvt temp 1800.0 1800.0 0.15

# ---------- 3. Run equilibration -------------
timestep 0.003
run 3200
Neighbor list info ...
  update every 1 steps, delay 10 steps, check yes
  max neighbors/atom: 2000, page size: 100000
  master list distance cutoff = 6
  ghost atom cutoff = 6
  binsize = 3, bins = 6 6 6
  2 neighbor lists, perpetual/occasional/extra = 2 0 0
  (1) pair meam/c, perpetual
      attributes: full, newton on
      pair build: full/bin/atomonly
      stencil: full/bin/3d
      bin: standard
  (2) pair meam/c, perpetual, half/full from (1)
      attributes: half, newton on
      pair build: halffull/newton
      stencil: none
      bin: none
Per MPI rank memory allocation (min/avg/max) = 8.895 | 8.895 | 8.895 Mbytes
Step Temp E_pair E_mol TotEng Press Volume 
       0         1800   -951.04357            0   -900.78722   -114161.75    5330.9442 
    3200     1896.195   -938.79437            0   -885.85224    1874.1175    4665.1176 
Loop time of 2.29115 on 1 procs for 3200 steps with 217 atoms

Performance: 362.020 ns/day, 0.066 hours/ns, 1396.681 timesteps/s
100.0% CPU use with 1 MPI tasks x no OpenMP threads

MPI task timing breakdown:
Section |  min time  |  avg time  |  max time  |%varavg| %total
---------------------------------------------------------------
Pair    | 2.1747     | 2.1747     | 2.1747     |   0.0 | 94.92
Neigh   | 0.066409   | 0.066409   | 0.066409   |   0.0 |  2.90
Comm    | 0.015524   | 0.015524   | 0.015524   |   0.0 |  0.68
Output  | 2.5299e-05 | 2.5299e-05 | 2.5299e-05 |   0.0 |  0.00
Modify  | 0.029457   | 0.029457   | 0.029457   |   0.0 |  1.29
Other   |            | 0.005052   |            |       |  0.22

Nlocal:    217 ave 217 max 217 min
Histogram: 1 0 0 0 0 0 0 0 0 0
Nghost:    953 ave 953 max 953 min
Histogram: 1 0 0 0 0 0 0 0 0 0
Neighs:    4090 ave 4090 max 4090 min
Histogram: 1 0 0 0 0 0 0 0 0 0
FullNghs:  8180 ave 8180 max 8180 min
Histogram: 1 0 0 0 0 0 0 0 0 0

Total # of neighbors = 8180
Ave neighs/atom = 37.6959
Neighbor list builds = 113
Dangerous builds = 3

# ---------- 4. Describe computed properties----------
compute msdli Li msd
compute msdsi Si msd
thermo_style custom step pe ke etotal temp press density c_msdli[4] c_msdsi[4]
thermo 100

# ---------- 3. Run production -------------
timestep 0.003
run 200000
Per MPI rank memory allocation (min/avg/max) = 9.664 | 9.664 | 9.664 Mbytes
Step PotEng KinEng TotEng Temp Press Density c_msdli[4] c_msdsi[4] 
    3200   -938.79437    52.942128   -885.85224     1896.195    1874.1175    2.1618551            0 7.5874507e-32 
    3300   -940.62722    48.734465   -891.89275    1745.4918   -12126.074     2.133986   0.28426945   0.12960927 
    3400   -939.59785    46.910466   -892.68738    1680.1628    4964.6937     2.173647  0.068888284   0.14560255 
    3500   -933.11401    50.226663   -882.88735    1798.9369    9117.8272    2.1671403   0.29999249   0.16553376 
    3600   -940.20836    50.238259    -889.9701    1799.3523   -6711.1003    2.1420007   0.92285629     0.163962 
    3700    -941.1918    49.226923   -891.96488    1763.1298   -2912.0513    2.1613458   0.23058958   0.12577699 
    3800   -935.73519    53.007682    -882.7275    1898.5429    8962.6693    2.1761829    4.2803106   0.13551217 
    3900   -933.08817    48.922854   -884.16531    1752.2392    -1800.998    2.1421575    2.9181971   0.17500731 
    4000   -939.48384    47.732992   -891.75085    1709.6227   -8594.0263    2.1392563    5.0914355   0.18878154 
    4100   -937.59482    49.901675   -887.69315     1787.297    10256.372    2.1792478    11.356307   0.19168572 
    4200   -931.74816    51.509214   -880.23894    1844.8733    2759.9819    2.1442291    9.2476012   0.20063081 
    4300   -937.23468    46.948302   -890.28637    1681.5179   -4982.8409    2.1355752    9.7503868   0.17533333 
    4400   -939.11622    47.991907   -891.12431    1718.8961    3396.5844    2.1654023    13.001063    0.1803606 
    4500   -939.96466     52.96157   -887.00309    1896.8914    5155.8199    2.1694023    14.876262   0.18764836 
    4600   -939.73483    50.343843   -889.39098    1803.1339   -10859.593    2.1295068    10.307863    0.1815191 
    4700   -945.78492    49.386254   -896.39867    1768.8365    2275.3391    2.1745618    13.566432   0.16603179 
    4800   -938.65497     50.83598   -887.81899    1820.7605    8347.7305    2.1760821    11.042043   0.17291175 
    4900   -937.08318    48.028378    -889.0548    1720.2023   -5208.8575    2.1338339    10.410189   0.19054753 
    5000   -942.32719     45.12939    -897.1978    1616.3711   -1853.4797     2.161169    12.275251   0.16384033 
    5100   -944.84252    50.830956   -894.01157    1820.5805    8521.9691    2.1905376    12.118413   0.17632511 
    5200   -940.01677    51.892931   -888.12384    1858.6166   -4419.3277    2.1522849    14.998503   0.19160593 
    5300   -941.91179     49.95376   -891.95803    1789.1625   -9202.6769    2.1410238    14.424454   0.16295915 
    5400   -945.11102    49.378476   -895.73254    1768.5579     8419.842    2.1891105    12.347839    0.1829051 
    5500   -937.51269     52.71602   -884.79667    1888.0966    1401.1397    2.1532886    11.010624   0.18025052 
    5600   -939.43129    49.721865   -889.70942    1780.8569   -5921.4599    2.1423743    13.514388   0.16544625 
    5700   -943.80959    50.102301   -893.70729    1794.4827    3513.8028    2.1735116    12.004776   0.17497581 
    5800   -942.95203     56.67018   -886.28185    2029.7203    4533.5122    2.1690991    12.995356   0.16197831 
    5900   -938.86937    52.689253   -886.18011     1887.138   -6806.8106    2.1336061    15.162554    0.1781657 
    6000   -942.99002    49.606095   -893.38392    1776.7104   -3511.5577    2.1575997    12.340228   0.17053048 
    6100   -941.47739    52.462261   -889.01513    1879.0079    9683.3253    2.1862974    12.506782    0.1895415 
    6200    -937.1025    52.273599    -884.8289    1872.2507   -5769.9742    2.1418169    12.094432   0.20870272 
    6300   -942.52388    47.098377   -895.42551    1686.8931    -6708.526    2.1521689    14.080214   0.17486847 
    6400   -942.31617    51.267632   -891.04854    1836.2206    5881.9874    2.1816556     14.18314   0.16825129 
    6500   -936.56561     50.90663   -885.65898    1823.2909    938.06024     2.154768    10.931796   0.18223519 
    6600    -937.0553    46.354553   -890.70074     1660.252   -10704.185    2.1295531    12.385826    0.1789177 
    6700   -941.11003    47.277781   -893.83225    1693.3186    7975.8548    2.1824432    13.550261   0.19346926 
    6800   -940.41692    55.215174   -885.20175    1977.6073    11903.605    2.1869599    13.874861   0.18131029 
    6900   -938.36674    48.184516   -890.18222    1725.7946    -15813.97    2.1182308    14.589305   0.17870899 
    7000   -941.13943    44.861269   -896.27816     1606.768   -3168.0972     2.158253    13.090771   0.17723135 
    7100    -939.9644    50.122517   -889.84189    1795.2068    21074.934    2.2065198    13.423942   0.17675412 
    7200   -942.85603    55.399413   -887.45661    1984.2061   -8881.5934    2.1418532    11.841292   0.18581935 
    7300   -943.14617     49.17784   -893.96833    1761.3719   -10341.633    2.1475258    15.665393   0.20745669 
    7400   -940.64622    48.140769   -892.50545    1724.2278    8205.0924    2.1829559    13.977379   0.18399555 
    7500    -936.0424    51.293695    -884.7487    1837.1541    2349.3541    2.1564214    11.164763    0.1864393 
    7600   -942.96724    49.755628   -893.21161    1782.0662   -7858.2894    2.1531836    12.020192    0.1651821 
    7700   -942.76827    51.051092   -891.71718     1828.465    1028.9752    2.1688609    12.715557   0.16902663 
    7800   -936.15453     53.36456   -882.78997     1911.325     4463.695    2.1610622    13.221956   0.18671114 
    7900   -940.63004    48.688236    -891.9418    1743.8361   -641.64688    2.1585129    12.018289   0.17834296 
    8000   -942.20204    49.981194   -892.22085    1790.1451   -1656.6195    2.1588402    10.650089   0.17485846 
    8100   -937.84328    55.005671    -882.8376    1970.1037    2848.2344    2.1593609    12.522975   0.18064819 
    8200   -941.38961    50.074249   -891.31536     1793.478    2418.6116     2.169677    11.616109   0.16957706 
    8300   -938.71503    45.382473   -893.33255    1625.4356   -2110.5096    2.1525127     12.82102   0.18237579 
    8400   -936.48135    51.759227   -884.72212    1853.8278    1677.0589    2.1581187    14.397301   0.16366206 
    8500   -944.34395    52.526673   -891.81727    1881.3149    5129.8027    2.1837092    14.152955   0.19824999 
    8600   -940.06444    45.630101   -894.43433    1634.3047   -5441.0217    2.1485195    11.795825   0.16699215 
    8700   -939.45619    51.936105   -887.52009    1860.1629   -1847.7301    2.1566501    11.950462   0.17144567 
    8800   -939.32499    49.083094    -890.2419    1757.9784    14480.592    2.1967273    12.925436    0.1786883 
    8900   -942.04294    44.888603   -897.15433     1607.747   -4513.8003    2.1607631    12.827933   0.18437733 
    9000   -938.40459    48.678246   -889.72635    1743.4782   -9888.1527    2.1339881    15.259723   0.19806453 
    9100    -941.4155    55.493909   -885.92159    1987.5906    12289.523    2.1908107    15.417275   0.18588509 
    9200   -942.18618    47.237698   -894.94848    1691.8831    1525.4333    2.1761303    15.160307   0.17967887 
    9300   -937.69878    48.896009   -888.80277    1751.2777   -11734.308    2.1294768      13.7351   0.17729405 
    9400   -936.48692    51.478499   -885.00842    1843.7731    2253.0744    2.1597435    12.972562   0.18429665 
    9500   -942.79646    50.866859    -891.9296    1821.8664      4855.68    2.1761242      13.1494    0.1734349 
    9600    -939.1471    47.326529   -891.82057    1695.0646   -2245.3106    2.1534064    11.406181   0.17940359 
    9700   -934.15531    51.314166   -882.84114    1837.8873   -2859.7227    2.1404102    12.420056   0.19504096 
    9800   -941.86472    50.090827   -891.77389    1794.0718    5612.7064    2.1781251    13.010531   0.18118799 
    9900   -938.97268    46.562882    -892.4098    1667.7136   -325.85324    2.1598352    12.346372   0.17651345 
   10000   -938.11156    53.766529   -884.34503    1925.7221   -5916.4465    2.1380716    13.831655   0.17038825 
   10100   -943.33819    49.967107   -893.37108    1789.6406    4817.7549    2.1800506    12.251341    0.1826668 
   10200    -941.3357    48.325814   -893.00988    1730.8554   -1614.1539    2.1642286     11.04954   0.19972274 
   10300    -937.7852    50.898156   -886.88704    1822.9874   -3392.5775    2.1473647    13.342309   0.19331702 
   10400   -942.64806    49.476135   -893.17193    1772.0557     4399.142    2.1752194    12.094291    0.1648286 
   10500   -943.32894    48.771752   -894.55719    1746.8273    3321.7205    2.1744079    13.487955   0.15603034 
   10600   -936.53238    48.814797   -887.71758     1748.369   -5908.0093     2.140646    13.193322   0.17149454 
   10700   -940.40385    49.930766   -890.47309     1788.339   -888.46132    2.1605009    15.818346   0.17593985 
   10800    -945.3295    50.023888   -895.30561    1791.6743    9718.5942    2.1961777    14.073361   0.17484849 
   10900   -936.26924    50.587388   -885.68185    1811.8568   -7046.2026    2.1339802    14.396204   0.20130158 
   11000   -936.69297    48.632348   -888.06062    1741.8343   -5757.3433    2.1354897    21.073904   0.20238216 
   11100   -942.90764    51.031175   -891.87647    1827.7516    10091.171    2.1951332    12.803893   0.18460713 
   11200   -937.72417    53.438874    -884.2853    1913.9867    1752.8385    2.1520049    26.158354   0.19217297 
   11300   -935.96205    50.570384   -885.39166    1811.2478   -10575.238     2.121676    26.458933   0.20776804 
   11400     -941.099     49.64567   -891.45333    1778.1279    4450.0929     2.170851    32.789693   0.19339826 
   11500   -938.53081    48.992372   -889.53844    1754.7291    9636.9456    2.1768745    18.470556   0.19828157 
   11600   -934.72594    52.256549   -882.46939    1871.6401   -9537.9439    2.1216759    17.317619   0.19768765 
   11700   -940.88017    47.861986   -893.01818    1714.2428   -851.47011     2.162984    11.965769   0.19687936 
   11800   -939.63082    49.416006   -890.21482    1769.9021     5918.514     2.173848     28.59582   0.21339201 
   11900   -939.60238    54.838852   -884.76352    1964.1288   -5966.1459    2.1418656    33.863248   0.20947489 
   12000   -935.32685     51.04032   -884.28653    1828.0792   -3136.4075    2.1419509    30.849085   0.20654289 
   12100    -937.8141    45.669027   -892.14507    1635.6989    10189.256    2.1863172     28.56863   0.20964367 
   12200   -938.76027    50.774871    -887.9854    1818.5718    133.01423     2.163189    33.034293   0.21027879 
   12300   -937.10914    50.704031   -886.40511    1816.0345   -7540.5511    2.1343886    27.549291   0.20803815 
   12400   -942.49257    46.401908   -896.09066    1661.9481    6252.6089    2.1830218    28.557217   0.17706722 
   12500    -943.6726    54.367673   -889.30492    1947.2529    602.68646    2.1674625    29.272227   0.18213704 
   12600   -938.52474    50.628175   -887.89656    1813.3176   -3819.1257    2.1453736    25.558308   0.17314098 
   12700    -941.6814    44.629661   -897.05174    1598.4726    2749.6113    2.1718445    27.904257   0.17257914 
   12800   -937.49738    47.040095   -890.45728    1684.8056    3413.6832    2.1653971    30.250826   0.17609373 
   12900    -940.7382    53.205341   -887.53286    1905.6224   -227.86498    2.1568902    30.050904   0.16320587 
   13000   -943.91096    49.206085   -894.70488    1762.3835   -2733.9289    2.1619869    27.337482   0.18607277 
   13100   -942.56577    50.581651   -891.98412    1811.6513   -652.82246    2.1679445    26.251295    0.1845278 
   13200   -936.15608    50.293894   -885.86218    1801.3449    1101.0111    2.1566613    28.871509   0.18206101 
   13300   -938.16998      45.5751   -892.59488    1632.3348   -3756.4531    2.1552831    25.631665   0.17570909 
   13400    -943.6252    52.716568   -890.90863    1888.1163    1032.7548    2.1715413    30.706607   0.17976545 
   13500   -936.13504    53.566599   -882.56844    1918.5613   -1050.7657    2.1534769    28.505773   0.19048354 
   13600   -939.33082    47.294836   -892.03598    1693.9295    -1517.249    2.1593101    28.899398   0.20690726 
   13700   -942.70425    51.723615   -890.98064    1852.5523    475.17763    2.1691404    31.484673   0.20138559 
   13800   -937.82834    56.017215   -881.81113    2006.3335    2579.5283     2.160004    29.716558   0.18471527 
   13900   -939.85016    49.544683   -890.30548    1774.5109   -2680.9901    2.1571973    28.274002   0.16990201 
   14000   -941.08078    48.552773   -892.52801    1738.9842   -4241.1623    2.1560461    29.094239   0.18767899 
   14100   -940.24721    55.212352   -885.03486    1977.5062    6961.9852    2.1782081    30.605433    0.1728188 
   14200    -940.5508    49.213564   -891.33724    1762.6514    919.43338    2.1652084    30.034088   0.18660266 
   14300    -945.3235    49.703396    -895.6201    1780.1954   -12625.638    2.1431082    27.821999   0.18580452 
   14400   -939.52008    51.546293   -887.97378    1846.2013    6670.7911    2.1772761    29.157159   0.18522363 
   14500   -937.64394    48.184278   -889.45967    1725.7861    7834.8455    2.1787086    28.855186    0.1959938 
   14600   -943.35642    44.760925   -898.59549     1603.174    -10011.13    2.1458895    30.349114   0.19320316 
   14700   -943.01762    51.921729   -891.09589     1859.648   -2554.7602    2.1617364    29.189462   0.18258166 
   14800   -938.63483    52.060666   -886.57416    1864.6242    10607.558    2.1855203    26.733776   0.20036236 
   14900   -944.04986      49.0602   -894.98966    1757.1584   -7394.0073    2.1536026    27.610332    0.1711861 
   15000   -941.87432     50.30333   -891.57099    1801.6828   -4549.2505     2.153407    23.116576   0.17641481 
   15100   -937.50667     53.04314   -884.46353    1899.8129    4790.1878    2.1651864    28.316733   0.17805676 
   15200   -941.97085     50.75305    -891.2178    1817.7902   -1326.5048    2.1578633    30.133374   0.18834872 
   15300   -939.47768    46.560137   -892.91755    1667.6153   -311.01927    2.1595919    29.832958   0.19953109 
   15400   -936.34511    54.387245   -881.95786    1947.9539    702.72384    2.1467366    28.773026   0.18703343 
   15500   -941.61408    52.507219   -889.10687    1880.6182    4865.5774    2.1672863    26.056607   0.17365533 
   15600   -941.26537    48.327321   -892.93805    1730.9094   -1636.0679    2.1560866    29.205142   0.16931877 
   15700   -936.45737      51.5272   -884.93017    1845.5174   -846.19755     2.146417     27.41445    0.1616609 
   15800   -942.73009    55.881127   -886.84896    2001.4593   -1002.4959    2.1622738    28.808134   0.18758919 
   15900   -940.84265    47.970396   -892.87226    1718.1256   -251.83878    2.1631256    31.249019   0.18474747 
   16000   -938.10787    49.625168   -888.48271    1777.3935   -180.82268    2.1548266    32.271027   0.18473521 
   16100    -933.8132    50.284704    -883.5285    1801.0158    2416.8538    2.1542761    29.780759   0.22343686 
   16200   -941.83556    47.147283   -894.68828    1688.6447    3602.5552     2.173471    29.452157    0.2004587 
   16300   -938.92525    47.327223   -891.59802    1695.0895   -8619.2387    2.1375146    30.369248   0.20699936 
   16400    -938.3326    50.883854   -887.44875    1822.4751    2913.3448    2.1657225     27.50254   0.21222482 
   16500   -943.19246    47.878864    -895.3136    1714.8473     8554.628    2.1928978    27.589576   0.18028816 
   16600   -941.46997    45.282041   -896.18793    1621.8385   -8693.4787    2.1427128    31.184612    0.1777244 
   16700    -941.9185    52.536844   -889.38166    1881.6792   -4738.7539    2.1495208    31.248898   0.16468652 
   16800   -939.45501     50.35179   -889.10322    1803.4185    7938.0064    2.1800635    29.088901   0.19017048 
   16900   -941.41882    44.390762   -897.02806    1589.9161   -1493.5175    2.1598317    29.354548   0.19172652 
   17000   -944.28928     53.13367   -891.15561    1903.0554   -6790.8669    2.1467625    28.547083   0.18484882 
   17100   -937.31917    50.241674   -887.07749    1799.4746    11054.189    2.1767174    27.720137   0.19124978 
   17200   -939.78563    47.908568   -891.87706    1715.9112   -3012.0777    2.1525958    30.149797   0.19424931 
   17300   -942.29322    51.662324   -890.63089    1850.3571   -5948.6341    2.1460329    27.565174   0.16528588 
   17400   -935.51993     54.31266   -881.20727    1945.2825    4855.5806    2.1564631    27.442097   0.17805028 
   17500   -942.11849    53.009514   -889.10898    1898.6086    3640.6038    2.1692868    26.915203   0.17375375 
   17600   -941.22415    48.737646    -892.4865    1745.6057   -6057.4991    2.1456832    30.896621   0.18172623 
   17700   -932.56665    47.912782   -884.65387    1716.0621    3274.7137    2.1532741     26.53324   0.19746502 
   17800   -939.30011     54.14162   -885.15849    1939.1565    7864.3064    2.1785481    26.624669   0.18917309 
   17900     -939.428    47.343758   -892.08424    1695.6817    -8862.576    2.1379759     27.28233   0.17392249 
   18000   -942.86799    52.202397    -890.6656    1869.7006   -4215.3128    2.1515625    29.843307   0.17227321 
   18100   -938.84154    55.158947   -883.68259    1975.5935    14511.138    2.1942795    27.659002    0.1930364 
   18200    -939.0685    50.494522   -888.57397    1808.5306   -8704.7486    2.1369832    27.253667   0.17942671 
   18300   -944.10843    49.292778   -894.81565    1765.4886    -10399.82    2.1417951     27.76765   0.15730378 
   18400   -939.76039    52.447891    -887.3125    1878.4933    13173.562    2.1904353    25.650976    0.1625971 
   18500   -940.70687    50.475505   -890.23137    1807.8495   -171.82595    2.1621284    28.242922   0.15326491 
   18600   -941.44912    42.086166   -899.36296    1507.3738   -4884.6907    2.1567104    30.551784   0.18923452 
   18700   -940.12563    49.263962   -890.86167    1764.4565     1653.227    2.1706639     26.76584   0.19191847 
   18800   -939.72994    51.750912   -887.97903      1853.53    5279.7693    2.1695662    27.931084   0.17255553 
   18900   -943.42727     48.34974   -895.07753    1731.7123   -4657.7044    2.1516177    28.224597   0.16579349 
   19000   -945.02638    50.731536   -894.29485    1817.0196   -472.66666    2.1689793    27.611919   0.15742642 
   19100   -939.13421     52.44337   -886.69084    1878.3313    2048.8874    2.1676584    29.936178   0.17651319 
   19200   -939.02408    47.022638   -892.00144    1684.1803   -2517.7077    2.1522469    32.432355    0.2018496 
   19300   -942.56502      48.8824   -893.68262    1750.7903   -370.00047    2.1634091    29.736127   0.16844981 
   19400   -934.25977     51.45777     -882.802    1843.0307    3486.0607     2.155257    29.343868   0.18344795 
   19500   -941.54255    52.519203   -889.02335    1881.0474     -770.071    2.1618724    25.640232   0.19510471 
   19600   -942.77526    49.394525   -893.38074    1769.1328   -6343.3499    2.1503702    25.823201   0.18811129 
   19700   -941.67783    56.678197   -884.99963    2030.0075    872.23507    2.1634965    28.645555   0.19221624 
   19800    -939.9072    53.765249   -886.14196    1925.6762    4293.1271     2.172574    30.725239    0.1884353 
   19900   -940.85735    47.277728   -893.57962    1693.3167   -11838.486    2.1348189    31.161651   0.18257018 
   20000   -940.86235    51.406495   -889.45585    1841.1942    1552.1926    2.1678734    30.492682   0.16524011 
   20100   -938.94843    54.611171   -884.33725    1955.9741    10632.982     2.185066    31.265777   0.18728245 
   20200   -940.72853    52.243036   -888.48549    1871.1561   -12058.295    2.1283492    28.573017   0.16022277 
   20300    -944.7893    50.532529   -894.25677    1809.8919   -3541.9686    2.1606472    29.508654   0.16532025 
   20400   -939.61831    51.669465   -887.94885    1850.6128     11108.56    2.1923131    31.553971   0.20075744 
   20500    -938.0283    47.908161   -890.12014    1715.8966   -4598.5157    2.1490169     26.56365   0.19874457 
   20600   -944.39869    44.626648   -899.77204    1598.3647   -4041.1236    2.1612819    30.655008   0.17844838 
   20700   -943.36461    51.988171   -891.37644    1862.0277    4162.2732    2.1772084    27.931059    0.1817476 
   20800   -940.08941    51.543175   -888.54623    1846.0896    1734.1636    2.1656787    26.306228   0.18489808 
   20900   -938.06424    48.819972   -889.24426    1748.5543   -4986.8833     2.142363    19.784265   0.20434555 
   21000   -950.15754    50.119916   -900.03763    1795.1136    -1411.131    2.1760004    24.218073   0.16487862 
   21100    -942.2777     49.16467   -893.11303    1760.9002    1051.3171    2.1709076    26.586729   0.17673582 
   21200   -937.83841    48.932539   -888.90587    1752.5861    722.27398    2.1489407     22.84479   0.19681823 
   21300   -940.26623      51.9055   -888.36073    1859.0668   -1180.8451    2.1557959    22.087533   0.22137459 
   21400   -943.77099    45.946943   -897.82404    1645.6529    5263.9388    2.1801967    20.218033   0.19497184 
   21500   -939.58466     50.07739   -889.50727    1793.5905   -5195.1311    2.1396567    21.023136   0.19030516 
   21600   -937.76336    49.757769    -888.0056    1782.1428    2080.2448    2.1544611    18.926129    0.2013514 
   21700   -938.98937    47.528036   -891.46134    1702.2819    10813.041    2.1850609    21.688317   0.21234143 
   21800   -944.68297    45.466499   -899.21647    1628.4451   -6760.6274    2.1539977    22.764365   0.20527367 
   21900   -942.16766    53.104545   -889.06312    1902.0122    -10737.69    2.1357771    15.626925    0.2030552 
   22000   -942.06474    55.152125   -886.91261    1975.3491    12309.916    2.1935877    43.668675   0.20616881 
   22100   -942.75026    48.715247   -894.03501    1744.8035    -2698.053    2.1605738    43.631939   0.19287927 
   22200     -939.173    52.313744   -886.85926    1873.6886   -11453.513    2.1271245    45.688317   0.20598896 
   22300   -937.39751    53.001581   -884.39593    1898.3244    8528.0831     2.172334    47.183344   0.19303913 
   22400   -940.32867    49.388167   -890.94051     1768.905    5082.3347    2.1716198    46.321123   0.18167816 
   22500   -938.31831    46.842356   -891.47596    1677.7233   -7107.4283    2.1423262    45.140322   0.18819892 
   22600   -933.89442    52.535236   -881.35918    1881.6216    1583.3682    2.1492577    44.645343   0.20972312 
   22700   -943.35068    53.545018   -889.80567    1917.7884    6971.0707    2.1827996    43.924979   0.19325671 
   22800   -942.50334    49.773876   -892.72946    1782.7197   -6834.2873     2.146269      48.3087   0.19173554 
   22900   -938.07521      51.8177   -886.25751    1855.9221   -2812.7187    2.1476378    45.057221   0.19790409 
   23000   -941.55328    50.213888   -891.33939    1798.4794    5313.7897    2.1763098    46.899533   0.16687699 
   23100   -941.66836    46.656625   -895.01173    1671.0711    1263.0022    2.1667893     44.38501   0.15503228 
   23200   -942.30806    53.068922   -889.23913    1900.7363   -1373.7275    2.1543894    47.486387    0.1598992 
   23300   -937.88636     51.00457   -886.88179    1826.7987    2364.8022    2.1593058    43.977926   0.16584642 
   23400   -943.90506    46.421106   -897.48396    1662.6357    3957.3003    2.1804052    47.477197   0.17536938 
   23500   -940.48148    49.580923   -890.90056    1775.8089   -3011.7907    2.1484264    47.919356   0.18781586 
   23600   -937.39375    49.962953    -887.4308    1789.4918    3084.1611    2.1591883    44.394257   0.17562578 
   23700   -946.71317    51.398644   -895.31452     1840.913   -1792.5684    2.1695845    42.342882   0.16878101 
   23800   -940.78987    48.687959   -892.10191    1743.8261   -409.31575    2.1592874    40.188674   0.16225835 
   23900   -936.70642    49.803635   -886.90279    1783.7856    -1210.333     2.149376    42.586263   0.16858905 
   24000   -939.59102    46.968016     -892.623     1682.224    1553.9247    2.1651108    40.657038   0.16405015 
   24100   -942.15622    47.214707   -894.94152    1691.0596    951.87315    2.1674061    44.841572   0.15755297 
   24200    -934.3675    49.543684   -884.82382    1774.4751   -1360.6802     2.139346    46.370849   0.17927255 
   24300   -939.24563    48.656503   -890.58913    1742.6995    2212.9063    2.1678098    39.660122   0.19518884 
   24400   -940.63136    47.193725   -893.43764    1690.3081    2711.8573    2.1700261    43.572686   0.18107789 
   24500   -934.92765    51.690861   -883.23679    1851.3792   -3145.2325    2.1409275     47.72206    0.1996283 
   24600   -937.83329    47.865952   -889.96734    1714.3848    5214.5956    2.1675451    44.215695   0.17125966 
   24700   -941.77844    49.138351   -892.64009    1759.9575    1638.2241    2.1703771    46.348717   0.17241592 
   24800   -940.03937    54.772827   -885.26655     1961.764   -5845.4884    2.1460554    45.286437    0.1809605 
   24900   -936.97091     49.20543   -887.76548      1762.36   -269.19431    2.1553241    42.892872   0.18083645 
   25000   -938.95822    45.664805   -893.29342    1635.5477    4731.7113    2.1796014    47.535201   0.21058099 
   25100   -938.72792    50.909196   -887.81872    1823.3828    636.64456    2.1582648     45.55902   0.19277069 
   25200   -941.19223    53.876206   -887.31602    1929.6503   -10133.715    2.1332052    48.108083   0.20261508 
   25300   -946.23968    49.728005   -896.51167    1781.0768    5656.7093    2.1887328    48.018154    0.1887693 
   25400   -942.77965    54.484198   -888.29545    1951.4264    2262.1554    2.1712477    49.407647   0.19094111 
   25500   -939.77234    49.851062   -889.92128    1785.4843   -10326.331     2.130171    49.343094   0.19596199 
   25600   -946.25073    49.111974   -897.13876    1759.0128    -262.3299     2.173723    43.299373   0.18184592 
   25700     -942.255    49.908343   -892.34665    1787.5358    11081.005     2.190217    47.298879   0.18117195 
   25800   -935.51463    47.516562   -887.99807    1701.8709   -1532.8584    2.1387311    45.021447   0.19141526 
   25900   -943.96166    51.180574   -892.78109    1833.1026   -8565.7542    2.1434542    49.273705   0.17997779 
   26000     -942.016     48.96869   -893.04731    1753.8809    9285.2754    2.1916791    46.792915   0.18260262 
   26100   -935.29071    51.322798   -883.96791    1838.1965    -2962.346    2.1406118    41.775616   0.18806658 
   26200   -939.42755    47.145535   -892.28201    1688.5821   -4498.7382    2.1484221    42.735425   0.18420802 
   26300   -943.33771    52.243551   -891.09415    1871.1745     4368.757    2.1787674    47.789267   0.19279481 
   26400    -937.2588    55.006177   -882.25262    1970.1218    1912.8129    2.1527201    42.752937   0.18808181 
   26500   -938.87465    48.038941   -890.83571    1720.5807   -2259.3948     2.149275    44.351569   0.18099626 
   26600   -941.72977    49.516111   -892.21366    1773.4875    -775.6079    2.1625966    47.202962   0.17445024 
   26700   -938.30027    53.418608   -884.88167    1913.2608    4165.9005     2.168224     41.50635   0.19986011 
   26800   -938.78405    50.203263   -888.58079    1798.0988   -5282.0256    2.1459163    44.740092   0.20478711 
   26900    -946.0119    51.544929   -894.46697    1846.1524   -3563.7805    2.1642912    42.914941   0.17458026 
   27000   -943.39014    56.601881   -886.78826    2027.2741    3220.4584    2.1697278    45.279244   0.17959062 
   27100    -940.2302     50.12783   -890.10237    1795.3971   -1470.3829    2.1549541    45.199978   0.19327014 
   27200   -944.88386    48.290443   -896.59341    1729.5885   -878.80994    2.1720246    47.713773   0.18472335 
   27300   -939.19428    52.154453   -887.03983    1867.9834   -401.09339     2.158628    41.827852   0.19646762 
   27400   -938.94227     49.27032   -889.67195    1764.6842    265.24641    2.1598805    44.894465   0.18399318 
   27500   -940.84163    44.473186   -896.36845    1592.8682    2275.8882    2.1751264    47.582309   0.16770764 
   27600   -934.83868    48.496449   -886.34224    1736.9669     889.6113    2.1507071    43.217538    0.2107351 
   27700   -938.85648    49.661774   -889.19471    1778.7046     3255.372    2.1688558    49.086522   0.17759281 
   27800   -943.82475    49.042612   -894.78214    1756.5285   -2170.8891    2.1666808    48.211536   0.16954446 
   27900   -935.66155     50.57178   -885.08977    1811.2977    690.56646    2.1505005    44.930357   0.18047694 
   28000   -940.27937    51.377583   -888.90178    1840.1587    2213.5199    2.1714754    44.666387   0.17241276 
   28100   -945.00305    51.116614   -893.88643    1830.8117   -3520.0211    2.1652162    47.643875   0.18378757 
   28200   -937.33463    51.246592   -886.08804    1835.4671   -3645.2915    2.1473296    47.829141   0.20527531 
   28300   -941.67172    53.576059   -888.09567    1918.9001    2667.6116    2.1701199    44.415265   0.19108019 
   28400   -945.19245    51.055419   -894.13703      1828.62    703.42164    2.1721222    50.286826   0.17507991 
   28500   -939.19904    50.987017   -888.21203    1826.1701   -4254.1161    2.1460358    47.214726   0.17141012 
   28600   -939.13119    53.509455   -885.62174    1916.5146    281.20231    2.1568312    47.257112   0.18739302 
   28700   -943.09401    48.193862   -894.90015    1726.1293     8622.858    2.1891658     48.46816   0.17306688 
   28800   -940.63663     51.37136   -889.26527    1839.9358   -7266.4974    2.1446618    47.221394   0.19062561 
   28900    -941.7111    54.461416   -887.24968    1950.6104   -6699.2912    2.1441883    41.431097   0.19071631 
   29000   -947.38843     52.09261   -895.29582    1865.7684    8608.4337    2.1959826    45.628859   0.18068716 
   29100   -941.12204    52.087955   -889.03408    1865.6016    -2929.084    2.1536612    46.076985   0.19448349 
   29200   -941.22108    53.472263   -887.74882    1915.1826   -10028.396    2.1367981    49.999756   0.17669052 
   29300   -944.01922    50.570251   -893.44897     1811.243    5756.0682     2.183955    46.968187   0.17582952 
   29400   -942.84583    48.316447   -894.52938    1730.5199    6094.5533    2.1832759    49.892041   0.18193803 
   29500   -934.64337    48.237565   -886.40581    1727.6946   -9876.6281    2.1204048    46.686952   0.17329165 
   29600   -940.72461    48.099907    -892.6247    1722.7642    4001.5838     2.168527    44.683109   0.18133667 
   29700    -945.4118    52.653425   -892.75838    1885.8547    7439.9613     2.192067    45.716744   0.18149117 
   29800   -933.78347    48.289601   -885.49387    1729.5584   -5966.2043    2.1317762    40.822646   0.19856489 
   29900   -937.53374    47.104219   -890.42952    1687.1023   -4931.9441    2.1463906    42.980793   0.21093178 
   30000   -943.42227      50.5154   -892.90687    1809.2784    8709.6547    2.1864329    45.395057   0.16851145 
   30100   -941.26575    55.255218   -886.01054    1979.0415   -2160.6721    2.1554497    45.773785   0.18081106 
   30200   -938.66066    50.091327   -888.56934    1794.0897   -6321.1266    2.1450799    44.785376   0.18910209 
   30300   -941.07727    46.751714   -894.32555    1674.4768    3491.8228    2.1775081    45.174337    0.1797498 
   30400   -936.38387    50.268083   -886.11579    1800.4204    3434.6229    2.1610928    50.334901   0.19274311 
   30500   -939.55152    50.009983   -889.54154    1791.1762   -4384.0808    2.1490804    40.494029    0.1925387 
   30600   -942.62721    47.054371   -895.57284    1685.3169    1098.0597    2.1702182    41.694284   0.19551912 
   30700   -937.94474    51.862337    -886.0824    1857.5208    5000.6494      2.16214     44.52897   0.19318966 
   30800     -940.938    51.414508    -889.5235    1841.4812   -1278.3322    2.1553929    45.188271   0.16878402 
   30900   -943.85452    47.619277   -896.23524    1705.5498   -947.74555     2.166665    47.537647   0.17983358 
   31000   -938.80171    52.093381   -886.70833     1865.796    2242.7945    2.1651915    47.149536   0.20181933 
   31100   -937.74521    48.960126   -888.78509    1753.5742    913.19814    2.1591324    47.010527   0.19123123 
   31200    -945.6857    49.091158   -896.59454    1758.2672   -7650.9478    2.1541676    50.675972    0.1751888 
   31300   -944.22236    56.339989   -887.88237    2017.8941     916.9786     2.167285    44.196896   0.18261006 
   31400   -943.26444    56.464318   -886.80013    2022.3471    4475.3233    2.1711931    45.749004   0.18039885 
   31500   -942.39836    46.589732   -895.80863    1668.6752   -8566.4596    2.1428091    47.987581   0.18283944 
   31600    -939.5442    49.937874   -889.60632    1788.5936    -189.1703     2.158746    46.889346   0.18551103 
   31700   -937.54337    53.848732   -883.69464    1928.6663    12882.469    2.1846584    47.917727   0.18701393 
   31800   -942.64835    48.899045   -893.74931    1751.3865   -5759.8038    2.1497993    46.339738   0.17048275 
   31900   -937.28667    45.693475    -891.5932    1636.5746    -6328.985    2.1402423    46.861315   0.19336941 
   32000   -939.44292    55.965065   -883.47786    2004.4657    5753.9346    2.1766969    45.512726   0.19227536 
   32100   -942.40799     50.64547   -891.76252    1813.9371   -1818.4173    2.1624894    47.193997   0.19197852 
   32200    -940.5981    46.777911   -893.82019    1675.4151   -7894.4367    2.1432258    45.374415    0.1843354 
   32300   -937.40517    53.629153   -883.77601    1920.8018    2000.8686    2.1565459    46.138461   0.20351658 
   32400   -941.76849    51.914004   -889.85449    1859.3713    5473.4863    2.1760655    42.937196   0.19192704 
   32500   -941.45014    46.980175   -894.46996    1682.6595   -4666.2292    2.1522632    39.317566   0.18901163 
   32600   -938.87481    53.242789   -885.63203    1906.9636   -1053.9212    2.1486686    46.220652   0.18680664 
   32700   -935.83777    45.338633   -890.49914    1623.8654    7370.0507    2.1704218    44.398282   0.19035064 
   32800   -943.84674    48.742559   -895.10419    1745.7817    -1723.201    2.1630236    44.059649      0.19191 
   32900   -938.77045    52.544007   -886.22645    1881.9358   -1876.1389    2.1498136     41.69095   0.18587418 
   33000   -938.96157    49.428283   -889.53328    1770.3418    2852.9026     2.164511    43.746372   0.18095763 
   33100   -945.26591    49.985992   -895.27992     1790.317    627.30978    2.1717932    43.566984   0.17969278 
   33200   -936.27781    49.853687   -886.42412    1785.5783    308.90001    2.1480173    44.632187   0.16858556 
   33300   -940.98678    51.688908   -889.29787    1851.3092    1113.3799    2.1619795    48.744379   0.17309571 
   33400   -945.01326    49.738901   -895.27435     1781.467     2298.921    2.1736985    45.133524   0.16360386 
   33500   -940.86462    54.480671   -886.38395    1951.3001   -4062.6014    2.1449705    43.221455   0.15860649 
   33600   -942.85259    53.686797   -889.16579    1922.8664   -2356.2399    2.1589315    44.032922   0.17600315 
   33700   -944.33411     49.59551    -894.7386    1776.3313    3978.4479    2.1766387    45.850853   0.16985022 
   33800   -939.46283    53.725944   -885.73688    1924.2685   -4006.2328    2.1456025     45.17262   0.17776376 
   33900   -936.93053    47.217238   -889.71329    1691.1502    491.94519    2.1515467    47.371765   0.18134297 
   34000   -943.40265    49.568773   -893.83388    1775.3737    4779.8888    2.1806355    47.037759    0.1710955 
   34100   -937.03308    52.761874    -884.2712     1889.739   -150.46396    2.1511724    46.560166    0.1834378 
   34200   -938.61708    49.239371   -889.37771    1763.5757    -5040.921    2.1486199    46.385126   0.18856569 
   34300   -941.07745    47.547016   -893.53044    1702.9617    3659.4856     2.173147    47.379327   0.17531353 
   34400   -938.23089    53.288644   -884.94225     1908.606    2877.9884    2.1655885    45.874132   0.19411334 
   34500   -938.49409    50.113076   -888.38101    1794.8686   -5676.5274    2.1488636    49.761921    0.1986869 
   34600   -942.56766    48.003481   -894.56418    1719.3106   -3021.2309    2.1642997    49.943949   0.18508358 
   34700   -937.80656    51.530466    -886.2761    1845.6344    6975.8689    2.1757844    48.904201   0.17743187 
   34800   -936.80756    47.872465    -888.9351    1714.6181   -867.10924    2.1531739     45.09731    0.1823235 
   34900   -944.51823    48.111984   -896.40625    1723.1968   -5745.6389    2.1558607    45.851942   0.16476872 
   35000   -943.56606    55.699513   -887.86655    1994.9546    2693.6891    2.1768221    48.221269   0.16876308 
   35100   -943.13994    54.603866   -888.53607    1955.7125    2239.3305    2.1712548    42.563385   0.18954646 
   35200   -947.11447    49.502948   -897.61152    1773.0161   -10038.109    2.1492941    41.786285   0.16646219 
   35300   -941.65683    51.617564   -890.03927     1848.754    17.880809    2.1650321    44.154063   0.17039248 
   35400    -940.9093    54.939937   -885.96937    1967.7493    9621.6658    2.1831258    42.840826   0.19638034 
   35500   -944.05897    48.894854   -895.16411    1751.2364    -6816.776     2.151391    42.209049   0.16821677 
   35600   -938.51875    47.797427   -890.72132    1711.9305   -6719.5783    2.1421622    43.137887   0.20277764 
   35700   -936.39719    52.022514   -884.37468    1863.2578    11826.041    2.1854342    46.520549   0.21132044 
   35800   -937.31429    45.232092    -892.0822    1620.0495    2400.7161    2.1674237    44.551809   0.19416953 
   35900   -939.39479    47.234406   -892.16039    1691.7651     -8605.22    2.1414201    45.283359   0.20500329 
   36000   -932.51601    49.603543   -882.91247     1776.619    5368.8391    2.1628643    40.241968     0.195444 
   36100   -939.54919    49.465108   -890.08408    1771.6608    5105.1993    2.1764779    44.267158   0.18503542 
   36200   -943.67406    49.752635   -893.92143     1781.959    -6023.742     2.157976    49.949171    0.1973579 
   36300   -937.63092    53.602239   -884.02868    1919.8378    -2118.648    2.1509449    46.340735   0.18470986 
   36400   -937.64678    47.599639   -890.04714    1704.8464     6054.984    2.1741757    43.362617   0.19891988 
   36500   -942.33247    48.422076   -893.91039    1734.3032   -3660.3372    2.1622222     49.21895   0.18782427 
   36600   -933.51139    47.801789    -885.7096    1712.0867    723.79024    2.1526953    48.191458   0.19912613 
   36700   -941.09292    50.750076   -890.34285    1817.6837    3938.7802    2.1692938    45.721019   0.19156387 
   36800   -944.77301    50.186531   -894.58648    1797.4996    -1837.498    2.1673755    46.283563   0.20020967 
   36900   -941.27196    53.899392   -887.37257    1930.4808   -5162.2553    2.1502364     42.93099   0.20328428 
   37000   -941.29276    51.873249   -889.41951    1857.9116    631.57291    2.1658895    45.701252   0.20216789 
   37100   -942.46783    46.710771   -895.75706    1673.0104    4257.0259    2.1758001    45.142595   0.18818621 
   37200   -937.68749    50.186403   -887.50108     1797.495   -1847.6459    2.1473799    41.637335   0.19954767 
   37300   -939.57047    50.161947   -889.40852     1796.619   -237.80655    2.1557882     44.31381   0.18275532 
   37400   -941.06252    45.513242   -895.54928    1630.1193    8687.7831    2.1846458    45.212118    0.1809331 
   37500   -939.30179    53.585261   -885.71653    1919.2297   -4476.0448    2.1465382     43.38836   0.18291772 
   37600   -938.56102    49.006216    -889.5548    1755.2249   -2586.3548    2.1495861    42.679126   0.17922598 
   37700    -947.3287    53.984776   -893.34392    1933.5389    4933.8001    2.1862294    43.624284   0.19495961 
   37800   -938.45107    55.100204   -883.35086    1973.4895   -498.28449    2.1469545    45.276656   0.17446067 
   37900   -938.20404    50.787907   -887.41614    1819.0386   -5067.3563    2.1391476    43.515093   0.18958219 
   38000   -941.95407    49.602607   -892.35146    1776.5855    4400.1648    2.1749272    45.349814   0.19596243 
   38100   -938.95618    49.214629   -889.74155    1762.6895    6504.1624    2.1775353     47.32724   0.17789088 
   38200    -937.2323    53.534646   -883.69766    1917.4169   -14419.469    2.1191758    45.909646   0.20907106 
   38300   -944.60244    50.561478   -894.04096    1810.9288    411.39935    2.1705572    43.481672   0.17134398 
   38400   -942.51212     52.50915   -890.00297    1880.6873    11020.362    2.1934831    42.484924   0.18575105 
   38500    -939.9063    52.429553   -887.47675    1877.8365   -10461.885    2.1369241    42.243609   0.19616391 
   38600    -941.7014     52.95072   -888.75068    1896.5028   -9022.1775    2.1394555    44.711785   0.18773414 
   38700   -947.04834    52.146619   -894.90172    1867.7028    13037.957    2.2049187    43.191626   0.17036321 
   38800   -939.98654     51.05681   -888.92973    1828.6698   -1132.7151    2.1586778    43.630968    0.1804036 
   38900   -939.56698     50.31786   -889.24912    1802.2033   -7489.1787    2.1395106    46.290438   0.19353116 
   39000    -942.1968    45.086404    -897.1104    1614.8315     6952.157    2.1842688     49.43473   0.19891701 
   39100   -938.83336    50.171957    -888.6614    1796.9775     4166.112    2.1671259    43.177929   0.17177355 
   39200   -938.98264    50.423394   -888.55925    1805.9831   -3552.1023    2.1504909    48.962976    0.1963291 
   39300   -940.81588    47.006697   -893.80918    1683.6094    1105.1656    2.1624188    45.836628   0.18377562 
   39400   -944.61343    50.099839   -894.51359    1794.3945       4109.1     2.181363    49.079637   0.18751152 
   39500   -937.49848    52.075706   -885.42277     1865.163   -4332.8913     2.141168    43.541415    0.1881586 
   39600   -940.35294    48.701625   -891.65131    1744.3156   -5035.0022    2.1517055    47.861938   0.19006907 
   39700   -941.82201    50.686583   -891.13543    1815.4096    5778.8676    2.1785466    82.607668   0.20209033 
   39800    -934.2336     52.61626   -881.61734    1884.5236   -3184.3405    2.1378746    79.213497   0.22230345 
   39900    -940.0764     49.52959   -890.54681    1773.9703   -6106.1051    2.1441686    77.521142   0.20836715 
   40000   -940.44834      50.1558   -890.29254    1796.3989    6969.1044    2.1817385    78.981284    0.2099719 
   40100   -937.72428    54.120561   -883.60372    1938.4022    2802.6222    2.1564639    80.895493   0.21417936 
   40200   -935.88835    50.934986   -884.95336    1824.3065   -14105.971    2.1108273    75.143141   0.22025897 
   40300   -941.48991    49.248396   -892.24151    1763.8989    5314.1202     2.176412    72.479962   0.20390621 
   40400   -940.83897    54.472135   -886.36683    1950.9943    16087.511    2.1973308    75.512761   0.18918203 
   40500   -938.27824    50.913792   -887.36445    1823.5474   -14164.507    2.1173105     92.44682   0.17200494 
   40600   -945.86421     48.35782   -897.50639    1732.0017   -5746.7675    2.1599014    92.553517   0.18398661 
   40700   -940.53235    51.154315   -889.37803     1832.162     10539.89    2.1884357    91.748029   0.17997065 
   40800   -937.96829    49.489425   -888.47887    1772.5317   -2750.2956    2.1471957    87.533087   0.20057502 
   40900   -939.54842    49.161287   -890.38713     1760.779   -4092.8348     2.148051    86.809276   0.19668734 
   41000   -950.96599    52.623171   -898.34282    1884.7711    4652.9093    2.1923277    85.329554   0.18336053 
   41100   -937.38344    49.446411   -887.93702    1770.9911   -1641.7331    2.1468917    74.650177   0.19461501 
   41200   -938.13699    49.650742   -888.48625    1778.3095   -4054.8735    2.1454134     88.77485   0.18833133 
   41300   -936.33505      46.4092   -889.92585    1662.2092    8687.4199    2.1769781     85.67971   0.19487901 
   41400   -948.69844     48.47075   -900.22769    1736.0465   -1408.1095    2.1742268     87.66317   0.18812609 
   41500   -936.77393    44.663884   -892.11004    1599.6983   -7574.6043    2.1376092    90.328216   0.19377072 
   41600   -937.75646    49.366265   -888.39019    1768.1206    6670.3738    2.1746166      101.367   0.18498315 
   41700    -936.1379    49.346057   -886.79184    1767.3968     5771.328    2.1652292    104.25803   0.19581013 
   41800   -933.13755    45.489159   -887.64839    1629.2567   -7538.1153     2.129825     109.2989    0.2153262 
   41900   -944.20855      48.0974   -896.11115    1722.6744    4769.6049    2.1804083    117.65578    0.1866352 
   42000   -938.34836    49.818323   -888.53004    1784.3117    6656.1777    2.1711837    169.61961    0.1976847 
   42100   -935.34389    46.946182   -888.39771     1681.442   -5457.6451    2.1378431    170.21725   0.19719841 
   42200   -940.85503    48.872283   -891.98275    1750.4279   -3626.0381     2.156045    173.00537   0.20340332 
   42300   -943.21084    45.808511   -897.40233    1640.6947    5733.0079    2.1836054    130.24976   0.21050499 
   42400   -936.82131     48.10363   -888.71768    1722.8976   -2027.6929    2.1511341    138.75011   0.20330731 
   42500   -937.57464    49.129151   -888.44549     1759.628   -1370.4732    2.1517202    145.56622   0.19335781 
   42600   -942.70994    46.270053   -896.43989    1657.2255    2283.5811     2.176583    148.26873   0.17927801 
   42700   -936.48862    46.054306   -890.43431    1649.4982    1354.1029    2.1600289    127.66896   0.18564768 
   42800   -938.86892    52.035362   -886.83356     1863.718    -2224.002    2.1492045    172.48005   0.19972797 
   42900   -940.08658    49.369743   -890.71684    1768.2451   -57.636018    2.1603091    104.62479   0.18962756 
   43000   -943.06864    48.513528   -894.55511    1737.5786    4977.1557    2.1766684    107.21429    0.1803197 
   43100   -938.57343    55.598534    -882.9749    1991.3379   -5561.9874    2.1367864    96.152105   0.17109779 
   43200    -937.7582    50.775957   -886.98224    1818.6106    227.27074    2.1582296    132.52921   0.20505047 
   43300   -936.66095    46.700475   -889.96048    1672.6417    9016.0181    2.1789706    147.82525   0.20093667 
   43400   -938.54048    49.247471   -889.29301    1763.8658   -6851.6563    2.1439137    172.44565   0.19135617 
   43500   -935.61699    54.231772   -881.38522    1942.3854   -10570.338    2.1214353    169.75541    0.1978991 
   43600   -938.77066    50.414366   -888.35629    1805.6598    15824.473    2.1995106    181.83666    0.1894758 
   43700   -937.30192    47.121517    -890.1804    1687.7219    2772.2431    2.1617107    185.30494   0.17829157 
   43800   -933.31603    47.990811   -885.32522    1718.8568   -10759.558    2.1193967    188.28667   0.20774337 
   43900   -940.41284    52.521354   -887.89149    1881.1244    7032.9135    2.1814208    191.69649    0.1780116 
   44000   -939.83059    45.957348   -893.87324    1646.0255    7766.9339     2.185569    196.34294   0.19098454 
   44100   -940.35449    50.405029   -889.94947    1805.3253   -11339.844    2.1376954    136.06375   0.21041665 
   44200   -942.05194    55.358683   -886.69325    1982.7473    -2858.455    2.1594596    151.64463   0.21315082 
   44300   -946.88616     51.42675    -895.4594    1841.9197    5171.2918    2.1890648    134.86853   0.20272634 
   44400   -943.64081     52.17412   -891.46669    1868.6878   -4399.7726    2.1589034    137.14505   0.18685073 
   44500   -936.90521      50.3764   -886.52881       1804.3   -5082.7816    2.1450274    151.49041   0.18279827 
   44600    -939.5488    48.879883   -890.66892    1750.7001    999.82324    2.1659817    156.07426   0.21282634 
   44700    -944.8191    49.306483   -895.51262    1765.9794    3967.1247    2.1817875    146.60028    0.1866023 
   44800   -934.98956    50.336227   -884.65333    1802.8611   -3808.8999    2.1427744    141.36027   0.20992614 
   44900   -937.05775    48.821591   -888.23616    1748.6123    1507.8362    2.1604927    139.74912    0.1976977 
   45000   -943.09732    50.662346   -892.43498    1814.5415    2801.5699    2.1723949    149.24986   0.19971115 
   45100   -934.88946    51.559486   -883.32997    1846.6738   -3478.3246    2.1409043    138.00647   0.20741326 
   45200   -935.11599    49.838434   -885.27756     1785.032    2308.4672    2.1553027    125.99832   0.22928073 
   45300   -939.10196    48.812414   -890.28954    1748.2837    5185.6836    2.1744603    134.72727   0.20326435 
   45400   -937.87153    50.133185   -887.73834    1795.5889    1396.1454    2.1558293    135.19527    0.2171806 
   45500   -934.24342    53.793036   -880.45038    1926.6715   -11267.172    2.1224938    119.69966   0.22223168 
   45600   -940.78857    50.221551   -890.56701    1798.7538     8956.121    2.1862384    127.01778   0.21054744 
   45700   -939.49836    50.179425   -889.31893     1797.245    2901.0959    2.1690041    140.02331   0.21059424 
   45800   -940.32791    54.184369   -886.14354    1940.6876   -15566.652    2.1203348    149.12466   0.18877929 
   45900   -946.25999    50.760178   -895.49981    1818.0455    603.14009    2.1699569    145.88844   0.18809003 
   46000    -941.2737    47.700071   -893.57363    1708.4435     7888.737    2.1825836    130.46954   0.19513084 
   46100    -934.8498    46.309406   -888.54039     1658.635   -1671.7181    2.1448133    123.17664    0.2218269 
   46200   -939.22953    52.857356   -886.37218    1893.1588   -1076.9737    2.1479701      130.844    0.1779432 
   46300    -951.0683    54.797363   -896.27094    1962.6428    5015.1936    2.1925549    121.45015   0.15272661 
   46400   -937.54333    47.706414   -889.83691    1708.6707   -3443.5416    2.1445351    121.66563   0.17749376 
   46500   -942.26992    54.028073   -888.24185    1935.0897   -7861.7077    2.1433389    128.18183   0.16712257 
   46600    -943.2098    49.749315   -893.46049    1781.8401    8255.5598    2.1873956    125.93653   0.16957155 
   46700   -941.28139    44.851505   -896.42988    1606.4182     1483.576    2.1707366    123.56936   0.18295834 
   46800   -934.80286    47.542933   -887.25992    1702.8154   -14040.148    2.1176773    130.41455   0.20111536 
   46900   -945.03456     54.96556     -890.069     1968.667    5812.4764    2.1864986    119.85709   0.17777988 
   47000   -944.56934    51.579985   -892.98936     1847.408    11367.037    2.1972661    119.11952   0.18390911 
   47100   -936.22524    51.706508   -884.51874    1851.9396   -17369.354    2.1090576    128.53082    0.1758913 
   47200   -940.39083    52.726111   -887.66472    1888.4581   -2822.1493    2.1574439    119.42884   0.18460685 
   47300   -942.10718     50.87091   -891.23627    1822.0115    7218.7356    2.1886545    124.07934   0.18326166 
   47400   -940.85876    51.066006   -889.79275    1828.9991   -3779.3872    2.1506435    122.36874   0.17554713 
   47500   -937.87376     56.26083   -881.61293    2015.0589   -6301.0688    2.1380548    122.27347   0.19565814 
   47600   -942.33394    50.114386   -892.21956    1794.9156    8167.9008    2.1843768    123.85603     0.171912 
   47700   -942.20414    50.611414   -891.59272    1812.7173   -3891.7375    2.1532936    130.69896   0.17861066 
   47800   -939.35541    53.686351   -885.66906    1922.8504   -4981.3554    2.1421527    129.67997   0.17947084 
   47900   -943.57669    48.133641   -895.44305    1723.9725    6200.8598    2.1846269    121.39136   0.17529928 
   48000   -942.90778    49.538848   -893.36893    1774.3019   -2790.7129    2.1593415     124.6439   0.17572219 
   48100    -939.0928     50.69872   -888.39408    1815.8443   -4169.6831    2.1457368    126.94979   0.17760797 
   48200   -942.75721    52.652023   -890.10518    1885.8045    -175.1473    2.1679625    126.22246   0.18162678 
   48300   -943.74631    46.432499   -897.31381    1663.0437    7146.3824    2.1855418    119.16382   0.17592345 
   48400   -940.14052    51.180189   -888.96033    1833.0888   -8954.9708    2.1377919     122.8861   0.19096062 
   48500   -938.76437    49.456544   -889.30782    1771.3541   -1282.3558     2.155448    126.04248   0.20193127 
   48600   -946.35322    51.336184   -895.01704    1838.6759    10147.322    2.1985145    116.57372   0.17551934 
   48700   -937.50138    51.425149   -886.07623    1841.8624   -7309.2202    2.1376484    125.48273    0.2088847 
   48800   -934.78978    47.290151   -887.49963    1693.7617   -3557.0393     2.140775    124.35856   0.19238703 
   48900   -939.15959    48.546215   -890.61337    1738.7494    12394.901    2.1933913    125.62845   0.18722499 
   49000   -940.70722    45.460215   -895.24701      1628.22    512.03824    2.1683234    120.78242   0.20180997 
   49100   -934.05164    49.922852   -884.12879    1788.0555   -13332.842    2.1114216    122.87056      0.18887 
   49200   -944.31626    55.247814   -889.06844    1978.7763    7936.4967     2.191656    128.02343   0.18060307 
   49300   -941.67863    50.101401   -891.57723    1794.4505    5247.1613    2.1774411     112.0021   0.20529675 
   49400   -937.36388    50.658435   -886.70545    1814.4014   -7921.7845    2.1325669    114.19509   0.20223747 
   49500   -937.05071    51.654641   -885.39607    1850.0819   -1266.5718     2.153636    118.68619   0.20809143 
   49600   -943.41768    49.969958   -893.44773    1789.7427    7864.0877    2.1854451    116.80755   0.17771373 
   49700   -939.66628    50.829403   -888.83688    1820.5249    -2252.421    2.1513087     127.9992    0.1801044 
   49800   -935.16882    49.560555   -885.60827    1775.0794   -3129.7575    2.1388783    118.26573   0.17891222 
   49900   -942.79894    47.271658   -895.52728    1693.0994     7791.252    2.1861147    131.83939   0.18528068 
   50000   -940.90434    52.187208   -888.71714    1869.1565    137.75807    2.1536535    131.36496   0.16925468 
   50100   -937.72838     49.58496   -888.14342    1775.9535   -6382.2907    2.1419771    128.36598   0.19684032 
   50200   -942.33563    46.142005   -896.19363    1652.6393    6854.9192    2.1801421    125.13388   0.17473191 
   50300   -941.19363    50.892615   -890.30102    1822.7889    4013.6531    2.1669387    124.72203    0.1756991 
   50400   -938.90549    51.412743   -887.49274     1841.418   -4077.6222    2.1425757    128.07479   0.17308118 
   50500   -944.66346    51.204566   -893.45889    1833.9619   -1879.3678    2.1597977    122.24878   0.15280109 
   50600   -945.17006    49.512089   -895.65797    1773.3435    3971.7265    2.1808272      131.267   0.15819149 
   50700   -935.97698    50.037177   -885.93981    1792.1502   -5461.1478    2.1384598    127.22374   0.16919393 
   50800   -942.03524     50.76076   -891.27448    1818.0663    -3633.111    2.1530057    129.06893    0.1754304 
   50900   -943.59916    50.833175   -892.76598      1820.66    11752.519    2.1947697    123.20513   0.17700147 
   51000   -935.12636    53.506156    -881.6202    1916.3965   -7063.2186    2.1300015    119.66834   0.18299349 
   51100   -936.19832    47.401449   -888.79687     1697.748    -8946.207    2.1313467    133.26833   0.19552112 
   51200   -942.17182    51.882324    -890.2895    1858.2367    13486.605    2.1947169    126.09605   0.16307334 
   51300   -942.07205     48.87752   -893.19453    1750.6155    341.98592    2.1650643    129.43748   0.15426137 
   51400   -933.89621    51.856109   -882.04011    1857.2978   -14945.132    2.1099691    127.38033   0.19226342 
   51500   -941.07718    50.566126   -890.51106    1811.0953    7700.7653    2.1849123    126.25834   0.17220476 
   51600    -945.5959    53.935811   -891.66009    1931.7851     52.67223    2.1729537      127.505   0.17470706 
   51700    -941.7386     53.08289   -888.65571    1901.2366   -11425.057    2.1355425     123.2989   0.18353263 
   51800   -933.99541    53.744282   -880.25112    1924.9253    1889.2201    2.1518114    118.56563   0.18621494 
   51900    -942.3842    51.223878   -891.16032    1834.6536    6088.7168    2.1804713    124.79496   0.18037052 
   52000    -940.6831    48.934804   -891.74829    1752.6672   -9181.8106    2.1397838    121.38581   0.18641185 
   52100   -935.93353    48.642546   -887.29098    1742.1996    949.02039    2.1573944    138.64136   0.19285887 
   52200   -933.60244    53.656312   -879.94613    1921.7745    6001.3465    2.1604525     129.6582     0.206415 
   52300   -934.35735    47.074416   -887.28293    1686.0349   -6074.5763    2.1400032    133.11002   0.20295626 
   52400   -941.11447    50.601485   -890.51299    1812.3617    -6963.332    2.1484075    177.76192   0.20102893 
   52500    -942.3556    55.084012   -887.27159    1972.9095     3784.397    2.1806636    154.18497   0.21131015 
   52600   -942.47094    50.575309   -891.89563    1811.4242   -3273.0003    2.1627767    165.07395   0.18895558 
   52700    -943.0551    45.767654   -897.28745    1639.2314   -3114.9925    2.1638836    162.21079   0.18585118 
   52800   -936.14922    47.305239   -888.84398    1694.3021    5052.3383    2.1681561    161.62357   0.20861539 
   52900   -939.43553    51.572924    -887.8626    1847.1551    1246.5621    2.1670887    168.39855   0.20751275 
   53000   -945.15304    48.801444    -896.3516    1747.8907   -5229.5476    2.1604453    163.63719   0.20042711 
   53100   -940.39971    47.689173   -892.71054    1708.0532     2725.462    2.1668022    166.42409   0.19880596 
   53200   -937.71073    51.256693   -886.45404    1835.8288    2010.3584    2.1652342    179.12283   0.22115518 
   53300   -941.20475    50.989881   -890.21487    1826.2726   -6362.9341     2.149492    153.69408   0.21214076 
   53400   -943.77205    49.376658   -894.39539    1768.4928    -188.1198    2.1658327    178.35606   0.18279881 
   53500   -945.64709    44.785223   -900.86187    1604.0443    6169.9071    2.1903073    159.29473    0.1913567 
   53600   -939.44874    50.096724   -889.35201     1794.283   -5672.0085    2.1456476    171.50201   0.19080894 
   53700   -936.27563    48.144708   -888.13092    1724.3688    483.67542    2.1558252    151.15329   0.20398514 
   53800   -937.68351     50.38155   -887.30196    1804.4844    2197.5106    2.1591167    145.38254   0.21350354 
   53900   -946.02293    49.295383   -896.72754    1765.5819   -5581.0515    2.1648287    155.43535   0.19201703 
   54000   -943.87706    50.714911   -893.16214    1816.4242   -7970.3461    2.1451125    150.44374   0.19604433 
   54100   -935.75843    49.176175   -886.58226    1761.3122    20238.685    2.1979359    147.08724   0.20268669 
   54200   -935.96657    47.076321   -888.89025    1686.1031   -2511.7109    2.1480674    154.52666   0.18374016 
   54300     -935.549    51.770734   -883.77827    1854.2399   -20796.467    2.1023507    145.39846   0.20177714 
   54400   -932.25922    57.038195   -875.22103    2042.9013     10474.57    2.1695197    149.48674   0.21492222 
   54500   -937.37211    52.486922   -884.88519    1879.8912    9478.4412    2.1776388    160.73664   0.20533742 
   54600   -937.55778    48.427808   -889.12997    1734.5085   -12465.751     2.126894    147.55375   0.20976778 
   54700   -938.79491    50.976999   -887.81791    1825.8112    493.18965    2.1614073    146.01234   0.20248506 
   54800   -934.48756    55.604732   -878.88282    1991.5599    12770.989     2.175604    144.21042   0.19825386 
   54900   -934.82404    51.859688   -882.96435    1857.4259   -8739.7378    2.1288245    150.57892   0.20095826 
   55000   -940.04983    50.150734    -889.8991    1796.2174   -7954.7498    2.1461261    155.63015   0.20998287 
   55100   -937.61608    49.943924   -887.67216    1788.8102    11348.122    2.1896248    155.06093   0.22418836 
   55200   -932.72504    50.637104   -882.08793    1813.6374    31.486446    2.1466394    142.80645   0.20830231 
   55300   -931.61458    49.805245   -881.80933    1783.8432   -11379.013    2.1181136    165.44639   0.20079858 
   55400   -937.77538    49.026733   -888.74864    1755.9598    8469.2471    2.1772524    145.52134   0.20018385 
   55500   -941.53695    53.108574   -888.42838    1902.1565    5434.5011    2.1763946    146.81788   0.18724988 
   55600    -930.9855    49.134362   -881.85113    1759.8147   -7174.6239    2.1299562    154.77001   0.20654111 
   55700   -935.89315    53.713825   -882.17933    1923.8344   -1526.7882    2.1473192    154.88027   0.19732881 
   55800   -940.01805    50.822558   -889.19549    1820.2797    6805.4836    2.1796954    134.67544   0.17186727 
   55900   -940.04768    51.680594   -888.36708    1851.0115   -3249.7211    2.1536966    146.63755   0.17466395 
   56000   -940.11063    52.744629     -887.366    1889.1213   -6065.2487    2.1428827     149.4001   0.16940478 
   56100   -945.90032    47.579105   -898.32122     1704.111    7543.6669    2.1899142    154.90534   0.17027959 
   56200   -940.74752    49.130418    -891.6171    1759.6734   -984.00223    2.1583269    149.99323   0.18326721 
   56300   -935.55997    47.499165    -888.0608    1701.2478   -1208.6081     2.148922    151.29413    0.2073917 
   56400   -940.24763    52.956038    -887.2916    1896.6932     1705.115    2.1634404    153.66638    0.1973299 
   56500   -945.76453    48.167572   -897.59695    1725.1878    1849.5828    2.1747389    149.94283    0.1702732 
   56600   -940.61507    49.955096   -890.65997    1789.2104   -11484.379    2.1372611    143.86961   0.17984993 
   56700   -939.48566    52.315241   -887.17042    1873.7422    3883.7073    2.1739373    150.03231    0.1953866 
   56800   -940.67945    50.776229   -889.90322    1818.6204     6942.621     2.176538    152.49769   0.18479398 
   56900   -943.73202    44.579967   -899.15205    1596.6927   -14974.915    2.1331781    141.11792   0.22465482 
   57000    -938.2384    47.326711   -890.91169    1695.0712    819.84524      2.16132    149.72569   0.19310196 
   57100   -941.21755    55.852191   -885.36536    2000.4229    14106.285    2.1934028    153.42004   0.18738662 
   57200   -938.07433    46.717759   -891.35657    1673.2607   -8881.9136    2.1342024    144.38651    0.1972113 
   57300   -937.20439    47.437795    -889.7666    1699.0498    -3587.845    2.1446981     151.8553   0.18302474 
   57400   -938.33371    57.218724   -881.11498    2049.3672    5633.7187    2.1665097    152.55093   0.18513407 
   57500   -938.72172    51.285987   -887.43573    1836.8781   -2296.0843    2.1505111    142.46038   0.20229549 
   57600   -937.85874    46.727147   -891.13159     1673.597   -5078.5608    2.1493084    146.78001   0.20034902 
   57700   -938.67975    54.494052   -884.18569    1951.7793    6464.5192    2.1708421    147.49531   0.20972922 
   57800   -936.60665    53.644695   -882.96195    1921.3584    954.60234    2.1544139    148.41183   0.20904981 
   57900   -940.80825    49.355823   -891.45243    1767.7466   -10431.694    2.1389398    146.12037   0.18895187 
   58000   -937.94867    50.216511   -887.73216    1798.5733    4716.5461    2.1632291     157.9792   0.20343949 
   58100    -931.8783    52.196353   -879.68194    1869.4841    8650.3063    2.1648598    157.06159   0.20914884 
   58200   -937.25579      47.5575   -889.69829    1703.3372   -2153.3784    2.1526334    138.55754   0.20455854 
   58300   -937.72594    46.914945   -890.81099    1680.3232   -7247.6974    2.1406031    153.55564   0.19462063 
   58400   -936.29453    52.996225    -883.2983    1898.1326    8004.1566     2.170614    176.91881    0.2169978 
   58500   -940.53117    51.205769    -889.3254    1834.0049    172.03504    2.1588279    168.36754   0.18328409 
   58600   -939.39076    46.158583   -893.23218    1653.2331   -4203.5156    2.1477946    186.18862   0.18735884 
   58700   -932.11281    46.141314   -885.97149    1652.6145    8191.3205     2.159403    186.69669   0.19698256 
   58800     -938.896    49.123749   -889.77225    1759.4345    1764.8784    2.1571559    195.91558   0.17099374 
   58900   -945.77708    49.745969   -896.03111    1781.7202   -1140.0298    2.1665846    176.82144   0.16313107 
   59000   -938.29908    51.372842   -886.92624    1839.9889   -744.66678     2.148505    191.69111   0.19578286 
   59100   -937.56834    49.361562   -888.20678    1767.9521    4295.8303    2.1618647    220.08834   0.18248216 
   59200   -945.82553    49.182179   -896.64335    1761.5273    223.98603    2.1708921    221.75066   0.17567266 
   59300   -937.71274     49.62271   -888.09003    1777.3055   -2972.2271    2.1464463    235.50058   0.17665498 
   59400    -936.2411    48.747893   -887.49321    1745.9727    6258.3017    2.1655073    230.79321   0.17378835 
   59500   -945.13405    51.056596   -894.07745    1828.6621   -1824.5056    2.1641974    232.44554   0.16889059 
   59600   -939.11964     52.47998   -886.63966    1879.6426    -4666.218    2.1418426    234.68504   0.18102693 
   59700   -938.16365    52.510797   -885.65285    1880.7463    1090.8705    2.1586377    229.48705   0.18793949 
   59800   -940.08928     47.69655   -892.39273    1708.3175    2272.6178    2.1641647    226.56857   0.18733287 
   59900   -939.47953    50.497908   -888.98162    1808.6519   -3998.9235      2.14697    229.50068   0.17709597 
   60000   -938.24212    55.621023   -882.62109    1992.1433   -3374.9489    2.1427474    228.94354   0.18463665 
   60100   -940.81249     48.52675   -892.28574    1738.0522    8278.2147    2.1777621    240.78952   0.17476716 
   60200   -937.36271    46.441664   -890.92104     1663.372   -1993.5709    2.1498337    228.38855   0.18382288 
   60300   -936.55333    51.757695   -884.79563    1853.7729   -6744.3416    2.1302822    233.88711   0.17534643 
   60400   -946.31106     51.07016    -895.2409    1829.1479    9980.1873    2.1947764    240.38062   0.17015301 
   60500    -939.4038    47.341385   -892.06242    1695.5967   -2963.6492    2.1560571    194.85995   0.19202593 
   60600   -938.66255    50.057898   -888.60466    1792.8924   -8697.9603    2.1288665    199.32149    0.2220544 
   60700   -938.40983    51.149207   -887.26062    1831.9791    8163.9479    2.1745153    222.40026   0.20605819 
   60800    -942.1354    45.556981   -896.57842    1631.6859    8758.4078    2.1836818    196.30833    0.1766774 
   60900   -939.69622    51.029566   -888.66666     1827.694   -11932.415    2.1246142    210.59946   0.18644907 
   61000   -938.54677    51.390832   -887.15594    1840.6332    1643.4818    2.1597485    200.96773   0.19127584 
   61100   -942.53132    49.464991   -893.06633    1771.6566    7450.6652    2.1828224    210.22946   0.19505745 
   61200   -939.91655    51.503925   -888.41263    1844.6838    -6700.798    2.1411948    216.82213     0.205979 
   61300   -937.97234    53.365404   -884.60694    1911.3553   -6884.0457    2.1402015    217.91578   0.22149077 
   61400   -942.46101    52.611651   -889.84936    1884.3585    2023.9407    2.1729528    218.77232   0.21782282 
   61500   -939.30486    47.280993   -892.02387    1693.4337    3518.0532    2.1697822    218.07539   0.22517892 
   61600   -930.95804    50.429244   -880.52879    1806.1926    -144.5954    2.1389699    197.40017   0.22209178 
   61700   -944.39805    56.763475   -887.63458    2033.0618    934.15807    2.1677293     194.5016   0.16294391 
   61800   -943.49116    52.978618   -890.51254     1897.502   -3652.4734    2.1598088    194.75206   0.19987356 
   61900   -935.62199    53.150613   -882.47137    1903.6622    -2191.271    2.1540322    178.44801   0.21178793 
   62000   -937.41063    51.512365   -885.89827    1844.9861    1913.8316    2.1644378    158.06933   0.19699149 
   62100   -941.47121    49.870127   -891.60108    1786.1671    835.42242    2.1668048    150.91587   0.19626313 
   62200    -936.5001    51.625122   -884.87498    1849.0246    1875.4169    2.1599674    177.61425   0.21454677 
   62300   -937.52813    52.203335    -885.3248    1869.7341   -2381.9081     2.155654    169.24128   0.22620694 
   62400   -944.01862    50.101788   -893.91683    1794.4643   -470.53968    2.1741119    152.04076   0.19036834 
   62500   -938.79042    51.453313   -887.33711    1842.8711   -1658.4549    2.1606994    148.59867   0.17608617 
   62600   -938.09454    52.477566   -885.61697    1879.5561   -4306.9361    2.1453194    173.13421    0.1960532 
   62700   -944.40265    48.912658   -895.48999     1751.874    5684.9959    2.1816948    184.26971   0.20383635 
   62800   -934.30032    46.049655   -888.25066    1649.3316    2977.8965    2.1633167    183.85767   0.21924345 
   62900   -934.11135    46.809189   -887.30216    1676.5354   -9001.8171    2.1315643    177.81883    0.2096246 
   63000    -942.3646    46.788701    -895.5759    1675.8016    5780.8723    2.1755866    177.31975   0.20615646 
   63100   -943.06234    52.997077   -890.06526    1898.1631    9573.3256    2.1907206    176.63399   0.19183592 
   63200   -939.35511    52.400965   -886.95414    1876.8125   -10829.678    2.1297338    175.12705   0.20883327 
   63300   -940.06804    47.016559   -893.05148    1683.9626   -6229.1033    2.1454895    179.33173   0.19676774 
   63400   -939.31077    47.591045   -891.71972    1704.5386    13639.248     2.193108    182.78116   0.18316874 
   63500   -933.27437    50.053945   -883.22042    1792.7508     467.4426    2.1426401    181.89622   0.20142242 
   63600   -936.45771    46.637509    -889.8202    1670.3864   -9134.9833    2.1314704     189.5877   0.21423329 
   63700   -936.62346    46.919577   -889.70388    1680.4891    8487.4422    2.1737412    177.43291   0.20434059 
   63800   -932.38753    52.670043   -879.71748    1886.4499    4703.0701    2.1552603    174.79014   0.21442106 
   63900    -939.7159    53.121202    -886.5947    1902.6088   -5882.0497    2.1419367    162.69854   0.19078639 
   64000   -941.28527    50.685726   -890.59955    1815.3789   -3389.1144    2.1585562    181.65606    0.2112357 
   64100   -936.64404    53.053417   -883.59062     1900.181    4798.7205    2.1609164    168.29367   0.19707378 
   64200   -936.64217    51.222937   -885.41923    1834.6199   -4037.8334     2.140748    153.13971   0.17697942 
   64300   -941.23221    47.990969   -893.24124    1718.8625   -195.89261     2.158838    149.78434   0.17303636 
   64400   -940.65092    51.867483   -888.78344    1857.7051    6205.7105    2.1782147    148.16853   0.16977863 
   64500   -935.19799    48.544856   -886.65313    1738.7007     -3612.38     2.142518    145.92401   0.20014509 
   64600   -943.57797    45.733637   -897.84433     1638.013   -5018.8556    2.1563145    148.95007   0.18702628 
   64700   -941.23438    48.221581    -893.0128    1727.1222    11182.478    2.1877285      154.924   0.17579924 
   64800    -938.0891    49.961216   -888.12788    1789.4296    2381.6321    2.1629059    149.92323   0.18097107 
   64900   -939.63936    49.309956    -890.3294    1766.1038   -14654.994    2.1243812     152.7682   0.18152402 
   65000   -944.30797    46.986405   -897.32157    1682.8826    8504.1261    2.1921872    146.42851   0.17812297 
   65100   -936.47747    49.253682   -887.22378    1764.0883    10682.083    2.1823325    146.71785   0.19608413 
   65200    -938.9487     49.76714   -889.18156    1782.4785   -10152.823    2.1335616    147.79123   0.18495396 
   65300   -940.13497     46.90206   -893.23291    1679.8617   -2052.8304     2.159124    150.51941   0.18058848 
   65400   -940.49789    45.170668   -895.32722    1617.8495    13602.473    2.2005687    151.44988   0.17599831 
   65500   -935.77661    50.340821   -885.43579    1803.0257   -3882.3647    2.1375344     150.9392   0.18423008 
   65600   -942.19438    50.616474    -891.5779    1812.8985   -4844.2347    2.1534904    144.72212   0.18216066 
   65700   -940.18889    47.977223   -892.21167    1718.3702    7377.6319    2.1838238     145.5213   0.19369719 
   65800   -935.38307    53.455427   -881.92765    1914.5795    -1566.749     2.141873    151.40696   0.19582102 
   65900   -939.51055    48.973743   -890.53681    1754.0619   -1613.5666    2.1547427    156.16406   0.18300078 
   66000   -942.33601     50.53812   -891.79789    1810.0922    1999.1613    2.1696595    146.95918   0.17503747 
   66100   -939.37083    55.602243   -883.76859    1991.4707     1536.232    2.1549195    156.12526   0.17617908 
   66200   -935.45173    48.186176   -887.26555    1725.8541   -488.73605    2.1502061    150.99335   0.20266204 
   66300   -941.01853    48.240353   -892.77817    1727.7945   -1019.8535    2.1608744    151.40211   0.19792618 
   66400   -940.92874    53.599012   -887.32973    1919.7222    5026.7223    2.1688493    151.77647   0.17554974 
   66500   -935.72498    50.517944   -885.20704    1809.3696    824.37805    2.1498492    153.71562   0.19043015 
   66600   -943.79077     48.26042   -895.53035    1728.5132   -529.07596    2.1668761    147.28915   0.16493156 
   66700   -938.09546    47.846099   -890.24936    1713.6738    2510.2407    2.1663371    150.09625   0.18571289 
   66800   -938.70249    51.638437   -887.06405    1849.5016   -4165.8442    2.1509573    138.92518   0.20635767 
   66900   -944.52841    48.063843   -896.46457    1721.4725   -5099.1921    2.1573522    150.32835   0.17752098 
   67000   -940.46117    46.903022   -893.55815    1679.8962    5558.3415    2.1741529    145.66126   0.17666617 
   67100   -936.77498    49.936229   -886.83875    1788.5346    4275.1419    2.1673169     148.5882   0.18589213 
   67200   -943.24628    50.493584    -892.7527    1808.4971     -9673.45    2.1425442    149.75216   0.17823623 
   67300   -943.14408    47.745827   -895.39825    1710.0824      705.797    2.1718701    144.37852   0.18147717 
   67400   -936.91787    51.650806   -885.26706    1849.9446    5885.1993    2.1657378    149.14992   0.19925161 
   67500   -942.05753    51.535314   -890.52222     1845.808   -6574.4409    2.1460356    145.05021   0.19688589 
   67600   -946.79913    52.156912   -894.64221    1868.0714    -5278.036    2.1597711    147.66962   0.16701192 
   67700   -936.88858    52.193081    -884.6955    1869.3669    7274.3834    2.1710809    148.96593   0.19142458 
   67800    -939.2056    51.567687   -887.63791    1846.9675   -711.20637     2.153876    158.82801    0.1787259 
   67900   -941.64746    47.248666    -894.3988    1692.2759   -7396.1411    2.1472288    153.89236   0.17197021 
   68000   -939.26298    51.961347   -887.30164     1861.067    7067.2743      2.17425    158.28478   0.19903271 
   68100   -938.64346    52.825371   -885.81809    1892.0132    2512.9822    2.1611473    149.89233    0.1903109 
   68200   -942.35306    47.158166   -895.19489    1689.0345    -7229.059    2.1493766    151.04101   0.18913359 
   68300   -941.28123    51.406897   -889.87433    1841.2086    1066.1891    2.1639363    146.68303   0.19965792 
   68400   -943.96266    59.129203   -884.83345    2117.7936    1497.6033    2.1670892    145.37547   0.18529606 
   68500   -942.52627    47.801334   -894.72494    1712.0704   -4683.4523    2.1528039    144.74895    0.1696344 
   68600   -939.10087      46.3015   -892.79937    1658.3518   -5346.9897    2.1476639    146.39976   0.19707024 
   68700   -937.47597    52.029069    -885.4469    1863.4926     11165.62    2.1825551    151.98894   0.18216731 
   68800   -941.99643    49.005802   -892.99063    1755.2101   -917.52697     2.160478    153.95978   0.16905367 
   68900   -942.68848    46.300541   -896.38794    1658.3175   -14652.301    2.1299652    151.71143   0.18943035 
   69000   -940.59102    53.632041   -886.95898    1920.9052    7377.2422    2.1796544    145.35783    0.1950797 
   69100   -940.48222     51.75804   -888.72418    1853.7853    8903.2056    2.1822684    147.39588   0.18544785 
   69200   -940.79878    45.323736   -895.47504    1623.3319   -10181.621    2.1334274    148.71484   0.17902078 
   69300   -940.52122    53.067037   -887.45418    1900.6688   -677.01683     2.154968    147.41974   0.16976939 
   69400   -940.76048    55.019246   -885.74123    1970.5899    6057.5429    2.1716785    158.20007    0.1715849 
   69500   -944.16413    49.686923   -894.47721    1779.6054   -2964.3464    2.1590155    157.13687   0.16649533 
   69600   -941.45115    52.378685   -889.07247    1876.0146   -2966.5275    2.1499794    153.06468   0.18278076 
   69700   -941.14345    56.650631   -884.49282    2029.0201    2203.0007    2.1618693     143.3298    0.1709162 
   69800   -940.87494    46.494611   -894.38033    1665.2683     5199.052    2.1727275    151.64783   0.18457531 
   69900   -940.46656     50.62831   -889.83825    1813.3225   -7248.6275    2.1424221    145.36024   0.17957358 
   70000   -944.06149    58.607194    -885.4543    2099.0972   -3502.9779    2.1554207    152.06494   0.17101813 
   70100   -943.99492    49.386808   -894.60811    1768.8564    6419.4701     2.186089    145.12114   0.18767305 
   70200   -940.07835      49.5603   -890.51805    1775.0702   -6447.2105    2.1406534    150.47161   0.16963327 
   70300   -940.07371    53.300044   -886.77366    1909.0143   -3094.6996    2.1458386    151.91341    0.1768667 
[...]
  186800   -933.09036    49.841379   -883.24898    1785.1374   -1981.3115    2.1480542    438.49599   0.21720577 
  186900   -936.58791    51.859882   -884.72803    1857.4329    7120.8062     2.174171    434.75525   0.20615418 
  187000    -939.3293    48.418275   -890.91102     1734.167   -3756.2076    2.1522729    426.27806    0.2065591 
  187100   -937.53051    48.694327   -888.83618    1744.0542   -695.70542    2.1549116    445.32298   0.20135897 
  187200   -932.45442    50.158969   -882.29545    1796.5124    11244.874    2.1784327    423.41329   0.19018499 
  187300   -934.00671    49.196829   -884.80989     1762.052   -6324.8477    2.1330322    472.13247   0.19914431 
  187400   -937.72001    45.930645   -891.78937    1645.0691   -1694.3652    2.1526803    464.78668   0.20091797 
  187500   -937.25255    50.131036   -887.12152    1795.5119    14213.484    2.1865878    434.21199   0.19932514 
  187600   -939.81352    50.642566   -889.17095     1813.833   -7104.4266    2.1439532    441.91215   0.19768507 
  187700     -942.495    43.889497    -898.6055    1571.9626   -4877.1337    2.1574758    450.84145   0.18188606 
  187800   -942.88585    52.095941    -890.7899    1865.8877    4819.0265    2.1802256    437.42807   0.20720338 
  187900   -941.34576    53.981127   -887.36463    1933.4082   -2525.6309    2.1559497    426.71342   0.20160866 
  188000   -941.20716    50.603674   -890.60349    1812.4401   -6883.5171    2.1398653      451.538   0.19793162 
  188100   -946.01281     50.51238   -895.50043    1809.1703    7002.5863    2.1882307    450.91107    0.2147419 
  188200   -938.35564    52.558567   -885.79707    1882.4573    3373.4369    2.1654309    443.80778   0.19590059 
  188300   -940.09492    50.533158   -889.56177    1809.9145    -10709.75    2.1379117    468.45614    0.2030197 
  188400   -942.32951    48.250595   -894.07891    1728.1613    1847.5806      2.17185    445.24012   0.19719556 
  188500   -939.85913    50.104229    -889.7549    1794.5518    8245.1571    2.1841679    428.32027   0.19751566 
  188600   -938.72923    53.599912   -885.12932    1919.7545   -8026.1024    2.1408477    427.04411   0.21927526 
  188700   -936.05776    45.418201   -890.63956    1626.7153     223.8349     2.153611    441.22932   0.21836223 
  188800   -938.13793    47.317688   -890.82024     1694.748     5632.933    2.1758789    427.85869   0.21632057 
  188900    -936.7337    56.771299    -879.9624    2033.3421   -2614.3564    2.1428194    458.01153   0.21608719 
  189000   -939.84734    52.131031   -887.71631    1867.1445    1839.4405    2.1569599    512.08747   0.19490857 
  189100   -938.29383    48.007848   -890.28598     1719.467    682.13575    2.1664274    525.79034   0.18232898 
  189200   -935.29241    52.634877   -882.65753    1885.1904   -371.43499    2.1464115     531.5777   0.18306329 
  189300   -936.68366    51.527364   -885.15629    1845.5233    1162.9617    2.1539095     465.4433   0.20452114 
  189400   -942.81774    52.559192   -890.25855    1882.4796   -4961.4829    2.1578134    451.44027   0.20397781 
  189500    -936.5534    49.541895    -887.0115     1774.411     5340.621    2.1690705    472.59552   0.21810833 
  189600   -936.03933    52.264595   -883.77474    1871.9283    -2595.965    2.1505829    427.63121   0.20269137 
  189700   -940.58163    46.459916   -894.12171    1664.0257   -444.17429    2.1634214    433.24508   0.21368377 
  189800   -942.75039    51.134251   -891.61614    1831.4434   -4222.4099    2.1597906    453.31528   0.20515058 
  189900   -941.97645    54.592809   -887.38364    1955.3164    3316.4414    2.1698738    445.65244   0.18241555 
  190000   -936.51623    46.835396   -889.68083     1677.474   -1356.2847    2.1479708    439.18829   0.19440834 
  190100   -943.70823    46.238397   -897.46983    1656.0917    865.79985    2.1733314    431.19691   0.18847527 
  190200   -939.12535    50.238117   -888.88723    1799.3472    4479.2459    2.1651838    370.69882   0.17700342 
  190300     -938.099    49.911343   -888.18766    1787.6433   -4182.9593    2.1441813    373.84096   0.18725623 
  190400   -939.47464     47.78698   -891.68766    1711.5563   -1254.8913    2.1549116    391.57979   0.19610108 
  190500   -943.62607    47.379511   -896.24656    1696.9623    10729.403    2.1959845    375.61555   0.20524312 
  190600   -933.62097    46.447101   -887.17386    1663.5667   -902.42691    2.1468155    389.25477   0.21687793 
  190700   -937.73606    49.144775   -888.59129    1760.1876   -4931.8142    2.1391853    460.19366   0.20743901 
  190800   -948.37515    54.120704   -894.25444    1938.4074    8949.9087    2.1922574    441.98323   0.18754045 
  190900   -941.19949    48.776311   -892.42317    1746.9906    2536.0637    2.1737052    434.18531   0.21247374 
  191000   -937.51388    51.724566   -885.78931    1852.5864   -12297.595    2.1185715    448.93908   0.20172741 
  191100   -942.40494    52.186395   -890.21855    1869.1274    1992.0893    2.1688128    540.14761    0.1687357 
  191200   -940.35493    47.801177   -892.55375    1712.0648     9392.197    2.1894401    528.62974   0.18811044 
  191300    -936.9788    54.645043   -882.33376    1957.1873   -10280.013    2.1277243    480.40967   0.22360251 
  191400    -937.6648    49.971731   -887.69307    1789.8062   -1097.2176      2.15422    445.31168   0.22972638 
  191500   -940.45536     49.95089   -890.50447    1789.0597    7610.4159    2.1760904    438.63348   0.20732395 
  191600   -939.57967    51.470932   -888.10874    1843.5021   -265.52791    2.1594037    452.04429   0.19752886 
  191700   -936.29297    55.222185   -881.07078    1977.8584   -6244.3447     2.130942    425.59674   0.19069076 
  191800    -939.2486    48.610978   -890.63762    1741.0689    6212.9763    2.1730905    440.12186   0.19417069 
  191900   -939.81501    50.217999   -889.59701    1798.6266    1652.0736    2.1663359     435.2592   0.19634332 
  192000   -932.09345    50.238441   -881.85501    1799.3588    1094.3205    2.1419516    451.14635   0.20308582 
  192100   -941.15362    49.447606   -891.70601    1771.0339    3357.8444    2.1664082    414.88371   0.17964787 
  192200   -937.06606    46.224665   -890.84139    1655.5999    74.774243    2.1579841    468.68896   0.20064444 
  192300   -937.00727    50.491853   -886.51542    1808.4351   -2171.9436    2.1553209    438.02787   0.22215047 
  192400   -941.11704    48.338243    -892.7788    1731.3006   -835.90018    2.1660915    439.62789   0.19732413 
  192500   -940.76058    46.506126   -894.25446    1665.6808     265.7307     2.163331    453.98655   0.19122471 
  192600    -937.9698    50.733378   -887.23643    1817.0856    2721.7955     2.162163    434.12877   0.17363734 
  192700     -937.793     47.91927   -889.87373    1716.2945   -1566.4142    2.1506192    533.04271   0.18539983 
  192800   -943.64695    44.808704   -898.83824    1604.8853     1041.048    2.1768304    537.34311   0.18015492 
  192900    -941.8749    52.394346   -889.48055    1876.5754    2003.6647    2.1684297    538.24721   0.16818571 
  193000   -937.61081    48.659411    -888.9514    1742.8036    644.08663    2.1591383    540.88557   0.19938341 
  193100   -939.12286    43.883317   -895.23954    1571.7413   -2263.8142    2.1575205     526.4818   0.17556763 
  193200    -943.1781    48.985909   -894.19219    1754.4976    4862.7432    2.1814175    536.55518   0.18299621 
  193300   -941.14907    54.309122   -886.83995    1945.1558   -1458.1987    2.1615567     540.3918   0.19378111 
  193400    -943.7628    51.608491   -892.15431     1848.429   -11005.288    2.1414044    546.62566   0.18524958 
  193500   -944.34627     52.65399   -891.69228     1885.875    2287.2123    2.1742193    545.41999   0.16522988 
  193600   -937.73462    56.058315    -881.6763    2007.8056    1804.8823     2.159059    525.65894   0.18050723 
  193700   -939.17455    49.493083   -889.68147    1772.6628   -5114.1272    2.1431742     545.6394   0.18768995 
  193800   -941.69807    50.146097   -891.55197    1796.0513    520.45479    2.1667757    534.19602   0.19130928 
  193900   -941.66955    51.785392   -889.88416    1854.7649    6160.7349    2.1743578     545.2432   0.19070051 
  194000   -936.36773    54.557792   -881.80994    1954.0623   -12119.802    2.1192976    554.12825   0.20585005 
  194100   -939.65255    48.165554   -891.48699    1725.1155   -1284.9911    2.1605164    533.87132   0.20128009 
  194200   -940.57998    50.700515   -889.87946    1815.9086    9645.2381    2.1898291    531.70573   0.19738579 
  194300    -937.3527    50.019478   -887.33323    1791.5163   -6451.5495    2.1391093    540.24615   0.19750326 
  194400   -930.49005    50.822944   -879.66711    1820.2936     -7762.22    2.1155972    540.41042   0.19784577 
  194500    -940.0497    49.504967   -890.54473    1773.0884    16125.632    2.2017225    534.19764   0.18973461 
  194600   -943.95142    53.206554   -890.74487    1905.6658   -2606.1338    2.1580343    542.70366   0.16876881 
  194700   -941.34134    53.710967   -887.63037    1923.7321   -10718.773    2.1297695     536.5814   0.16858857 
  194800   -947.36966    48.734468   -898.63519    1745.4919    3390.5027    2.1829927    537.32531   0.16934932 
  194900   -939.58578     46.29143   -893.29435    1657.9911    3245.7753    2.1658116    542.71052   0.19787983 
  195000   -937.39638     48.19285   -889.20353    1726.0931    -3229.244    2.1495435    539.77608    0.1981629 
  195100   -941.27425    50.828088   -890.44616    1820.4778    599.37155    2.1610525    540.18153   0.19074301 
  195200   -947.11041    48.175715    -898.9347    1725.4794    4781.0064    2.1860124    536.77594   0.15311729 
  195300     -937.845    48.495277   -889.34972     1736.925   -5814.5319     2.142265    544.49154   0.18472313 
  195400   -938.36319    48.866582   -889.49661    1750.2238    1689.4971    2.1598384    544.52856   0.17932353 
  195500   -941.77139    47.179803   -894.59158    1689.8094    6040.7672    2.1845079    533.40208   0.18995852 
  195600   -945.20415    46.028738   -899.17541    1648.5825   -5461.8423    2.1615342    541.52651   0.17446315 
  195700   -939.06088    50.843019   -888.21786    1821.0126   -10115.663    2.1301652    535.05646   0.18039842 
  195800   -938.43181    49.179324   -889.25249     1761.425     11201.42    2.1880705    525.19511   0.17106019 
  195900   -941.78475    49.694983   -892.08976    1779.8941    475.18981    2.1674792    543.30397   0.17587992 
  196000   -932.42881    50.477313   -881.95149    1807.9143   -11561.576    2.1148654    539.44993   0.18669442 
  196100   -937.80476    51.411593   -886.39317    1841.3768    5206.1248    2.1736842    537.33973   0.18447231 
  196200   -939.24689    49.027072   -890.21982    1755.9719    3436.9966    2.1694883    534.54829   0.18387943 
  196300   -941.09364    50.044175   -891.04947    1792.4009    -6709.101     2.145441    544.77188   0.18326377 
  196400    -935.0023    52.124681   -882.87762    1866.9171     4031.942    2.1597688    528.30209   0.19797035 
  196500   -936.19568    51.494796   -884.70089    1844.3568    3048.0295    2.1561908    540.97016   0.18638817 
  196600   -941.37164    50.083378   -891.28826     1793.805   -4112.6187    2.1555066    532.16743   0.16421878 
  196700   -939.07858    49.306875    -889.7717    1765.9935    2416.7287    2.1662348    542.56998   0.19085064 
  196800   -938.22498    55.792429   -882.43255    1998.2825     230.4427    2.1563066     555.1026   0.16898452 
  196900    -936.8945    51.969569   -884.92493    1861.3615   -5294.1545    2.1404028    547.97483   0.18606917 
  197000   -942.07941    50.976211    -891.1032     1825.783   -642.11498     2.162187    545.41582   0.17979735 
  197100     -943.209    53.593899    -889.6151    1919.5391    3999.2198    2.1745062    531.66119   0.18100863 
  197200   -942.62087    56.333158   -886.28771    2017.6494      -6498.7    2.1454304     540.6694   0.17384438 
  197300   -935.46362    57.099091   -878.36453    2045.0824   -8663.1526    2.1245814    558.59948   0.18732156 
  197400   -939.77459    50.977577   -888.79702    1825.8319    12958.683    2.1898249     542.4581   0.17380791 
  197500   -939.18597    49.029903   -890.15606    1756.0733   -317.44562    2.1563924    534.81695   0.17276675 
  197600   -939.00139    50.383479   -888.61791    1804.5535   -10320.961    2.1270545    540.50792     0.179082 
  197700   -943.68354    49.478291   -894.20525     1772.133    7029.1168    2.1843793    536.46793   0.17332721 
  197800   -940.90714    44.056149   -896.85099    1577.9315    9822.2238    2.1877974    536.04614   0.17782329 
  197900   -940.96276    48.961496   -892.00126    1753.6232   -8233.3594    2.1454457    552.67211   0.19609653 
  198000   -940.97767    51.893815   -889.08386    1858.6482   -1458.1551    2.1583209    547.63297   0.18112194 
  198100   -940.90458    46.326071   -894.57851    1659.2318    3388.6054    2.1755576    529.63085   0.17975138 
  198200   -942.60564     44.93074    -897.6749    1609.2562    1360.4842    2.1727693    518.95563   0.17931819 
  198300   -939.49148    49.828423   -889.66305    1784.6734   -2758.6726     2.152179    544.18488   0.18743461 
  198400   -938.26036    48.715557   -889.54481    1744.8146    1499.2345    2.1635863    525.31403   0.18775638 
  198500   -942.13553    45.048632    -897.0869    1613.4786    1529.4203    2.1729665    540.68753   0.18904412 
  198600   -941.23658    50.312064   -890.92452    1801.9957    -2060.598    2.1592608    535.33276   0.17404327 
  198700   -938.32802    50.435952   -887.89207    1806.4329   -487.79032    2.1591946    534.36749   0.19565091 
  198800   -941.23529    49.215849   -892.01945    1762.7332   -1038.9103    2.1560942    539.48844   0.19128947 
  198900    -944.5401    51.560523   -892.97958     1846.711   -863.04967    2.1673324    530.05345   0.18193744 
  199000   -939.65681    57.558915    -882.0979    2061.5516   -5655.7729    2.1399965    546.49088   0.19182351 
  199100   -938.25131     49.17166   -889.07965    1761.1505    3408.8843    2.1623741    543.94443    0.1815605 
  199200   -937.37317    45.999053   -891.37412    1647.5192    3365.0257    2.1684321    536.44235   0.17423148 
  199300   -936.64546    50.932099   -885.71336    1824.2031   -2913.0562    2.1433125    543.01336   0.18479321 
  199400   -940.08039    57.038449   -883.04195    2042.9104    -5918.031    2.1455071    539.31379   0.16585443 
  199500   -943.37715    52.635921   -890.74123    1885.2278    3885.9579    2.1720099    536.73141   0.17893993 
  199600   -944.40785    53.947382   -890.46047    1932.1996   -1389.6995    2.1627395     542.6172   0.18619637 
  199700    -934.0747    51.752727   -882.32197     1853.595   -4838.2226    2.1287014    532.03899   0.18174231 
  199800   -937.44778    52.159519   -885.28826    1868.1648    2103.2573    2.1570245     531.5266    0.1877572 
  199900   -942.88608    52.168658   -890.71742    1868.4921    2448.1073    2.1699897    528.94865   0.17228121 
  200000   -942.00046    51.698219   -890.30224    1851.6427   -4222.9288    2.1529775    551.18875   0.18394562 
  200100   -934.80815    49.500714   -885.30744    1772.9361    -875.3157    2.1501802    527.55071   0.17816338 
  200200   -935.72724    58.013112   -877.71413    2077.8193   -264.27393    2.1475246    552.26166   0.19119144 
  200300   -943.77866    54.543008   -889.23565    1953.5327   -192.87941    2.1665721    547.30665   0.16751915 
  200400   -939.69649    49.290753   -890.40574     1765.416   -2942.4445    2.1531642    541.02105   0.19382306 
  200500   -939.85148    49.728742   -890.12274    1781.1032    217.30271    2.1588688    547.63544   0.20385975 
  200600   -931.01583    51.956516   -879.05931     1860.894    6289.7311    2.1565535    539.50409   0.22421781 
  200700   -935.99468    49.677254   -886.31742    1779.2591    2597.7736    2.1615673    552.33468   0.20158292 
  200800    -937.1356    45.964733   -891.17087    1646.2901   -7909.1451    2.1411861     540.9314   0.18576796 
  200900    -935.7263    47.219286   -888.50702    1691.2236     6863.659    2.1667671    529.78145   0.18535355 
  201000   -930.98032    53.694069   -877.28626    1923.1268    6846.0916    2.1589016    535.36607   0.17739072 
  201100   -942.55726    55.145409   -887.41185    1975.1085   -5689.1791    2.1461597    532.33546   0.16908684 
  201200   -941.01622    49.723336   -891.29289    1780.9096   -5133.7809    2.1485022    547.93292   0.18582756 
  201300   -939.58462    50.976996   -888.60762    1825.8111    10075.583    2.1838052    537.85292   0.15969871 
  201400   -937.88615    59.084978   -878.80117    2116.2097   -4647.9195    2.1401577    538.56063   0.18824103 
  201500   -934.29292    46.061738   -888.23119    1649.7644   -6318.6219     2.131525    677.51858    0.1837754 
  201600   -943.83926    53.562263     -890.277     1918.406    787.90066    2.1676302    628.59503   0.18613901 
  201700   -938.67575     53.01863   -885.65712    1898.9351    10141.901     2.177525    614.02401   0.17863708 
  201800   -936.44786    48.514316   -887.93354    1737.6069   -11135.973    2.1227903     638.9721   0.20424733 
  201900    -944.0009     49.44941   -894.55149    1771.0985   -3632.3248    2.1594696    635.21053   0.18943525 
  202000   -937.84017    52.443156   -885.39702    1878.3237    14334.739    2.1862062    618.85652   0.19516336 
  202100   -937.51043    48.267053   -889.24338    1728.7508   -7157.1036    2.1401021    635.77349   0.20017762 
  202200   -946.11855    49.008376   -897.11017    1755.3023   -9088.6608    2.1487084    614.10922   0.16098822 
  202300   -942.44195    51.409498   -891.03246    1841.3018    11178.647    2.1900896    624.32696   0.17783397 
  202400   -936.83612    49.647027   -887.18909    1778.1765     532.0607    2.1583854    614.45726   0.20343817 
  202500   -941.98223    47.429907   -894.55232    1698.7673   -5839.4238    2.1547992    616.38331   0.16768783 
  202600   -944.30597    51.434885   -892.87108    1842.2111    2962.5519    2.1756619    614.43455   0.17243796 
  202700   -934.75983    49.330582   -885.42925    1766.8426    3091.2657    2.1568222    614.21796   0.18315951 
  202800   -942.18294    48.663998   -893.51894    1742.9679   -4578.4923    2.1557057    623.26245   0.17886016 
  202900   -939.23302    47.072603   -892.16041    1685.9699    1738.9855    2.1639071    628.20724   0.18534327 
  203000   -936.94142     52.91561   -884.02581    1895.2453    1567.4287    2.1536312    616.23743   0.17776933 
  203100   -941.75112    49.218178   -892.53294    1762.8166   -845.92891     2.157468     619.2502   0.16794414 
  203200   -938.46074    46.512628   -891.94811    1665.9137    1752.3884    2.1603012    594.75377   0.16352591 
Loop time of 141.817 on 1 procs for 200000 steps with 217 atoms

Performance: 365.541 ns/day, 0.066 hours/ns, 1410.266 timesteps/s
100.0% CPU use with 1 MPI tasks x no OpenMP threads

MPI task timing breakdown:
Section |  min time  |  avg time  |  max time  |%varavg| %total
---------------------------------------------------------------
Pair    | 134.89     | 134.89     | 134.89     |   0.0 | 95.11
Neigh   | 3.7333     | 3.7333     | 3.7333     |   0.0 |  2.63
Comm    | 0.96477    | 0.96477    | 0.96477    |   0.0 |  0.68
Output  | 0.070991   | 0.070991   | 0.070991   |   0.0 |  0.05
Modify  | 1.851      | 1.851      | 1.851      |   0.0 |  1.31
Other   |            | 0.308      |            |       |  0.22

Nlocal:    217 ave 217 max 217 min
Histogram: 1 0 0 0 0 0 0 0 0 0
Nghost:    951 ave 951 max 951 min
Histogram: 1 0 0 0 0 0 0 0 0 0
Neighs:    4118 ave 4118 max 4118 min
Histogram: 1 0 0 0 0 0 0 0 0 0
FullNghs:  8236 ave 8236 max 8236 min
Histogram: 1 0 0 0 0 0 0 0 0 0

Total # of neighbors = 8236
Ave neighs/atom = 37.9539
Neighbor list builds = 6339
Dangerous builds = 112
Total wall time: 0:02:24
