LAMMPS (3 Mar 2020)

# ---------- 1. Initialize simulation ----------
units metal
atom_style atomic
dimension 3
boundary p p p
read_data /home/modeler/RemLabs/Project/arrhenius_3/T1550.0/n3_T1550.0_timestep3.000000e-03_eqsteps3200_time600_rseed3324/20201205-091019/lammps.data
  orthogonal box = (0 0 0) to (17.469 17.469 17.469)
  1 by 1 by 1 MPI processor grid
  reading atoms ...
  217 atoms
  read_data CPU = 0.00101771 secs

pair_style meam/c
pair_coeff * * library.meam Li Si LiSi.meam Li Si
Reading potential file library.meam with DATE: 2012-06-29
Reading potential file LiSi.meam with DATE: 2020-11-07

group Li type 1
1 atoms in group Li
group Si type 2
216 atoms in group Si

velocity all create 1550.0 3324 dist gaussian

# ---------- 2. Specify equilibration ensemble  ----------
fix 1 all npt temp 1550.0 1550.0 0.15 tchain 2 iso 1.0 1.0 1.0 pchain 2
# fix 1 all nvt temp 1550.0 1550.0 0.15

# ---------- 3. Run equilibration -------------
timestep 0.003
run 3200
Neighbor list info ...
  update every 1 steps, delay 10 steps, check yes
  max neighbors/atom: 2000, page size: 100000
  master list distance cutoff = 6
  ghost atom cutoff = 6
  binsize = 3, bins = 6 6 6
  2 neighbor lists, perpetual/occasional/extra = 2 0 0
  (1) pair meam/c, perpetual
      attributes: full, newton on
      pair build: full/bin/atomonly
      stencil: full/bin/3d
      bin: standard
  (2) pair meam/c, perpetual, half/full from (1)
      attributes: half, newton on
      pair build: halffull/newton
      stencil: none
      bin: none
Per MPI rank memory allocation (min/avg/max) = 8.895 | 8.895 | 8.895 Mbytes
Step Temp E_pair E_mol TotEng Press Volume 
       0         1550   -951.04357            0   -907.76727   -115560.29    5330.9442 
    3200    1496.8428   -949.55373            0   -907.76159    -9119.902    4663.3922 
Loop time of 2.29507 on 1 procs for 3200 steps with 217 atoms

Performance: 361.401 ns/day, 0.066 hours/ns, 1394.292 timesteps/s
100.0% CPU use with 1 MPI tasks x no OpenMP threads

MPI task timing breakdown:
Section |  min time  |  avg time  |  max time  |%varavg| %total
---------------------------------------------------------------
Pair    | 2.2331     | 2.2331     | 2.2331     |   0.0 | 97.30
Neigh   | 0.013055   | 0.013055   | 0.013055   |   0.0 |  0.57
Comm    | 0.013884   | 0.013884   | 0.013884   |   0.0 |  0.60
Output  | 2.5454e-05 | 2.5454e-05 | 2.5454e-05 |   0.0 |  0.00
Modify  | 0.030026   | 0.030026   | 0.030026   |   0.0 |  1.31
Other   |            | 0.004936   |            |       |  0.22

Nlocal:    217 ave 217 max 217 min
Histogram: 1 0 0 0 0 0 0 0 0 0
Nghost:    957 ave 957 max 957 min
Histogram: 1 0 0 0 0 0 0 0 0 0
Neighs:    4279 ave 4279 max 4279 min
Histogram: 1 0 0 0 0 0 0 0 0 0
FullNghs:  8558 ave 8558 max 8558 min
Histogram: 1 0 0 0 0 0 0 0 0 0

Total # of neighbors = 8558
Ave neighs/atom = 39.4378
Neighbor list builds = 22
Dangerous builds = 0

# ---------- 4. Describe computed properties----------
compute msdli Li msd
compute msdsi Si msd
thermo_style custom step pe ke etotal temp press density c_msdli[4] c_msdsi[4]
thermo 100

# ---------- 3. Run production -------------
timestep 0.003
run 200000
Per MPI rank memory allocation (min/avg/max) = 9.665 | 9.665 | 9.665 Mbytes
Step PotEng KinEng TotEng Temp Press Density c_msdli[4] c_msdsi[4] 
    3200   -949.55373    41.792137   -907.76159    1496.8428    -9119.902    2.1626549            0 5.3922472e-32 
    3300   -952.33478    39.793191   -912.54159    1425.2478   -4226.0851    2.1808654  0.063797941    0.1014775 
    3400      -945.74    42.000518   -903.73948    1504.3062    6161.0102    2.1951556  0.084015074   0.11498067 
    3500   -946.53125    41.593888   -904.93736    1489.7422    7720.4922    2.1996216  0.063065268   0.10335298 
    3600   -951.49666    41.676725   -909.81993    1492.7092   -6124.9556    2.1761247   0.10606993   0.11240656 
    3700   -944.36412    41.393646   -902.97047    1482.5703   -3010.3532    2.1666203   0.36396349  0.096844813 
    3800   -947.98944    45.878876   -902.11057    1643.2149    6341.6988    2.1952088   0.01479301  0.086249738 
    3900   -948.17437    41.526518   -906.64785    1487.3293    5149.7805    2.1943756   0.03416044   0.11360603 
    4000   -950.69512    42.027706   -908.66742      1505.28   -6765.3333    2.1679506  0.071085341   0.10049357 
    4100   -946.26587    47.222281   -899.04359    1691.3308   -7306.7015    2.1554385  0.045275646  0.094012293 
    4200   -947.06754    42.484117   -904.58342     1521.627    9005.4363    2.2033391  0.088463576   0.10364468 
    4300   -951.06122    43.839019    -907.2222    1570.1547    6222.8869    2.1953538  0.056906446  0.077567597 
    4400   -944.67931    41.501937   -903.17737    1486.4489   -4527.4993    2.1610367  0.011795662   0.12271756 
    4500    -946.7694    46.516658   -900.25274     1666.058   -7653.4448    2.1583797   0.18418456   0.12313363 
    4600   -950.75108    42.839162   -907.91192    1534.3434    7994.2218    2.2051254   0.04982438    0.1001382 
    4700   -949.53151    44.403795   -905.12771    1590.3829    6425.7588    2.2001563   0.16769744   0.10762869 
    4800   -948.03198    46.238831   -901.79315    1656.1072   -8446.0389    2.1559754   0.14286518   0.11621166 
    4900   -952.85791    41.456437   -911.40148    1484.8192   -5629.0248       2.1765    0.1920204   0.11033337 
    5000   -953.47012    45.572816    -907.8973     1632.253     2187.443    2.1947395   0.21876503   0.10995983 
    5100   -947.53316    43.781445   -903.75171    1568.0926    6056.0519    2.1934679   0.11219084   0.10946145 
    5200    -949.2191    41.377076   -907.84202    1481.9768   -3418.0987    2.1739516  0.047653646  0.087736233 
    5300     -951.035    39.393247   -911.64175    1410.9233    -3385.254    2.1785178   0.20749833   0.11039326 
    5400   -949.45929    44.931786   -904.52751    1609.2936     3634.617    2.1912525  0.064809586   0.12361848 
    5500   -950.55238    44.753358   -905.79902     1602.903    2376.6592    2.1934238  0.011631728   0.11346248 
    5600   -952.30668    39.308045   -912.99864    1407.8716   -4499.5112    2.1815317  0.065820511   0.10274965 
    5700   -948.84668    43.734074    -905.1126    1566.3959   -6374.9653    2.1640151   0.17860723  0.096726898 
    5800   -951.64576    47.122506   -904.52326    1687.7573    2441.6727    2.1946656  0.079735445   0.11476222 
    5900    -952.0074     43.04519   -908.96221    1541.7226     6086.148    2.2049372   0.10038282   0.11758691 
    6000   -947.96535    41.848615   -906.11674    1498.8656   -2944.6008    2.1753532   0.24328909   0.11685878 
    6100   -947.61982     45.47599   -902.14383    1628.7851   -8987.4311    2.1570317   0.11589159   0.11054277 
    6200    -949.5536    42.715036   -906.83856    1529.8977    2958.5173     2.189038   0.21017339   0.11136895 
    6300   -949.02875    42.077316   -906.95144    1507.0569    9516.7951    2.2093713   0.27951768    0.1219038 
    6400   -943.36237    44.928717   -898.43366    1609.1837   -1119.8144     2.165499   0.19042836    0.1209932 
    6500   -947.89962    41.076484   -906.82314    1471.2107   -5069.7585    2.1708776  0.098493481   0.12184674 
    6600   -953.10213    45.965226    -907.1369    1646.3077   -640.33136    2.1902992   0.14312093   0.10190331 
    6700   -949.53918    48.413968   -901.12521    1734.0127    4977.8259     2.197096  0.017008526   0.10915768 
    6800   -948.75821    44.569914    -904.1883    1596.3327   -1231.3671    2.1770476   0.14374079   0.11681752 
    6900   -952.81524    43.809552   -909.00569    1569.0993   -10671.737    2.1641579   0.35305708    0.1168217 
    7000   -947.21135    42.628364   -904.58299    1526.7934    2582.6009    2.1877355  0.062447799   0.11733928 
    7100   -949.30209    46.431276   -902.87082    1662.9999    9679.8605     2.207058   0.15048684   0.12071059 
    7200   -954.62365    42.644256    -911.9794    1527.3626   -704.87586    2.1944454  0.027834162   0.11090782 
    7300   -949.74612    42.581843   -907.16427    1525.1272   -14004.534    2.1510609   0.14509261    0.1114753 
    7400   -946.62585    42.640219   -903.98563     1527.218    326.31343    2.1793058  0.039624117   0.12159218 
    7500   -951.39299    41.627488    -909.7655    1490.9456    10414.226      2.21807  0.045806647   0.11513493 
    7600   -954.16636    43.405691   -910.76067    1554.6344    328.76981    2.1985644  0.052524402   0.10509221 
    7700   -945.98564    41.627449   -904.35819    1490.9443   -4574.3252    2.1642124  0.010898645   0.11849387 
    7800   -951.59963    44.813581   -906.78605    1605.0599   -3205.1434    2.1819181   0.22579841   0.12296059 
    7900   -953.56507    41.391093   -912.17398    1482.4789    3508.2191    2.2056597   0.29283905   0.12597334 
    8000   -944.86773    41.787756   -903.07997    1496.6859    2181.6467    2.1784627   0.23402334   0.12680707 
    8100   -946.82681    41.944864   -904.88195    1502.3129    862.38579    2.1808363   0.19338548   0.12416663 
    8200   -948.29879    39.391976   -908.90682    1410.8777    1615.9298     2.188106  0.072726034   0.13113649 
    8300   -948.65129    42.348877   -906.30242    1516.7832     2605.474    2.1868845   0.14041076   0.12501744 
    8400   -948.53502    47.092668   -901.44235    1686.6886   -2511.7896    2.1731972  0.046364285   0.10831882 
    8500   -949.09726      42.1287   -906.96856    1508.8973   -2774.3325    2.1797041  0.085025158   0.11880126 
    8600   -950.04395    42.639599   -907.40435    1527.1958    753.07783    2.1911457   0.09663736   0.11263335 
    8700   -944.11756    45.860885   -898.25667    1642.5706    2112.9061    2.1733518   0.19848833   0.12549851 
    8800   -948.42529    42.695791    -905.7295    1529.2084    2311.4985     2.183601   0.11484232   0.12539868 
    8900   -948.40518    40.987478    -907.4177    1468.0228    379.75902    2.1792061   0.83803751   0.11867196 
    9000   -947.97687    46.913425   -901.06345    1680.2688   -1429.3122    2.1749438  0.031170884   0.12122979 
    9100   -945.87174    41.859565   -904.01217    1499.2578    4455.0283    2.1866393   0.24015642   0.12522572 
    9200   -950.45176    42.335772   -908.11599    1516.3138     -182.862    2.1849917  0.054725629   0.11997112 
    9300   -946.70156    42.191241   -904.51032    1511.1372   -1277.1207     2.172665  0.036496413   0.11407532 
    9400   -947.33207    47.306516   -900.02556    1694.3478    1442.9301    2.1771278   0.32965095   0.11866699 
    9500    -949.0103    39.332801    -909.6775    1408.7583    7561.4537    2.2034471   0.39386413   0.10820351 
    9600    -950.0649    43.280497    -906.7844    1550.1504   -3715.3458    2.1756568   0.10907178    0.1091063 
    9700   -947.89373    44.152321   -903.74141     1581.376    -6340.206    2.1600029   0.16969411   0.12338559 
    9800   -951.93905    40.382255   -911.55679    1446.3459    1996.3412    2.1957453  0.045664603   0.11984975 
    9900   -953.49115    44.152486   -909.33866    1581.3819     3968.636    2.2037117   0.21170645   0.12190741 
   10000    -949.8247    45.492764   -904.33193    1629.3858   -2105.0718    2.1769903   0.32461212   0.12927769 
   10100   -947.32642    40.832174   -906.49425    1462.4604    -7058.018    2.1628177 0.0074836961   0.12448935 
   10200   -950.54509    37.793451   -912.75164    1353.6244    1380.2426    2.1949579   0.02447237   0.11826734 
   10300   -954.42582    50.344463   -904.08136    1803.1561    5848.9344    2.2011946   0.13339249    0.1098939 
   10400   -952.58483    47.230277   -905.35455    1691.6173   -1686.6961    2.1822021   0.27403809   0.10458706 
   10500   -949.44275    38.378305   -911.06445    1374.5717   -9409.7307    2.1624247   0.22754968    0.1157659 
   10600   -952.14504    45.235881   -906.90916    1620.1852   -3798.7394     2.181891  0.068922668   0.11456268 
   10700   -945.87749    43.664376   -902.21311    1563.8996    15586.989    2.2127317  0.078915386   0.12272377 
   10800   -947.61477    40.242441   -907.37233    1441.3383    543.01794    2.1846473   0.13044524   0.12661342 
   10900   -946.63178    38.848452   -907.78333    1391.4107   -13250.692     2.151369    0.1450238   0.12567692 
   11000   -944.43568    45.273679     -899.162     1621.539   -2185.6365    2.1663526  0.089288015   0.11861555 
   11100   -947.87204    42.661754   -905.21029    1527.9893    11813.697    2.2111331  0.069152505   0.12323502 
   11200   -953.00573     44.81641   -908.18932    1605.1613    -669.1362    2.1900172   0.10293364   0.11125046 
   11300   -948.52976    47.265308   -901.26446    1692.8719   -8177.9606    2.1606249   0.37902234   0.12794524 
   11400   -947.42069    43.674831   -903.74586    1564.2741   -2984.7976    2.1715504  0.078653556   0.11475607 
   11500   -952.09913    44.023533    -908.0756    1576.7633     1929.145    2.1933226   0.34234017   0.10245259 
   11600   -947.29407    43.430668    -903.8634     1555.529    3570.4848    2.1893757   0.17855135   0.12220694 
   11700   -943.27102    41.527655   -901.74336      1487.37    -374.3778    2.1696001    0.1129745   0.13648457 
   11800   -953.88329    43.388718   -910.49457    1554.0265   -3114.8016    2.1897562   0.27464068   0.12363474 
   11900   -948.75787    43.062243   -905.69562    1542.3334    3253.4175    2.1893131  0.081898577   0.11648885 
   12000   -950.23656    46.823757    -903.4128    1677.0572    153.83655    2.1827768  0.020574451  0.098553833 
   12100   -949.93444    37.515237    -912.4192    1343.6598     321.1219    2.1885768   0.14696872   0.10767218 
   12200   -946.85004    39.352709   -907.49733    1409.4713   -2637.2722    2.1749414   0.38624225   0.11795459 
   12300    -948.2038    44.378217   -903.82558    1589.4668      2748.35    2.1889788   0.39922671   0.11587485 
   12400   -951.13589    41.470027   -909.66586     1485.306    5488.9179    2.2052873   0.19616585   0.12517075 
   12500   -952.17014    41.456434    -910.7137    1484.8191   -6385.4788    2.1812462   0.21038713   0.11510922 
   12600   -947.79308     43.51066   -904.28242     1558.394   -8284.6011    2.1583032   0.28962274   0.13010257 
   12700   -948.07724    41.389202   -906.68803    1482.4111    3822.5696    2.1928724   0.19272365   0.12301231 
   12800   -951.70283    41.226006   -910.47683     1476.566    11268.611    2.2225003   0.24335621   0.13443432 
   12900   -947.58957    46.744611   -900.84496    1674.2224   -6280.1389     2.163916    0.1460835   0.12235328 
   13000   -945.98555    40.524971   -905.46058    1451.4575   -7526.3279    2.1602755   0.11300651   0.11703658 
   13100   -947.89682    40.139374   -907.75745    1437.6468    6177.9957    2.1963291   0.17005377   0.11617788 
   13200   -949.82016    47.312891   -902.50726    1694.5762    9852.4902    2.2074594  0.068767771     0.113684 
   13300   -948.65317    47.152668    -901.5005    1688.8376   -5934.9315    2.1669314   0.17801357   0.12306644 
   13400   -950.37992    41.838773   -908.54115    1498.5131   -8831.4879    2.1658136    0.2076924   0.12481296 
   13500   -948.90717    43.876595   -905.03057    1571.5005    1385.3906    2.1899203  0.096540259    0.1275088 
   13600   -944.54444    45.193275   -899.35117    1618.6592    5437.2241    2.1857553  0.088433815   0.13533834 
   13700   -950.10517     41.43102   -908.67415    1483.9089    419.53303    2.1866883  0.075348881   0.11872726 
   13800   -948.68343    41.881866   -906.80156    1500.0566   -3821.6315    2.1712465  0.051638847   0.11559751 
   13900   -944.93801    42.782047   -902.15596    1532.2978     1990.064    2.1783094   0.35826151   0.12351993 
   14000   -949.90045     39.33782   -910.56263     1408.938    4982.6537     2.202111    0.1924942   0.10735135 
   14100   -950.33411    41.898717   -908.43539    1500.6601   -634.34355    2.1840184  0.046063843   0.10331846 
   14200   -951.74694    47.914308   -903.83263    1716.1167   -4509.5127    2.1747677    0.1276541   0.10928218 
   14300   -947.00113    38.939944   -908.06119    1394.6876    2582.1168    2.1902161   0.13541367   0.12750422 
   14400   -950.66706    39.714803   -910.95225    1422.4402    4126.3748    2.2021858   0.23363276     0.123124 
   14500   -947.01017      43.2242   -903.78597    1548.1341    807.63812    2.1818376   0.22586089    0.1354782 
   14600    -950.1035    43.622019   -906.48148    1562.3825   -3363.4526    2.1761727    0.1361007   0.11931225 
   14700   -952.20514    40.414898   -911.79024    1447.5151    1010.2475    2.1985012  0.069121245   0.11685864 
   14800   -947.60783    44.656171   -902.95166    1599.4221    3573.6463    2.1932871   0.10552307   0.12671939 
   14900   -945.85356    40.220264    -905.6333     1440.544    639.84746    2.1816134   0.19498837   0.12825974 
   15000    -950.3302    39.416172   -910.91403    1411.7443   -6648.2448    2.1741206   0.12137467     0.115756 
   15100   -949.21199    45.553795   -903.65819    1631.5717    1522.5798     2.187501   0.25388633   0.11676317 
   15200    -949.2975    46.438615   -902.85888    1663.2628    10344.159    2.2092754   0.12874606   0.12554275 
   15300   -948.39425     39.83742   -908.55683    1426.8319   -1196.8416    2.1830769   0.20079537    0.1327635 
   15400   -946.65714     43.19593   -903.46121    1547.1216   -9942.8945    2.1564965   0.17021245   0.13477094 
   15500   -947.34628    46.134482   -901.21179    1652.3698   -558.62569    2.1793393   0.22267848   0.13747364 
   15600   -952.79596    45.591742   -907.20422    1632.9309    8759.2968    2.2110576     0.188093    0.1184274 
   15700   -949.77404    43.713552   -906.06049    1565.6609    1238.1295    2.1887849   0.29657404   0.11905963 
   15800   -944.06034    44.425663   -899.63468    1591.1661   -9573.2825    2.1496538  0.054599821   0.12889103 
   15900   -949.15382    39.908613    -909.2452    1429.3818    1531.5408    2.1902907   0.16424309   0.11980218 
   16000   -946.73219    40.262125   -906.47006    1442.0433    9005.9797    2.2050227   0.15803827    0.1191157 
   16100   -947.68994    45.090326   -902.59961    1614.9719    183.28306    2.1769889   0.18385047   0.11980379 
   16200   -948.85058    43.419171   -905.43141    1555.1172   -10339.408    2.1576479   0.10627155   0.12762289 
   16300   -951.71187    41.598845   -910.11303    1489.9198   -268.20498     2.189393   0.18804723   0.11737884 
   16400   -948.18098     43.92025   -904.26073    1573.0641    9124.2487    2.2042086  0.077960595   0.12598591 
   16500   -947.10574    41.710264   -905.39547    1493.9104    2011.5192    2.1859439   0.18497219   0.12101213 
   16600   -954.99075    41.546692   -913.44406    1488.0518   -4739.8083    2.1866351  0.044463623    0.1059009 
   16700   -949.05183     43.06637   -905.98546    1542.4812   -2550.8882    2.1806337   0.11697938   0.12458791 
   16800   -949.30644    44.709306   -904.59713    1601.3252    1542.5463    2.1887453  0.065610109    0.1209455 
   16900   -951.02675    39.726428   -911.30032    1422.8566    981.20169    2.1944028   0.38022786   0.10892741 
   17000   -950.43329    42.775068   -907.65822    1532.0478     -2038.18    2.1845318   0.12166709   0.11164551 
   17100   -944.85793    40.953752   -903.90418    1466.8149    2461.4982    2.1796355   0.14946141   0.11052369 
   17200   -947.18822    39.586359   -907.60186    1417.8398     1760.323    2.1851786   0.12887078    0.1266812 
   17300   -951.16587    40.218598   -910.94727    1440.4843    1640.7877    2.1918837   0.18487462   0.10832043 
   17400   -945.22565    44.015454    -901.2102     1576.474   -512.54542    2.1722438   0.16053414   0.11247355 
   17500   -947.16431    42.543961   -904.62034    1523.7704    3796.3462    2.1906875   0.10673014   0.11627885 
   17600   -953.48054    45.686493   -907.79405    1636.3245     1948.793    2.1972259  0.044365549   0.10452026 
   17700   -949.69974    44.177974   -905.52177    1582.2948   -5703.1443    2.1700159  0.012641903   0.11483744 
   17800   -945.36663    45.103081   -900.26354    1615.4288   -7464.8937    2.1531061   0.31845509   0.13033509 
   17900   -951.97669    45.212585   -906.76411    1619.3508    3974.0593     2.196591  0.057991591   0.10987281 
   18000    -950.1144     43.60334   -906.51106    1561.7135    10438.306    2.2117446   0.33584065   0.11176564 
   18100   -944.32796    45.486867    -898.8411    1629.1746   -6398.8272    2.1593398    0.1525416   0.12222212 
   18200   -947.67732    42.557985   -905.11934    1524.2727   -9273.9042     2.154496   0.32659491   0.10813937 
   18300   -949.40519    42.109676   -907.29551    1508.2159     1896.406    2.1885837   0.11073852   0.11232444 
   18400   -945.29196    41.868602   -903.42336    1499.5815    12714.953    2.2072913   0.24324239   0.11453963 
   18500   -945.73115    45.209864   -900.52128    1619.2534   -2134.8226    2.1696074   0.08161361   0.10968088 
   18600   -952.05267    42.094568    -909.9581    1507.6748   -7476.4685    2.1724116   0.18334939   0.11283815 
   18700   -946.49648    39.162868   -907.33361    1402.6719    1306.1985    2.1848179   0.20257237   0.12481128 
   18800   -948.54804    45.287694   -903.26034    1622.0409    5036.9985    2.1934451   0.15028002   0.10318822 
   18900   -952.91705    44.223386   -908.69366    1583.9213   -2647.4594    2.1818421  0.011048683   0.10835031 
   19000   -948.48569    37.765406   -910.72028    1352.6199   -2843.0928    2.1766744   0.11510004    0.1043596 
   19100   -947.18929     42.48626   -904.70303    1521.7038     3961.428    2.1858002  0.058493419   0.10542513 
   19200   -948.06374      42.0422   -906.02154    1505.7991    4482.3914    2.1926716  0.018549837   0.12104104 
   19300    -951.4146    38.230968   -913.18363    1369.2946    1414.4703    2.1933857   0.30661382   0.09565687 
   19400   -945.94245    41.021213   -904.92124    1469.2311   -8130.0215    2.1572452  0.032081024   0.10215046 
   19500   -947.90445    42.405422   -905.49903    1518.8084    2122.9381     2.186647   0.18427597   0.10458333 
   19600   -954.18021    46.082886   -908.09733    1650.5219    17143.751     2.236443  0.057895217   0.10941094 
   19700    -945.5138    44.150525   -901.36328    1581.3117   -674.07113    2.1744197  0.078510266   0.13076238 
   19800   -946.25215    44.305783   -901.94636    1586.8725   -14295.302    2.1381816  0.079278209   0.12805839 
   19900   -948.55415    41.641043   -906.91311    1491.4311    -345.9684    2.1828191  0.047027609   0.10619931 
   20000   -952.21438    45.726258   -906.48812    1637.7487    11663.755    2.2171318     0.152391   0.10654016 
   20100   -947.91595    50.140855    -897.7751    1795.8636    -932.0835    2.1721813    0.1071409   0.10335824 
   20200   -946.90079    41.607215   -905.29358    1490.2195   -6303.1098    2.1641764  0.098941902   0.11596356 
   20300   -946.93514    39.638169   -907.29697    1419.6955   -819.92664    2.1765298    0.1389282   0.11140234 
   20400   -948.06299    45.492953   -902.57003    1629.3926    7680.3059    2.1966007  0.077111675   0.11079431 
   20500   -946.27396     46.35258   -899.92139    1660.1813    1787.0416    2.1791539  0.028576258   0.10877139 
   20600   -950.51898    41.895182    -908.6238    1500.5335   -5092.6034    2.1749458   0.11095525    0.1050474 
   20700   -948.54249    42.163244   -906.37924    1510.1345   -1729.7312    2.1781108    0.1050057   0.11587965 
   20800   -947.45329    45.197223   -902.25607    1618.8006    5084.1217    2.1896003   0.18584763   0.11479747 
   20900   -952.96678    44.040871   -908.92591    1577.3843   -1845.9521    2.1843458  0.041286109   0.10581806 
   21000   -951.66357    41.833269    -909.8303     1498.316   -9399.3222    2.1640327  0.057249116    0.1065291 
   21100   -950.71367    45.234632   -905.47904    1620.1405   -1025.9874     2.185695   0.36019418   0.10282084 
   21200   -948.00491    44.864837   -903.14007    1606.8958    13213.353    2.2126259   0.14283582   0.10906394 
   21300   -951.21645    39.028655   -912.18779    1397.8649   -1979.7481    2.1839735   0.13199427   0.10395239 
   21400   -948.70618    40.254721   -908.45146    1441.7781   -17636.532     2.139578  0.025668492   0.11334975 
   21500   -951.60126    46.888744   -904.71252    1679.3848    -332.6784    2.1851794 0.0051182366   0.10353907 
   21600   -950.23141    44.142729   -906.08868    1581.0325    10903.534    2.2109504    0.1391142    0.1145815 
   21700   -952.69655    38.766893   -913.92966    1388.4895    -616.4236    2.1910981   0.12962649   0.11853818 
   21800   -950.49741     43.61784   -906.87957    1562.2328   -9255.9951    2.1633215   0.12825168   0.11268417 
   21900   -949.53643    44.303994   -905.23244    1586.8084    1818.0382    2.1860718  0.096253843    0.1138776 
   22000   -948.98075    42.182619   -906.79813    1510.8284    6135.1072    2.1980982   0.10289173   0.10454033 
   22100   -951.69924    38.257041   -913.44219    1370.2285   -1771.0434    2.1849756   0.13450634   0.10939047 
   22200   -948.67436     38.80989   -909.86447    1390.0295   -2342.2169    2.1773277  0.025844236   0.11645102 
   22300   -949.22232      43.4976   -905.72472    1557.9263    4341.0609    2.1930678   0.26411356   0.10685467 
   22400   -948.53617    42.783785   -905.75238      1532.36    3658.3748    2.1918712 0.0057656379   0.10448196 
   22500   -947.62314    38.941817   -908.68132    1394.7547   -2880.9501    2.1744349  0.062893663   0.10968894 
   22600   -951.35936    36.223298   -915.13606    1297.3872     981.2279    2.1956079  0.094452879    0.1174409 
   22700   -951.28762    44.311607   -906.97602    1587.0811    3987.2727    2.1954719   0.11674005   0.12873586 
   22800   -952.80142    47.265506   -905.53591     1692.879   -1244.5204    2.1851518   0.11733338   0.11077006 
   22900   -948.89567    42.924867    -905.9708    1537.4131   -6385.4776    2.1649324   0.10688549   0.11300171 
   23000   -953.06017    37.876549   -915.18362    1356.6006    1208.6102     2.196868   0.17155272   0.10104033 
   23100   -951.74894    43.688856   -908.06009    1564.7764     5956.497    2.2043505  0.067171172   0.10734339 
   23200    -947.1529     41.99088   -905.16202    1503.9611    1945.9436    2.1830788   0.14322004   0.12379968 
   23300   -948.13512    41.733566   -906.40156     1494.745   -8404.8095    2.1576644  0.039344598   0.12285383 
   23400   -952.53972    37.971822   -914.56789    1360.0129   -355.43565    2.1949076  0.031104473   0.11320195 
   23500   -949.82881    43.645948   -906.18287    1563.2396    7646.9518    2.2040297    0.0339675   0.10810278 
   23600   -947.48201    42.691582   -904.79042    1529.0576    712.53129    2.1795073  0.055095642   0.11598085 
   23700   -947.26351    39.468839   -907.79467    1413.6307   -7342.5535    2.1605698  0.071350281   0.10438308 
   23800   -953.44739    40.290066   -913.15732     1443.044    256.40643    2.1936469 0.0069103939   0.10579279 
   23900   -949.00982    44.939431   -904.07039    1609.5674     7274.089    2.1972162  0.014587905   0.10800412 
   24000   -948.71621    43.243192   -905.47302    1548.8143   -38.072642    2.1836442  0.013529744   0.11293952 
   24100    -951.9321    42.008253   -909.92385    1504.5833   -9022.5102    2.1656927   0.13519124   0.11428197 
   24200   -949.60863    38.569452   -911.03918    1381.4179    1412.3416    2.1881569  0.013798908   0.11475508 
   24300   -948.82507     45.91057    -902.9145    1644.3501    6718.6654    2.2004415   0.16618595   0.11354952 
   24400    -948.7504    43.303421   -905.44698    1550.9715   -1237.4166    2.1794089   0.16798892   0.12282815 
   24500   -949.38942    40.545518    -908.8439    1452.1934   -12314.654    2.1543067     0.148364   0.11951802 
   24600   -949.65743     42.86048   -906.79695     1535.107    1873.6182    2.1884715   0.38083929   0.10351921 
   24700   -946.83149    46.594663   -900.23682    1668.8519    15894.404    2.2131599   0.32368801   0.13090545 
   24800   -949.54355    44.039756    -905.5038    1577.3444   -5539.1237    2.1712692   0.11642526    0.1201873 
   24900   -949.25681    40.707268   -908.54954    1457.9867   -13301.398    2.1514917  0.054781891   0.10747707 
   25000   -951.69978    47.882661   -903.81712    1714.9833    2138.9821    2.1902106   0.14649825   0.11322977 
   25100   -948.75047    48.442639   -900.30783    1735.0397    7871.3935    2.1960661   0.35020834    0.1080726 
   25200   -948.03376    40.717155   -907.31661    1458.3408   -1693.3739    2.1768609   0.30617645   0.12707872 
   25300   -951.76901    45.414796   -906.35421    1626.5933   -7250.5486    2.1695247   0.22154473      0.11628 
   25400   -947.46944    49.403806   -898.06564    1769.4652    417.88917    2.1754765   0.14206458    0.1173969 
   25500   -949.47928    42.751877    -906.7274    1531.2172     5347.329     2.198276  0.089356769     0.118597 
   25600   -951.42151    43.987839   -907.43367    1575.4849   -4103.3175    2.1764254   0.12543579   0.11310157 
   25700   -948.73952    46.499554   -902.23996    1665.4454   -5437.9695    2.1646378  0.041916744   0.11482381 
   25800    -949.0187    44.512307   -904.50639    1594.2694    3073.3267    2.1843662   0.27425154   0.11722079 
   25900   -950.28592    41.094477   -909.19144    1471.8551    6026.8227    2.2007931  0.062176471   0.12259454 
   26000   -947.46233    42.342913   -905.11941    1516.5696    155.43339    2.1805532  0.099273474   0.11627449 
   26100   -949.92374    46.259229   -903.66451    1656.8378   -6185.5109     2.166094  0.056104298   0.11545002 
   26200   -951.87596    39.191549   -912.68441    1403.6992    2649.3057    2.1989449   0.51942287   0.11566228 
   26300   -944.33688    38.099437   -906.23744    1364.5836    8465.2178    2.1968657   0.10630055   0.12932934 
   26400    -949.5458    45.016521   -904.52928    1612.3285   -4317.6473    2.1769522   0.16672031   0.12715273 
   26500   -949.24314    38.256292   -910.98685    1370.2017   -6808.3668    2.1686323  0.048405492   0.11615117 
   26600   -948.58569    40.016851   -908.56884    1433.2585    3001.3589     2.193235   0.19633518   0.11102628 
   26700   -947.58267    45.004295   -902.57837    1611.8907    11938.552    2.2105446  0.034024776   0.10218342 
   26800   -951.52339    43.489478   -908.03391    1557.6354   -3604.5183     2.180112  0.054391536    0.1198668 
   26900   -951.96151    41.792395   -910.16911     1496.852   -12415.292    2.1609982  0.082220012   0.10969074 
   27000   -949.15615    47.865548   -901.29061    1714.3703   -3241.4346    2.1732672  0.094892003   0.11127136 
   27100    -952.7257    48.043313   -904.68239    1720.7372    9280.4047    2.2134889   0.13523818    0.1173031 
   27200   -950.49208    41.847927   -908.64415     1498.841    2695.4599    2.1912853   0.09576209   0.10504131 
   27300   -946.56672    45.719431   -900.84729    1637.5042   -8649.7039     2.153835   0.32266965   0.12528972 
   27400   -950.03111    46.140288   -903.89082    1652.5778   -500.58078    2.1809179  0.036853885   0.11692767 
   27500   -950.67382    43.104385   -907.56943    1543.8427    5240.5428    2.2005769   0.19171666  0.099154442 
   27600   -948.68987     44.89448   -903.79539    1607.9575    1619.4218    2.1840368   0.01017685   0.11100825 
   27700   -946.34978     45.69536   -900.65442    1636.6421   -7086.9779    2.1567116  0.050121029   0.11849167 
   27800   -951.26337    41.709228   -909.55414    1493.8733    116.54379    2.1894817   0.13912911   0.10809426 
   27900   -948.11101    42.779571   -905.33144    1532.2091    6853.8252    2.1978971   0.18013112   0.10904834 
   28000   -946.82292    44.524824   -902.29809    1594.7177    811.63568    2.1798224  0.025033596   0.11077138 
   28100   -953.31941    41.999804   -911.31961    1504.2807   -5915.2565    2.1819533 0.0025778953   0.11132707 
   28200   -949.91126     42.00297   -907.90829    1504.3941    -4064.796     2.178255   0.10494683   0.12085096 
   28300   -944.46114    41.008851   -903.45228    1468.7883    4574.2857    2.1871234   0.14994932   0.12685302 
   28400   -951.61975    41.768787   -909.85096    1496.0065    1677.0692    2.1951773  0.063036797   0.10252019 
   28500   -950.62986    40.762289   -909.86757    1459.9574   -1897.8034    2.1872739  0.048845524   0.10656751 
   28600   -950.18593    46.115836    -904.0701     1651.702   -3847.8031    2.1776707 0.0065651041   0.10772079 
   28700   -951.48557    43.942481   -907.54309    1573.8603    84.472018    2.1864317  0.068149343   0.11289807 
   28800   -953.24193    41.252124   -911.98981    1477.5015    365.92878    2.1969847 0.0043550912   0.11588322 
   28900   -946.01511    43.135989   -902.87912    1544.9747    365.28628    2.1774926  0.037875254   0.11597287 
   29000   -952.37399     46.23681   -906.13718    1656.0349   -2259.3088    2.1836754  0.024758156   0.10333862 
   29100   -952.04226    42.272195   -909.77006    1514.0367    1747.3317    2.1937895 0.0037554942   0.11797445 
   29200    -944.5385    43.962994   -900.57551     1574.595    1209.6687    2.1755306   0.13576964   0.12957874 
   29300   -948.85927    44.583395   -904.27587    1596.8155    1857.5963    2.1839975   0.11392445   0.10288553 
   29400   -951.50837    43.151674    -908.3567    1545.5365   -1381.0551    2.1870912  0.016621814   0.10301352 
   29500   -947.95495    45.214053    -902.7409    1619.4034   -1285.6457    2.1772194   0.17015357  0.096572348 
   29600   -946.17547     44.54024   -901.63523    1595.2699    48.963338    2.1759793   0.21145112   0.11524234 
   29700   -949.74214    41.696565   -908.04557    1493.4198    1487.3281    2.1877883  0.060182946   0.11007493 
   29800   -946.22927    41.231658   -904.99761    1476.7685    3584.4379    2.1884253   0.32689615   0.12375899 
   29900   -943.97723     44.74999   -899.22724    1602.7824   -392.93791    2.1737851    0.1228446   0.11998958 
   30000   -950.55776    42.098125   -908.45963    1507.8022   -2196.4892    2.1851225    0.3454686   0.11272034 
   30100   -952.15479    45.845884   -906.30891    1642.0333   -1813.7398    2.1816148   0.22162505   0.11030327 
   30200   -943.89796    42.736472   -901.16149    1530.6654    3072.7761    2.1786195    0.2437201   0.11202933 
   30300   -951.74585    42.479729   -909.26612    1521.4699    782.74644    2.1911966  0.047960261   0.11504294 
   30400    -951.0912    42.599336   -908.49186    1525.7537    -6549.867    2.1707271  0.076293073   0.10268444 
   30500   -948.59796    44.258241   -904.33972    1585.1697    -1906.352     2.175959  0.036041997   0.11354611 
   30600   -948.02963    41.719168   -906.31046    1494.2293    7659.0426    2.2014853  0.076066471   0.12010219 
   30700   -953.15328    41.281888   -911.87139    1478.5675    5226.0273    2.2051898   0.21642849   0.11284048 
   30800   -949.21507     44.00242   -905.21265    1576.0071   -7645.4881    2.1626107   0.31376206    0.1157358 
   30900   -946.91283    41.726945   -905.18588    1494.5079   -6701.4728    2.1629237  0.038357216   0.11906003 
   31000   -953.71813     41.66158   -912.05655    1492.1667    8890.0385    2.2145231  0.091890139   0.10779627 
   31100   -950.47806    44.281788   -906.19628    1586.0131    8619.8764    2.2047812   0.13995847   0.11025709 
   31200   -950.25053    45.602751   -904.64778    1633.3252   -8703.7171    2.1644133  0.085083218    0.1203285 
   31300   -948.24845    40.178091   -908.07036    1439.0335   -6805.1903    2.1633129   0.27294363   0.12093422 
   31400    -951.7188    41.488174   -910.23063    1485.9559     6063.166    2.2067774     0.188848   0.11507133 
   31500    -948.6165     47.68756   -900.92894    1707.9955    6656.7162    2.1918556  0.039375809     0.106319 
   31600   -950.99737    45.674291   -905.32308    1635.8875   -4967.6849    2.1708372   0.19663786   0.11048531 
   31700   -951.03848    42.474032   -908.56445    1521.2658    -5751.004    2.1754894   0.16396741   0.12186496 
   31800   -945.43478    41.878399   -903.55638    1499.9324    6418.6992    2.1922065   0.26290516   0.13396625 
   31900   -949.39888    48.327554   -901.07133    1730.9177    1097.1201    2.1836747   0.11239494   0.13054766 
   32000    -951.2761    43.935853   -907.34024    1573.6229   -3093.3372    2.1784099   0.10586515   0.10832964 
   32100   -949.07792    43.107083   -905.97083    1543.9394   -1199.4038    2.1812603  0.053400689   0.10952461 
   32200   -944.66742    46.389388   -898.27803    1661.4996    894.92075    2.1772174   0.13455727    0.1259346 
   32300   -948.28018    41.149114   -907.13107     1473.812    3244.2941    2.1948308  0.057845694   0.12396825 
   32400    -948.1121    41.094694   -907.01741    1471.8629   -1053.1541    2.1812436    0.1195322   0.12527377 
   32500   -945.34518    44.354752   -900.99043    1588.6264   -3715.4075    2.1695045  0.037730995   0.13023707 
   32600   -951.42779    43.754628   -907.67316    1567.1321    42.462579    2.1907015    0.1169522   0.12308956 
   32700   -951.03322    42.557573   -908.47564    1524.2579    1380.8944    2.1940724   0.20182735   0.12529394 
   32800   -947.83816    43.777496   -904.06066    1567.9511    186.40116    2.1816478   0.16944373   0.12307276 
   32900   -950.65116    46.488265    -904.1629    1665.0411   -4768.1735    2.1739512   0.30064061   0.12518007 
   33000   -951.97142    40.299012   -911.67241    1443.3645    5052.6636     2.200421   0.11433384   0.11780405 
   33100   -949.42504    44.286118   -905.13892    1586.1681    5110.2827    2.1956386   0.14086152   0.11224191 
   33200   -949.51743    44.642245   -904.87519    1598.9233   -4820.5905    2.1689322  0.059195198   0.12458582 
   33300   -950.40444     37.56631   -912.83813     1345.489   -6015.6051    2.1725869    0.1844144   0.11074894 
   33400   -949.03079    41.658697   -907.37209    1492.0635    5176.0536    2.1972628  0.021615584   0.11658705 
   33500   -946.62613    43.503595   -903.12254     1558.141    11786.107    2.2036754   0.17233736   0.13756345 
   33600   -949.67954    40.193431   -909.48611    1439.5829   -3632.1252    2.1739322   0.15506553   0.11381434 
   33700   -946.77111    37.480843   -909.29027    1342.4279    -7263.424    2.1587232  0.056997377   0.12106962 
   33800   -947.38078    44.732202   -902.64858    1602.1453    2158.1415    2.1804633   0.13006731   0.11745412 
   33900   -948.28971    42.489401   -905.80031    1521.8163    11198.146    2.2062385   0.10150692    0.1150752 
   34000   -950.99775    40.953413   -910.04434    1466.8027   -427.50993    2.1906648  0.047708836   0.12918741 
   34100   -943.94205    43.474638   -900.46741    1557.1039   -6826.3715    2.1526494  0.024929044   0.12214602 
   34200   -946.78232    42.311004   -904.47131    1515.4267    2865.5894    2.1876507   0.14245398   0.10719555 
   34300   -950.50456    42.736246   -907.76831    1530.6573    6699.9284    2.2069777   0.17655208   0.11145447 
   34400   -948.49206    45.815147   -902.67692    1640.9324   -826.23183    2.1797359   0.30432136   0.12657674 
   34500   -947.94412    45.644535   -902.29958    1634.8217   -7860.8434    2.1627233   0.22409117   0.14159224 
   34600    -950.8802    42.216866   -908.66333     1512.055    507.06506    2.1917999   0.30313033   0.12917282 
   34700   -949.06786    45.118353   -903.94951    1615.9758    3427.4103    2.1969719  0.060524285    0.1251852 
   34800   -946.45583    44.744974   -901.71086    1602.6027   -668.68022    2.1775321  0.098961169   0.11370369 
   34900      -952.68    42.614219   -910.06578    1526.2868   -2317.8493    2.1867042  0.052931651   0.11476079 
   35000   -947.77761    42.538109    -905.2395    1523.5608   -907.20645    2.1834089  0.030708132   0.12146141 
   35100   -944.64267    42.223979   -902.41869    1512.3098    2363.8484    2.1848639  0.047224553    0.1208067 
   35200   -951.93662    40.755236   -911.18139    1459.7048      3401.09    2.1985254   0.12769167   0.10708839 
   35300   -950.59392    44.589407   -906.00452    1597.0308    -2980.898    2.1765867  0.055225268   0.10777673 
   35400   -948.27638    44.721617   -903.55476    1601.7661   -2275.3577    2.1757164   0.15886341   0.11682417 
   35500   -951.02016    39.748117   -911.27205    1423.6334     5053.059    2.2034928   0.14856696   0.12212828 
   35600   -950.63754    45.051332    -905.5862    1613.5753    1171.8417    2.1873634   0.23056938   0.11784968 
   35700   -946.67666    42.794884   -903.88177    1532.7576   -3326.8638    2.1698269   0.23024656   0.12273008 
   35800    -950.3471    40.134865   -910.21223    1437.4853   -1866.2529     2.184816   0.15661613   0.10552713 
   35900   -950.46605    43.438641   -907.02741    1555.8146    6812.1184    2.2047131  0.010302747    0.1173022 
   36000   -947.61394    45.644562   -901.96938    1634.8227    3425.3175    2.1915245  0.064044497   0.11858349 
   36100   -951.57788    42.846073   -908.73181     1534.591   -10034.012    2.1638762    0.1528295   0.11710992 
   36200   -947.46094    41.415313   -906.04563    1483.3463     -5034.13    2.1671091  0.081726924   0.10241013 
   36300   -947.61164    47.748151   -899.86349    1710.1656     7064.127    2.1983778   0.07158535   0.12266329 
   36400    -950.5118    43.647704    -906.8641    1563.3025    7442.3197    2.2047667   0.13021067   0.12445673 
   36500   -953.41484     45.61014    -907.8047    1633.5898   -9880.6399    2.1657951   0.14171713   0.10913949 
   36600   -945.22206    45.251948   -899.97012    1620.7607   -7869.7241    2.1532361  0.053694296   0.12788415 
   36700   -946.09589    37.852835   -908.24305    1355.7513    11188.697    2.2081476   0.21669929   0.11411677 
   36800   -948.27981    40.776467   -907.50334    1460.4652    6810.1956    2.2002792  0.080588047   0.11868334 
   36900   -948.47735     45.61168   -902.86567     1633.645    -6544.044    2.1662082  0.062541807   0.10700453 
   37000   -952.63346    46.105761    -906.5277    1651.3411   -8204.5252     2.170514   0.10835137   0.11742218 
   37100   -954.56148    44.869837   -909.69164    1607.0748    1879.6187    2.2006048   0.10683553    0.1195752 
   37200   -949.55802    45.740572   -903.81745    1638.2614    3065.7337    2.1944585   0.21680392    0.1150661 
   37300   -951.18661    45.293741   -905.89286    1622.2576   -4508.2574    2.1782039   0.11921605   0.12219153 
   37400   -954.36385    42.123421   -912.24043    1508.7082   -2955.7044    2.1893239   0.30168991   0.11248541 
   37500   -950.64869    46.244182   -904.40451    1656.2989    626.37099    2.1856226   0.12895749    0.1175355 
   37600   -949.52465    44.347694   -905.17695    1588.3736    1060.9781    2.1906114  0.068121931    0.1238719 
   37700    -953.7715    41.331316   -912.44019    1480.3379   -882.14363    2.1948959  0.055187298   0.11578161 
   37800   -946.39648    41.791926   -904.60455    1496.8352   -2378.3302    2.1755869  0.012356542    0.1247682 
   37900   -951.58073    47.041605   -904.53913    1684.8597   -1100.5779    2.1890207  0.058010945   0.13122881 
   38000   -950.95516    41.514458    -909.4407    1486.8973    4486.0507    2.1976729   0.53219936   0.12455094 
   38100   -948.74311    44.168487   -904.57462     1581.955   -1157.1961    2.1811807   0.30185079    0.1206773 
   38200   -946.91375    44.430821   -902.48293    1591.3509    -2480.077     2.172827   0.29122562   0.13435979 
   38300   -950.06492    41.870565   -908.19436    1499.6518    -1101.645    2.1872156  0.059681613   0.11169134 
   38400   -949.88198    43.963051   -905.91893    1574.5971    6136.1638    2.2028247  0.026703279   0.10977572 
   38500   -947.84858    48.275721   -899.57286    1729.0613   -2963.1075    2.1736169   0.25060545   0.13862216 
   38600   -949.66737    41.634241   -908.03313    1491.1875   -8584.0063    2.1675794  0.053643602   0.11891386 
   38700   -951.91352    45.421837   -906.49168    1626.8455   -1430.0792    2.1856798  0.036131159   0.12106064 
   38800   -946.91057    47.584679   -899.32589    1704.3106    8601.8858    2.1974477   0.10077318   0.12413712 
   38900   -950.26801    43.026076   -907.24193     1541.038    1446.1086     2.191276  0.099813057    0.1264526 
   39000    -945.2697    37.307582   -907.96212    1336.2223   -6821.2796    2.1621651   0.16120566   0.14058545 
   39100   -948.34229    45.833839   -902.50845    1641.6019   -3820.1837    2.1739438   0.36542781   0.13384595 
   39200   -953.83438    45.352491   -908.48189    1624.3618    8443.1871    2.2146321   0.28506401    0.1161692 
   39300   -951.97611    42.454355   -909.52175     1520.561    1247.6701    2.1972073   0.18036138    0.1169176 
   39400   -946.34639    41.827723   -904.51866    1498.1174   -7734.9508    2.1637676   0.11422292   0.13114176 
   39500   -945.98687    40.453177   -905.53369    1448.8861   -2467.0157    2.1747568  0.063764742   0.12737934 
   39600   -952.48114    41.049554   -911.43159    1470.2461     10249.96    2.2178217   0.21778743   0.11954948 
   39700   -947.84084    44.717995   -903.12284    1601.6364    4326.1595    2.1881411  0.049608752   0.09921896 
   39800   -945.75638    40.115738   -905.64064    1436.8003   -4685.4635    2.1653717  0.074482094    0.1232748 
   39900   -952.63542     41.35591   -911.27951    1481.2187   -4038.6884    2.1822257  0.019433363   0.12179711 
   40000   -948.46352    43.894097   -904.56942    1572.1274    5992.7681    2.2000934   0.30339014   0.13970219 
   40100   -947.45224    43.869097   -903.58314     1571.232      4383.61    2.1918295   0.14575384   0.12397074 
   40200   -946.72331    37.580037   -909.14327    1345.9806   -1697.4989    2.1775743   0.30090538   0.10608234 
   40300   -949.58511    45.294627   -904.29049    1622.2893    -3107.547    2.1751127   0.04659866   0.11734908 
   40400   -947.39452    45.459759   -901.93476    1628.2037      990.008    2.1838511 0.0020190357   0.11551097 
   40500   -949.73621    41.461221   -908.27499    1484.9906    1210.6502    2.1918733   0.11149626   0.11772169 
   40600   -948.11253    42.862022    -905.2505    1535.1622   -125.10252    2.1807596   0.34720593   0.12265007 
   40700   -945.70742    45.641773   -900.06565    1634.7228   -1452.1656    2.1691953   0.21038109   0.11395302 
   40800   -951.55005    43.055114   -908.49494     1542.078     1446.488    2.1914206   0.21824954   0.10308059 
   40900   -947.88394    42.371237   -905.51271     1517.584    3158.9336    2.1893725   0.15349624   0.12795451 
   41000   -946.28677    45.490151   -900.79662    1629.2922   -3620.8948    2.1697224   0.05789772   0.14047341 
   41100    -952.4319    42.402447   -910.02945    1518.7019   -1165.3695    2.1877727   0.20605766   0.12033976 
   41200   -949.99302    43.317681   -906.67534    1551.4822    1394.7449    2.1847939   0.13439859   0.10418976 
   41300   -947.71145    45.621579   -902.08987    1633.9995    2808.7461    2.1790484  0.060836413   0.10270099 
   41400   -949.64466    39.374725   -910.26993    1410.2599    254.59379    2.1874596  0.063581899   0.10416823 
   41500     -951.391    42.935701    -908.4553    1537.8011   -7585.5376    2.1715486  0.077488324   0.11679965 
   41600   -948.47627    44.977272     -903.499    1610.9228    2163.0289    2.1847055  0.025186349   0.10959978 
   41700   -952.36819    43.416988    -908.9512    1555.0391    7115.4797    2.2093889   0.43870756   0.12399544 
   41800   -953.24142    42.249055   -910.99236    1513.2079   -2217.5885    2.1884667   0.23662006   0.11554557 
   41900    -946.2721    42.216956   -904.05515    1512.0583   -8886.5714    2.1558648   0.06101135   0.12294377 
   42000   -946.57048     39.80534   -906.76514    1425.6829    1875.7588    2.1820007   0.11011656   0.12905813 
   42100   -952.19641    41.771966   -910.42444    1496.1203    11985.375      2.21692    0.1031138   0.10064651 
   42200   -946.46826    45.472247   -900.99602     1628.651   -1263.9305    2.1707083   0.33981774   0.11108797 
   42300   -949.46236    43.682302   -905.78005    1564.5416   -10341.597    2.1565002  0.030236657  0.099709478 
   42400   -950.23781    41.832148   -908.40567    1498.2758    1131.8447    2.1883412  0.042960685   0.11109314 
   42500   -949.76573    46.899831    -902.8659    1679.7819     10418.07    2.2062551   0.17302779   0.11269656 
   42600   -947.14048    45.337414   -901.80307    1623.8217   -1649.3766    2.1738021  0.075093749   0.11026648 
   42700   -949.15143    40.732259   -908.41917    1458.8818   -9538.7488    2.1593122   0.25234526   0.10145136 
   42800   -951.11943    45.870214   -905.24921    1642.9047    624.63213    2.1818734   0.10595375    0.1044735 
   42900   -946.03743    47.701793   -898.33563    1708.5052    5606.2972    2.1903277  0.072232178   0.13335928 
   43000   -951.26153    43.638886   -907.62265    1562.9866    20.329923     2.187419   0.15089492   0.10939742 
   43100   -948.28374    41.259475   -907.02426    1477.7648   -3782.8408    2.1692968   0.21762677    0.1119003 
   43200   -944.65734    43.370383   -901.28695    1553.3698   -184.99949    2.1724803  0.077717958   0.11228339 
   43300   -949.57904     40.50332   -909.07572     1450.682    3651.4765    2.1933388   0.25351388   0.10438181 
   43400   -948.88753    40.299588   -908.58794    1443.3851    352.42512    2.1843003   0.12768344   0.11701642 
   43500   -945.46137    41.553885   -903.90748    1488.3095   -1787.1644    2.1761656  0.052262883   0.11555569 
   43600   -947.19482    40.689989   -906.50483    1457.3678    1311.0102     2.181227  0.047447883   0.10522097 
   43700   -951.08629    39.953901   -911.13239    1431.0039    4073.3959    2.1976958  0.088434761   0.11402084 
   43800   -944.29372    40.146179   -904.14754    1437.8905    2067.4485    2.1818871  0.073492324   0.13636695 
   43900   -949.76597    43.661142   -906.10483    1563.7838   -3962.7068    2.1743177  0.030510615    0.1153102 
   44000   -953.88039    41.137388     -912.743     1473.392    -1312.422    2.1909833  0.028610654   0.10195097 
   44100   -946.13735    42.062233   -904.07511    1506.5166    4920.9034    2.1882981  0.022209741   0.12068028 
   44200   -946.25128    41.414208   -904.83708    1483.3068     6609.059    2.1953146   0.12712082   0.12382929 
   44300   -949.70639    39.087565   -910.61882    1399.9748   -1719.5091    2.1830571   0.28151465   0.11532465 
   44400   -945.54521    42.010697   -903.53451    1504.6708    -6330.661    2.1628587  0.068708623   0.11840345 
   44500   -948.00134    44.807467   -903.19387     1604.841    4450.7555    2.1955325   0.20745905   0.12376661 
   44600   -951.02273    43.577229    -907.4455    1560.7783    7267.7179    2.2069791  0.024920211   0.11155088 
   44700   -949.96117    43.868977   -906.09219    1571.2277   -6042.5498    2.1684876  0.050373592   0.11868402 
   44800   -944.77167    44.598729   -900.17294    1597.3647   -10467.866    2.1476986   0.34118625   0.13463916 
   44900   -952.62697    44.988848   -907.63812    1611.3374     2492.297    2.1989001  0.058999984   0.12047069 
   45000    -953.2256    46.800671   -906.42492    1676.2303    7943.2256    2.2120899  0.072557819   0.12324449 
   45100   -947.90183    47.784392   -900.11744    1711.4636   -6749.8615    2.1639124  0.060025371   0.11564309 
   45200   -952.21247    45.176721   -907.03575    1618.0663   -11378.384    2.1605815   0.14252142   0.11258441 
   45300   -951.43078    43.687032   -907.74374     1564.711   -292.67838    2.1900241  0.033826537   0.11281276 
   45400   -947.65596    45.214765   -902.44119    1619.4289    8892.2576      2.20027   0.19730387   0.12037734 
   45500   -949.41993    44.457685   -904.96224     1592.313   -2777.9686    2.1773587  0.077627424   0.12509527 
   45600   -950.98853    40.446337   -910.54219    1448.6411   -4565.8381    2.1781965  0.042847637   0.10636687 
   45700   -950.70559    46.084001   -904.62159    1650.5618    956.83229    2.1848822  0.030936177   0.10969477 
   45800   -950.45185    46.041541   -904.41031     1649.041    2576.6684    2.1903661  0.046409469    0.1142612 
   45900   -951.43908    38.810096   -912.62899    1390.0369    1741.0267    2.1960578   0.20202745   0.11652215 
   46000    -949.4049    43.848958   -905.55594    1570.5107   -6004.8083    2.1697109  0.017080378   0.12546631 
   46100   -948.84946    44.545578   -904.30388    1595.4611   -311.29162    2.1802917  0.065181011   0.13121354 
   46200   -950.05036    39.039502   -911.01086    1398.2534    5499.0931    2.2043723   0.12203917   0.12769706 
   46300   -949.64111    42.639373   -907.00174    1527.1877    1791.1116    2.1932472   0.22383238   0.13060016 
   46400   -948.57079    44.934441   -903.63635    1609.3887   -3305.4899    2.1742354   0.15598241   0.11779131 
   46500   -952.74017    44.531164   -908.20901    1594.9448   -3517.9122    2.1849732   0.28500537   0.10984691 
   46600   -951.62669    41.060088    -910.5666    1470.6235    3338.7873    2.2023539  0.073538571   0.12101956 
   46700   -948.02149    46.415363   -901.60613      1662.43   -2656.5493    2.1780613  0.038540778   0.13377321 
   46800   -952.57367    46.606562   -905.96711     1669.278    -5304.187    2.1763628   0.23372331   0.11797433 
   46900   -951.99335    43.514592   -908.47875    1558.5349    151.35547    2.1908531  0.062904713   0.11508215 
   47000   -946.75544    46.888665   -899.86678    1679.3819    6824.9237     2.198528   0.45548474    0.1269568 
   47100   -947.91129    44.366544   -903.54474    1589.0487    2350.0695    2.1898665  0.080713452   0.12925389 
   47200   -949.56751    41.075641   -908.49187    1471.1805   -11154.251     2.156464  0.043509839   0.12740069 
   47300   -949.73732    46.412817   -903.32451    1662.3388   -4794.4361     2.173203   0.12946049   0.12974261 
   47400   -945.69129    46.689635   -899.00165    1672.2534    12644.311    2.2064163   0.32675242   0.12134603 
   47500   -951.40812    43.758943   -907.64917    1567.2866    5331.3834    2.2024784  0.090362027   0.10227655 
   47600   -950.50158    44.379603   -906.12197    1589.5165   -10698.943    2.1591635  0.041828867  0.099708825 
   47700   -943.07236    41.180077   -901.89228     1474.921   -3391.6302    2.1638359  0.091518651   0.12161295 
   47800   -952.38228     41.10002   -911.28227    1472.0536    9554.2755    2.2184607   0.18244498   0.11850076 
   47900   -952.42055    45.135995   -907.28455    1616.6077    1280.2707    2.1969147   0.16269597   0.11588098 
   48000   -944.57024    40.487911   -904.08233    1450.1301   -3362.0006    2.1646385   0.43239394    0.1256145 
   48100   -951.08493    41.274597   -909.81033    1478.3064   -5153.7101    2.1774301  0.034221752   0.11617093 
   48200   -955.29363    45.337876   -909.95576    1623.8383     3261.134    2.2053701   0.02247361   0.11414037 
   48300   -948.38233    45.149061   -903.23327    1617.0756    3944.1977     2.190038  0.051665533   0.11111633 
   48400   -949.10271    41.365358   -907.73735    1481.5571    -3944.777    2.1743018   0.31290572   0.10487108 
   48500   -949.92177    38.558769     -911.363    1381.0353   -1553.8306    2.1843347    0.1332481   0.10347752 
   48600   -944.77339    42.286888    -902.4865     1514.563    2181.4239    2.1836252  0.028187632   0.11999999 
   48700   -948.51545    43.076798   -905.43865    1542.8547    3781.8441     2.196894   0.01873228   0.11987361 
   48800   -952.90366    43.098938   -909.80472    1543.6477   -1062.6614    2.1911967  0.088151874   0.12032191 
   48900   -944.75557    43.711309   -901.04426    1565.5806   -6401.9185    2.1634562   0.18234493   0.12174227 
   49000   -947.38992    43.504922     -903.885    1558.1885    3667.4404    2.1929988   0.21783482   0.11735677 
   49100   -950.70985    43.307971   -907.40188    1551.1345    8728.2414    2.2106562   0.22860832   0.12402123 
   49200   -944.05409    39.719758   -904.33433    1422.6177   -3311.6826     2.169879  0.042649256   0.12966874 
   49300   -940.79862    39.772971   -901.02564    1424.5236   -12236.329    2.1384205   0.20600462   0.13604958 
   49400   -951.44863    43.228245   -908.22038     1548.279    4544.5743    2.2021019   0.19420515   0.10721239 
   49500   -952.47131    46.799468   -905.67185    1676.1872    13032.119     2.223855   0.14639428   0.11380433 
   49600   -943.95812    43.076833   -900.88129    1542.8559    -1341.017    2.1674193   0.03118612   0.12024786 
   49700   -950.82612    41.925413   -908.90071    1501.6163   -11739.386    2.1603801  0.043655789   0.10956494 
   49800   -949.78464    42.054043    -907.7306    1506.2233    1624.6351    2.1886972  0.060182957   0.11747926 
   49900   -950.09413    48.062626    -902.0315     1721.429    8476.1557    2.2018832   0.21433418   0.11458894 
   50000   -946.79704    38.748106   -908.04894    1387.8166    3303.9944    2.1874971  0.022877854   0.11613672 
   50100   -950.42503    40.362354   -910.06268    1445.6331    -7405.081    2.1697502   0.10299235    0.1269811 
   50200   -947.38533    43.767337   -903.61799    1567.5873   -1737.8571    2.1765743   0.15015902   0.13542317 
   50300   -949.01366    42.060412   -906.95325    1506.4514    7581.2263    2.2040222   0.11745178   0.11201463 
   50400   -951.01088    39.785698   -911.22519    1424.9794    4472.3327    2.2016885   0.25229901   0.10972729 
   50500   -950.10237    46.922215   -903.18015    1680.5836   -9557.1126    2.1621453  0.095843131   0.10960117 
   50600   -950.28569    43.699538   -906.58615     1565.159    -3925.889    2.1742472   0.16109279   0.11027086 
   50700   -950.73879    41.411506   -909.32729      1483.21    6836.1685    2.2088268   0.21405471   0.12284106 
   50800   -946.80878    46.667173   -900.14161    1671.4489    4230.3005    2.1846835  0.026608554   0.11080469 
   50900   -949.51173    43.599935   -905.91179    1561.5916    -7374.307    2.1676739  0.099992844   0.11135652 
   51000   -949.57726    40.478943   -909.09832    1449.8089   -4371.8525     2.172871  0.098397423   0.11721572 
   51100   -948.72633    47.568914   -901.15742     1703.746    7340.3818    2.1964748   0.26342524    0.1186034 
   51200     -947.183    43.745577   -903.43742    1566.8079    15113.047    2.2125818  0.055930698    0.1216203 
   51300    -949.2039    40.282772   -908.92113    1442.7828    -13202.79    2.1505195  0.019216242   0.12131225 
   51400   -945.16287    39.777767   -905.38511    1424.6954   -14042.484     2.139351    0.3323308   0.11355121 
   51500   -947.18122    47.421659   -899.75956    1698.4719    12054.617    2.2048474   0.19839524   0.11534072 
   51600   -946.74411    38.113612   -908.63049    1365.0913    13031.537    2.2150045   0.12691211    0.1225931 
   51700   -948.77634    41.507576   -907.26876    1486.6508   -7200.1517    2.1670125  0.071981072   0.11377494 
   51800   -950.78524    47.949419   -902.83582    1717.3743   -9219.1457    2.1597363  0.035298845   0.11025533 
   51900   -953.91963    43.722778   -910.19685    1565.9914    2840.1502    2.2040198   0.36124155   0.11587964 
   52000   -949.24493    42.214025    -907.0309    1511.9533    5586.8799    2.1984954   0.15595875   0.11714215 
   52100    -946.9031    43.598923   -903.30418    1561.5553     -3070.32    2.1678718    0.1898906   0.12279054 
   52200   -950.60998    40.434192   -910.17579    1448.2061   -5015.8349    2.1743383   0.16750838   0.11712058 
   52300    -952.4554    45.194521   -907.26088    1618.7038    1695.6519     2.194981  0.054063762   0.11025908 
   52400   -947.01669    45.209322   -901.80737     1619.234    6702.6741    2.1919884  0.086609564   0.13645174 
   52500   -949.21422    40.126925   -909.08729    1437.2009     -2162.67    2.1811302  0.094167851   0.12746916 
   52600   -947.61335    40.859433   -906.75391    1463.4367   -5437.0396    2.1682481   0.13376997   0.11957174 
   52700   -948.43033     47.11062   -901.31971    1687.3316    689.21229     2.181001   0.17745856   0.11601274 
   52800   -950.41963    42.436907   -907.98272    1519.9361    7574.1945    2.2072362   0.10339454   0.11814696 
   52900   -952.09681    44.621844   -907.47497    1598.1926   -2754.1247    2.1853204  0.032829168   0.10927034 
   53000    -947.0249    45.728874   -901.29603    1637.8424   -10082.647    2.1500462  0.052736874   0.11428151 
   53100   -952.85315    43.203247    -909.6499    1547.3836   -500.35505    2.1938231  0.076654392   0.12435288 
   53200   -949.61396     43.23527   -906.37869    1548.5306    11722.626     2.216524  0.063377349   0.12578096 
   53300     -949.195    47.281104   -901.91389    1693.4377    -2220.404    2.1758444   0.10666749   0.13284745 
   53400   -949.92974    40.860342    -909.0694    1463.4693   -13038.904    2.1528396  0.064648811   0.12635015 
   53500   -950.19081    42.105221   -908.08559    1508.0563    -1903.405    2.1815948    0.1084748   0.11781956 
   53600   -944.36172    43.320862   -901.04086    1551.5962    15976.001    2.2119972   0.20987892   0.13170589 
   53700   -948.68538    41.053646   -907.63173    1470.3927    3390.4509    2.1926624   0.26625454   0.11544522 
   53800    -949.5644    39.368391   -910.19601     1410.033   -8286.0805    2.1678265   0.13009142   0.12159131 
   53900   -947.49921    45.364849   -902.13436    1624.8044   -2907.9937    2.1723202  0.062552321   0.12724376 
   54000   -952.09273    45.300898   -906.79184    1622.5139    2155.8506    2.1991274  0.062725363    0.1214553 
   54100   -950.95446    40.937085   -910.01738    1466.2179    702.05662     2.195695  0.090999119   0.12546771 
   54200   -944.41591    42.819054   -901.59686    1533.6232   -5343.8964     2.164106  0.043749497   0.14256029 
   54300    -948.5826    41.452043   -907.13056    1484.6619   -1720.2697    2.1826049  0.072840928   0.13792381 
   54400   -951.38633    42.953794   -908.43254    1538.4491    4037.6456    2.1988019   0.07468647   0.12470523 
   54500   -943.97513    43.350098   -900.62503    1552.6433    2389.5442    2.1816558   0.10997958   0.13262883 
   54600   -948.94589    41.687958   -907.25793    1493.1115   -3506.8586    2.1764543    0.1147829   0.13661564 
   54700   -951.78077     43.16889   -908.61188    1546.1531   -5420.0765    2.1792547  0.042593039   0.12799717 
   54800   -948.84082    48.035548   -900.80527    1720.4591    1301.7935    2.1861891  0.083142426   0.12201768 
   54900   -951.41048    44.080181    -907.3303    1578.7922    4528.9719    2.2025703   0.11264655   0.12177995 
   55000   -950.72615    41.616901   -909.10925    1490.5665   -6613.1755    2.1719888   0.13739576   0.12115514 
   55100   -944.45401    41.914184   -902.53982    1501.2141   -6276.0763    2.1599582   0.05035461   0.14085851 
   55200   -951.48803    43.250645   -908.23738    1549.0813    7543.0675    2.2084228   0.12645671   0.14545887 
   55300   -954.85817    46.118821   -908.73935    1651.8089    7871.5407    2.2164839   0.38744859   0.13609664 
   55400   -950.72355    47.650046   -903.07351    1706.6518    -8464.282    2.1622815   0.10400097   0.12400904 
   55500   -950.84501    44.458844   -906.38617    1592.3546   -13696.539    2.1530126   0.03404005   0.11259129 
   55600   -951.61266    42.220131   -909.39253     1512.172    7829.7457    2.2080809    0.1171621   0.12127793 
   55700    -950.7382    49.640979   -901.09722    1777.9598    7966.8592    2.2047143  0.066717976   0.13170048 
   55800   -947.78048    41.852725   -905.92775    1499.0128   -1209.8667    2.1793488   0.19788045   0.12411486 
   55900   -951.35974    41.493195   -909.86655    1486.1358   -5231.3432    2.1757509   0.15564917   0.11284616 
   56000   -945.94421     44.73386   -901.21035    1602.2046    17.950672    2.1798264  0.066515893   0.12596131 
   56100   -950.92572    46.323943   -904.60178    1659.1556    3347.6001    2.1951405    0.1244478   0.12205985 
   56200   -949.99817    40.859648   -909.13852    1463.4444   -1407.1219    2.1840533   0.22405307    0.1351095 
   56300   -946.76903    44.789982   -901.97905    1604.2147   -5231.7607    2.1637283   0.08531232   0.13240376 
   56400   -948.89049    44.398246   -904.49224    1590.1842    1634.0914    2.1826653  0.082770772   0.11502004 
   56500    -950.9218    42.181689   -908.74011    1510.7951    6095.3999    2.1974377  0.017755002   0.10804614 
   56600   -946.45148    43.364648   -903.08683    1553.1644    1171.5531    2.1784904   0.22854518   0.13307255 
   56700   -947.69048    43.517981    -904.1725    1558.6562   -6546.8399    2.1644214    0.2624538    0.1199204 
   56800    -952.1628    41.720579   -910.44222    1494.2798   -278.57217    2.1889428   0.22282292   0.12475248 
   56900    -948.8964    45.557192   -903.33921    1631.6934    6579.1263    2.1977616   0.25181196   0.12674558 
   57000   -949.53333    44.160365   -905.37297    1581.6641   -220.58515    2.1814369   0.27301439   0.12795666 
   57100   -950.63839    38.284514   -912.35388    1371.2125   -7257.6229    2.1668765    0.2061473   0.12575929 
   57200    -950.4401    44.894918   -905.54518    1607.9731   -3261.5387    2.1724506  0.050155629   0.12089891 
   57300   -947.26207     44.21224   -903.04983    1583.5221    14941.103    2.2173408  0.096454918   0.13696818 
   57400   -950.60386     40.13514   -910.46872    1437.4952    6508.6841    2.2034518  0.012889924   0.12044988 
   57500   -945.36106    42.026786   -903.33427    1505.2471   -14196.034    2.1410278   0.12552824   0.12274354 
   57600   -946.98715    43.468883   -903.51827    1556.8977   -3766.4929    2.1707583  0.065620849   0.12665799 
   57700   -950.31924    42.788001   -907.53124     1532.511    10631.059    2.2098761   0.13871696   0.11781177 
   57800   -951.63281    44.583051   -907.04976    1596.8032    2662.4438    2.1930815  0.029760157   0.11190256 
   57900   -946.84959    46.500843   -900.34874    1665.4916   -8581.9421    2.1531506   0.36576331   0.11626676 
   58000   -950.75526    42.501343   -908.25392     1522.244   -2206.2194    2.1821705   0.33596488   0.12426607 
   58100   -950.22078    44.004386   -906.21639    1576.0775    4984.0036    2.1978579   0.14454655   0.12483951 
   58200   -945.93397    46.120455   -899.81351    1651.8674    1139.7542    2.1760352   0.09879771   0.12843115 
   58300   -951.54567    43.124575   -908.42109    1544.5659   -5852.1028     2.177206   0.10874936   0.10983832 
   58400   -953.67441    46.050621   -907.62379    1649.3662    -4146.182    2.1783106   0.45248874   0.10742568 
   58500   -948.71671    46.587819   -902.12889    1668.6067    2957.6826    2.1882543  0.013525811   0.10964752 
   58600   -949.97272     41.07178   -908.90094    1471.0422    4350.8669    2.1939892   0.13705004   0.12054164 
   58700   -953.96777    44.480033   -909.48774    1593.1135   -8374.3889    2.1692351  0.012372643   0.10586799 
   58800   -949.45067    45.170623   -904.28004    1617.8479   -4441.9042    2.1709915  0.017342813   0.11683166 
   58900   -948.42701    41.491005     -906.936    1486.0573     9954.359    2.2083532   0.31820671   0.12419824 
   59000   -954.85374    43.529198   -911.32454     1559.058    6455.8212    2.2105927   0.21118948   0.11515238 
   59100   -945.58429    41.614879   -903.96941     1490.494   -11540.209    2.1463165  0.021000188   0.12175325 
   59200   -948.25035    42.283092   -905.96726     1514.427   -11841.831    2.1539282  0.056681342   0.10352756 
   59300   -951.80274    42.796729   -909.00601    1532.8236     14135.42    2.2221597   0.13950775   0.10506952 
   59400    -946.4633     46.16666   -900.29664    1653.5223    9362.7338    2.2018782   0.28689288   0.11920272 
   59500   -948.59477    44.431549   -904.16323     1591.377    -8033.776    2.1618067  0.072656317   0.11563566 
   59600   -947.26129    38.585657   -908.67563    1381.9983   -4991.2937    2.1713697   0.27037939   0.12702152 
   59700    -947.7375    42.971127   -904.76637    1539.0699    5603.7907    2.1972805  0.061848011   0.11744462 
   59800   -949.14659    48.404111   -900.74248    1733.6597    1267.1758    2.1865356   0.25076175    0.1254571 
   59900   -951.87131    43.700569   -908.17074    1565.1959     -4877.07    2.1806308   0.04365353   0.12326333 
   60000   -948.72362    42.954784   -905.76884    1538.4846   -2915.8117    2.1757203   0.19855238   0.12702328 
   60100   -946.71421    47.254453   -899.45976    1692.4832    101.74437    2.1771865   0.01275201   0.13262533 
   60200    -949.7235    41.361334   -908.36216     1481.413    6245.1743    2.2002196   0.02624697   0.11278142 
   60300   -948.79373    42.383262   -906.41047    1518.0147   -2650.8556    2.1758095  0.079114476   0.10636557 
   60400   -948.47174    46.449204   -902.02254     1663.642   -8590.4735    2.1604237   0.07523241   0.11335367 
   60500   -952.56547    41.462699   -911.10277    1485.0435    2469.4163    2.2025162  0.081669263   0.13137679 
   60600    -950.7922     43.66296   -907.12924    1563.8489    4191.1644    2.1993653  0.041500172   0.13082608 
   60700   -948.79939    45.415918   -903.38347    1626.6335   -5556.5676    2.1660423   0.23010113   0.12331646 
   60800   -950.90403    41.032591   -909.87144    1469.6386   -11230.675    2.1625712   0.11585668   0.11840209 
   60900   -954.05199    45.221932   -908.83005    1619.6856    4854.9583    2.2029446  0.015947534   0.10444547 
   61000    -948.7228     47.26263   -901.46017     1692.776    13393.678    2.2144158   0.14881144   0.13487684 
   61100   -948.27479    41.062327   -907.21246    1470.7036   -5809.5687    2.1666288   0.28847479   0.11214578 
   61200   -951.50936     41.64344   -909.86592     1491.517   -14395.318    2.1521455 0.0085085323   0.11854504 
   61300   -945.96306    44.517003   -901.44605    1594.4376    4424.9867    2.1854685   0.23371828   0.12048206 
   61400   -948.01245    44.316063   -903.69639    1587.2407    11798.336    2.2085295   0.11179637   0.10960447 
   61500   -949.76544    40.575303   -909.19013    1453.2602   -2322.8909    2.1825015  0.038955652   0.12809416 
   61600   -946.21334    43.947046   -902.26629    1574.0238   -4632.2603    2.1627616   0.11757556    0.1281717 
   61700   -947.27921    43.816703    -903.4625    1569.3554    470.43455    2.1806779  0.084457639   0.12130148 
   61800   -948.02748    39.513785   -908.51369    1415.2405    6338.8363    2.1992992    0.1762558   0.11824611 
   61900   -950.52154    47.043242   -903.47829    1684.9183   -1003.9322    2.1825216   0.11541256   0.11800694 
   62000   -944.96593    41.481934     -903.484    1485.7324   -5564.0146    2.1634458  0.033907178   0.12072139 
   62100    -948.3925    37.916616   -910.47588    1358.0357    2097.8107    2.1901016  0.057014341   0.12098233 
   62200   -945.22612    41.497128     -903.729    1486.2766    9070.7645    2.1998596  0.053416496   0.11489989 
   62300   -944.81682     39.78726   -905.02956    1425.0354    4481.7689    2.1854258  0.034199318   0.12733931 
   62400   -952.97802    40.706741   -912.27127    1457.9679   -6869.2241    2.1750142  0.074822653   0.10889274 
   62500   -950.86659    45.816809   -905.04978    1640.9919   -4513.1102    2.1732574   0.28013932   0.11531046 
   62600   -947.06737    43.662941   -903.40443    1563.8482    10140.386    2.2031338  0.088732853    0.1344606 
   62700   -952.13005    41.462609   -910.66744    1485.0403    6161.6249    2.2047594   0.12102667   0.11268438 
   62800    -944.9424    41.710433   -903.23197    1493.9165   -10343.594    2.1490019   0.28545232   0.11253295 
   62900   -949.48458    45.541529   -903.94305    1631.1324    -6945.256    2.1634609   0.15762837   0.10949714 
   63000   -951.15239    43.518862   -907.63353    1558.6878    13353.669    2.2189028    0.1792707   0.12807648 
   63100   -951.15345    43.272225   -907.88122    1549.8542    7916.3562    2.2068746  0.099073774   0.12146579 
   63200    -945.8642    44.765209   -901.09899    1603.3275   -16569.771    2.1353522   0.09192823   0.13062656 
   63300   -950.52541    41.570312    -908.9551    1488.8978   -8119.2861    2.1673123  0.099282589   0.11070198 
   63400   -949.70702     43.43335   -906.27367    1555.6251    10710.598    2.2058756  0.063509063   0.11299027 
   63500   -948.63943    47.707221   -900.93221    1708.6996    1930.7824    2.1840477   0.18137157   0.13491185 
   63600   -951.28721    42.877041   -908.41017    1535.7001   -5670.4996    2.1737995   0.29294095   0.12424467 
   63700   -949.80499    41.509691    -908.2953    1486.7266   -4635.4155    2.1730876   0.30273901   0.11844897 
   63800   -948.85562     46.53962     -902.316    1666.8804    3905.8225     2.186902   0.11097038   0.11447242 
   63900   -951.52104    42.451291   -909.06975    1520.4513    4389.6036     2.196841  0.028394865   0.11168354 
   64000   -951.07278    41.247446   -909.82534    1477.3339   -4288.8907    2.1787183  0.078894101   0.12444833 
   64100   -945.07772    41.260129   -903.81759    1477.7882   -2495.0599    2.1684209  0.033353065   0.13731498 
   64200   -951.28089    43.787488   -907.49341     1568.309    2571.9377    2.1932753  0.098205913   0.11049755 
   64300   -953.32139    42.262281   -911.05911    1513.6816    5898.2768    2.2057089   0.31068376   0.11233914 
   64400   -951.94358    49.034308   -902.90927    1756.2311   -7404.8095    2.1664374   0.32411717   0.13096109 
   64500   -946.32383    39.518489   -906.80534     1415.409   -5343.6199    2.1665947   0.41003378   0.12233357 
   64600   -949.67389    39.969479   -909.70442    1431.5618    7566.9151    2.2042793   0.26308151    0.1197928 
   64700   -945.90643    45.621966   -900.28447    1634.0134    9902.8191    2.1978588   0.04536178   0.11951274 
   64800   -947.22657    42.468291   -904.75828    1521.0602   -2934.1727    2.1733065   0.11524869   0.10733413 
   64900   -950.53377    41.149326   -909.38444    1473.8196     -12130.3    2.1576995  0.094400533    0.1234416 
   65000   -950.83788    47.794535   -903.04334    1711.8269    2593.8109    2.1897734  0.047745623   0.12502891 
   65100   -949.12534    48.162097   -900.96325    1724.9917    14099.025    2.2193805 0.0073098849   0.11782277 
   65200   -946.28151    38.127365   -908.15415    1365.5839   -1878.9739    2.1808544   0.26868492   0.13518087 
   65300   -950.60384    44.728081   -905.87576    1601.9976   -13897.187    2.1556784   0.23375917    0.1204898 
   65400   -946.55323    46.862184   -899.69104    1678.4335    1689.8643    2.1809434   0.31584106   0.12766476 
   65500   -950.31909    41.409984   -908.90911    1483.1555     8657.331    2.2120835   0.21941856   0.13541436 
   65600   -951.84497    44.685631   -907.15934    1600.4772   -2932.7706    2.1828736  0.070763085    0.1007841 
   65700    -944.5279    41.848538   -902.67936    1498.8629   -4300.5886    2.1649332  0.023521662   0.11292623 
   65800   -951.47606     40.34026    -911.1358    1444.8418    907.06801    2.1948784   0.08932463   0.11977257 
   65900   -949.53141    41.561185   -907.97022    1488.5709    3627.6229    2.1973557 0.0095507641   0.11775455 
   66000   -947.07375    43.827931   -903.24582    1569.7575    1178.7292    2.1804679    0.0307216   0.11533206 
   66100   -953.76449    43.997011   -909.76748    1575.8134   -6545.3214    2.1748446   0.14225146   0.11603929 
   66200   -948.91857    39.967568     -908.951    1431.4934   -589.01055    2.1845178   0.24716804   0.11729162 
   66300   -945.86427    43.456751   -902.40752    1556.4632     7231.654    2.1908729   0.40040854   0.12329903 
   66400   -950.46069    42.245002   -908.21569    1513.0628   -1500.3436    2.1866668   0.13516794   0.12727677 
   66500    -949.3199    39.658409   -909.66149    1420.4204   -4691.6703    2.1713591  0.080522726   0.10337095 
   66600   -947.18309    45.577163   -901.60592    1632.4087   -3109.0774    2.1666823   0.12259623   0.11593573 
   66700   -948.52689    42.110966   -906.41592    1508.2621    10504.736    2.2078699   0.29775316   0.10957472 
   66800   -953.66092    45.321693   -908.33923    1623.2587    2125.9417    2.1967443  0.079621664   0.10124758 
   66900   -944.11443    43.489364   -900.62507    1557.6313   -12217.546    2.1384787  0.096618235   0.13193291 
   67000   -949.17443    42.130117   -907.04431     1508.948   -5938.4493    2.1664682   0.12641261   0.11050369 
   67100   -952.01356    44.616825   -907.39673    1598.0129    10205.392    2.2130046   0.21142486   0.11483144 
   67200   -948.18263    45.451003   -902.73163    1627.8901    6949.1249    2.1965018  0.072976048   0.13750693 
   67300   -947.66983    43.134712   -904.53512     1544.929   -10089.844    2.1571898  0.076333524   0.11129969 
   67400   -951.59479    40.986577   -910.60821    1467.9906   -6302.7842    2.1768835  0.033764602   0.11154695 
   67500   -947.95848    44.472474     -903.486    1592.8427    6504.9778      2.19501      0.13453   0.11919366 
   67600   -947.05964     41.69666   -905.36298    1493.4232    5346.5095    2.1937098  0.052484622    0.1106627 
   67700   -952.12531    40.059048   -912.06626    1434.7698   -2808.2932    2.1873151  0.077387183   0.10416817 
   67800    -948.7248    44.499306    -904.2255    1593.8038   -4454.2514    2.1717261  0.066185954   0.10318715 
   67900   -942.45244    37.767811   -904.68463     1352.706     6108.238    2.1892411  0.050602416   0.11711517 
   68000   -949.98171    39.043212    -910.9385    1398.3863    5500.4974    2.2000793  0.012255268   0.12165908 
   68100   -946.43393    43.748174   -902.68576    1566.9009   -2283.8477    2.1680191   0.02829252    0.1215705 
   68200   -947.85752    42.945985   -904.91154    1538.1694   -776.23892    2.1753248  0.069611803   0.11296392 
   68300   -951.32343    41.632494   -909.69093    1491.1249    1664.7581    2.1938158  0.095760837   0.11282613 
   68400   -942.09209    40.775188   -901.31691    1460.4194    4631.7644    2.1801969   0.14551264   0.11190877 
   68500   -949.90805    45.445136   -904.46291      1627.68   -1520.2853    2.1778498  0.041821377   0.10461766 
   68600    -949.3347    39.884957   -909.44974    1428.5345   -3677.4727    2.1750091  0.030112944   0.11374655 
   68700   -947.68049    45.290099   -902.39039    1622.1271    2346.8127    2.1831054   0.26098196   0.10939828 
   68800   -948.69985    45.696662   -903.00319    1636.6887    10290.787     2.202504   0.02075669   0.10889087 
   68900   -952.01306    43.016672   -908.99638    1540.7012   -5924.2751    2.1769191  0.069057193   0.10882114 
   69000   -948.60337    43.837145   -904.76622    1570.0875   -12912.056    2.1522487   0.10980025   0.11934701 
   69100   -942.65345     42.02799   -900.62546    1505.2902    3987.3148    2.1795229   0.34496289   0.13212532 
   69200   -950.70021    41.686164   -909.01405    1493.0472    13473.649    2.2222306   0.17393742   0.10649788 
   69300   -949.65829    44.058433   -905.59985    1578.0133   -2891.7846    2.1764523  0.079419955   0.12050544 
   69400   -946.47974    42.916001   -903.56374    1537.0955   -11507.777    2.1469427  0.040617161   0.11176023 
   69500   -953.33096    41.811535   -911.51943    1497.5376    1060.4999    2.1941073  0.035685325   0.10662812 
   69600    -948.5832    42.696281   -905.88692    1529.2259    9854.2809     2.205874  0.098104425   0.10709111 
   69700   -947.93843    44.403503   -903.53492    1590.3724    958.13062    2.1817675   0.19559854   0.10656619 
   69800   -953.01941    42.519155   -910.50025    1522.8819   -7436.8753     2.173707  0.073134309   0.11123496 
   69900   -951.47901    44.496667   -906.98234    1593.7092   -2724.0414    2.1829489  0.084560277   0.12329471 
   70000   -946.13874    43.810796   -902.32794    1569.1438    6572.5019    2.1933164   0.12650095   0.13804806 
   70100   -951.97113    43.105143   -908.86599    1543.8699    1223.3557    2.1950296   0.18524517   0.10699214 
   70200   -949.55316    42.787637   -906.76553     1532.498    -3717.261      2.17555   0.12153146   0.10866586 
   70300   -945.32101    43.751836   -901.56917    1567.0321   -3015.6962    2.1693563  0.014259311   0.10988201 
[...]
  186800   -949.94219    44.878181     -905.064    1607.3737     8318.414    2.2049119    15.903218   0.12606113 
  186900   -951.98574    42.623586   -909.36215    1526.6223   -1135.0599     2.187143    14.930144   0.11370556 
  187000   -947.09327    46.340393   -900.75288    1659.7448   -4361.2917    2.1659306    17.978161   0.10867317 
  187100   -950.03882    46.247445   -903.79137    1656.4158   -562.69279    2.1877973    14.630241   0.12353537 
  187200   -950.81642     42.88275   -907.93367    1535.9046    1296.1047    2.1937587    15.572752   0.10549747 
  187300   -946.97246    43.896198   -903.07626    1572.2026   -419.92514     2.180638    15.585617   0.11618722 
  187400   -943.85209    42.541885   -901.31021    1523.6961   -1379.1583    2.1710072    15.077931   0.12674123 
  187500   -950.23803    41.928382   -908.30964    1501.7226    1625.5335    2.1912099    14.142431   0.10626434 
  187600   -948.58981    44.030059   -904.55975     1576.997    4079.0178    2.1946584    15.600029   0.11743098 
  187700   -947.28176    46.546845   -900.73491    1667.1392   -1853.5812    2.1744594    16.273278   0.12643187 
  187800   -952.79949    42.641443   -910.15805    1527.2619   -3038.1348    2.1856164    15.472544   0.10442566 
  187900   -948.55366    41.766122   -906.78754     1495.911   -429.84318    2.1843155    14.563009    0.1239227 
  188000   -949.99262    47.139178   -902.85344    1688.3544    827.07571    2.1845534    16.174319   0.11054676 
  188100   -950.37495    39.644601   -910.73035    1419.9258    2334.6107    2.1960531    18.141164  0.098212976 
  188200   -950.85885     41.87618   -908.98267    1499.8529   -6374.3845    2.1722452    14.475424   0.11801116 
  188300   -946.78589    42.418079   -904.36781    1519.2617   -824.55855    2.1766793    17.274663   0.11677459 
  188400    -948.5688    41.264488   -907.30431    1477.9443    9059.4806    2.2047119    16.086718   0.10802073 
  188500   -954.09534    41.975776   -912.11957    1503.4201    3427.2148    2.2041525    15.299597   0.10861232 
  188600   -946.93032    42.818092   -904.11222    1533.5888    -7580.462    2.1592876     16.09543   0.11288301 
  188700   -948.14538    42.046297   -906.09908    1505.9459   -4304.5026    2.1662014    15.464035   0.11949794 
  188800     -948.672    37.948699    -910.7233    1359.1848    9931.0245    2.2106894    13.784831   0.12374275 
  188900   -948.61106    46.744093   -901.86697    1674.2039    4031.0001    2.1904926     15.97975   0.11462506 
  189000   -948.10607    43.916581   -904.18949    1572.9327    -4887.565    2.1652766    15.849225   0.10396743 
  189100   -954.80452    45.983108   -908.82141    1646.9482   -9329.3764    2.1697723    15.542128    0.1002203 
  189200   -950.69384    45.223174   -905.47067    1619.7301    4227.1421     2.195485    15.540831  0.096835846 
  189300   -949.16102    48.619813    -900.5412    1741.3854    3187.9128    2.1872779    15.449947   0.10898221 
  189400   -949.78076    42.166788   -907.61397    1510.2614   -6196.7144    2.1692693    14.645551   0.11992893 
  189500   -948.71159     41.97953   -906.73206    1503.5545   -6116.0382    2.1675921    15.685183   0.11912639 
  189600   -947.55854    48.809103   -898.74944    1748.1651     3448.936     2.185012    15.869634   0.12836965 
  189700    -947.6805    41.283092   -906.39741    1478.6106    12067.253    2.2108137     12.98612   0.11082059 
  189800   -948.62263    40.517621   -908.10501    1451.1943    -8327.563    2.1637955    15.134955   0.11203512 
  189900   -944.47452    42.288315    -902.1862    1514.6141   -11949.325    2.1394573    13.789319   0.11239456 
  190000   -952.98388     44.87837   -908.10551    1607.3804    5904.3589    2.2026812     15.11409   0.10789493 
  190100   -951.64965    42.703791   -908.94586    1529.4949    11723.636    2.2142887    17.722714   0.10336014 
  190200   -950.64796    45.879679   -904.76828    1643.2437   -4383.4836    2.1715823    16.044636  0.095432467 
  190300   -950.98598    46.611578    -904.3744    1669.4577   -7911.3775    2.1628696    15.289329   0.11937505 
  190400   -954.17008    42.329223   -911.84086    1516.0793    1837.9843    2.1965159    14.986982   0.10579418 
  190500   -948.38906    43.984458    -904.4046    1575.3638    284.07531    2.1843747    15.298484   0.12934797 
  190600   -947.16429    42.356951   -904.80734    1517.0724   -1562.7072    2.1770268    13.839203   0.12197939 
  190700   -949.65226    37.704753   -911.94751    1350.4475    200.81252     2.184194    15.214627     0.112636 
  190800   -946.51597    41.856301   -904.65967    1499.1409    2447.3992    2.1776365    15.187418    0.1145949 
  190900   -946.85154    42.784116   -904.06742    1532.3719    5316.4009    2.1864742     18.50587   0.10247817 
  191000   -952.97383    42.748751   -910.22508    1531.1052   -1055.5857      2.18358    15.197338   0.10489947 
  191100   -947.54867    44.172073    -903.3766    1582.0835   -1829.8616    2.1651041    15.904656  0.098122383 
  191200   -948.12906    45.283812   -902.84524    1621.9019    3304.3744    2.1821389    12.982217   0.10390077 
  191300   -954.37485    46.156385   -908.21847    1653.1543    804.61035    2.1926839    14.541892   0.09726911 
  191400   -948.33221    44.089715   -904.24249    1579.1337   -2563.4263    2.1704807    14.229703   0.11488657 
  191500   -943.16945    41.596228   -901.57322     1489.826   -4662.4221    2.1595844     14.67492   0.12718654 
  191600   -951.05151    42.342983   -908.70853    1516.5721    2682.0109    2.1931597    15.298285   0.10926119 
  191700   -950.15833    45.305811   -904.85252    1622.6898    9525.8941    2.2039581     13.24747   0.11826718 
  191800   -945.65469    44.543297   -901.11139    1595.3794   -2287.1454    2.1661467    15.188146   0.11003869 
  191900    -949.6463     39.59813   -910.04817    1418.2614   -8736.6626    2.1623698    14.929439   0.11743778 
  192000   -951.75481    45.166669   -906.58814    1617.7063   -1625.2438     2.182334    13.918323   0.11386197 
  192100   -948.26382    46.641209   -901.62261    1670.5189    10129.235     2.206022     15.01835   0.11812154 
  192200   -952.29141    42.249382   -910.04203    1513.2197   -185.75417    2.1894841     13.40669   0.11296064 
  192300    -949.8784    42.127312   -907.75109    1508.8475   -12954.434    2.1514909    13.424056   0.11142924 
  192400   -947.21093    43.824568   -903.38636    1569.6371   -1914.3636    2.1733984    16.016047   0.11441455 
  192500   -948.39366    40.557639   -907.83602    1452.6275    12969.094     2.212195    14.786456   0.10900968 
  192600   -951.70545    40.796935   -910.90852    1461.1983    3197.4852    2.1968475    14.420662   0.10187327 
  192700   -946.45731    43.483534   -902.97378    1557.4225   -6313.7413    2.1563378    14.097631   0.11960828 
  192800   -948.08301    40.919656   -907.16336    1465.5937    -1192.485    2.1790727    14.040171   0.12946041 
  192900   -951.30424    41.744283   -909.55996    1495.1288    4786.7489    2.2011497    13.625503   0.10815876 
  193000   -947.49147    46.655756   -900.83572      1671.04   -2166.1547     2.173581    14.639877   0.12734099 
  193100   -948.08897    41.379286   -906.70968     1482.056   -1541.9675    2.1745282    11.799326   0.10433854 
  193200   -948.84094    40.390564   -908.45038    1446.6435    3047.9552    2.1882952    16.615415   0.11095042 
  193300   -945.75818     46.09251   -899.66567    1650.8666    1657.9682    2.1758523    16.717464   0.12774106 
  193400   -947.71208    41.613595   -906.09848    1490.4481    3488.2992    2.1872133    14.719282   0.10287962 
  193500   -949.66922    41.390928   -908.27829    1482.4729   -1221.8465    2.1795887    14.977217   0.11451858 
  193600    -944.9787    44.187095   -900.79161    1582.6215    -2260.265     2.168654    13.643466   0.11858861 
  193700   -950.38788    43.841446   -906.54643    1570.2416     2982.656    2.1922089    15.325918   0.11575416 
  193800   -949.14872    40.802255   -908.34646    1461.3888    756.64092    2.1859521    14.672001   0.11795375 
  193900   -945.16101    42.122946   -903.03807    1508.6912   -1741.6809    2.1696564    14.673205   0.12541804 
  194000   -950.33402    45.393735   -904.94029     1625.839   -759.53265    2.1796388    15.496179   0.11811937 
  194100   -950.58941    40.531221   -910.05819    1451.6813    4770.9003    2.2016334    16.201962   0.12523236 
  194200    -947.6528    43.458447   -904.19435     1556.524    1669.2002    2.1878581    14.880115   0.12531467 
  194300   -946.36502    43.636964   -902.72806    1562.9178   -4322.2934    2.1618725    17.743372   0.12008676 
  194400   -952.93883    40.719098   -912.21973    1458.4104   -2561.3553    2.1880235    16.675468   0.10835466 
  194500   -949.86608    42.414987   -907.45109     1519.151    4440.3535    2.1972684    14.564944   0.10426436 
  194600   -946.78382    43.211737   -903.57208    1547.6877    3615.1891    2.1863097    14.673611   0.13401914 
  194700   -950.82662    41.374089   -909.45253    1481.8698   -4544.0634    2.1747527    14.098151   0.12288219 
  194800   -948.97859    38.937036   -910.04155    1394.5834   -2660.4738    2.1783239    13.713487   0.11227239 
  194900   -947.68724    44.162736    -903.5245    1581.7491    5463.1635    2.1926913    15.725553   0.13115656 
  195000   -950.27643    43.088653   -907.18778    1543.2793    4444.5807    2.1945819    15.769237   0.12616727 
  195100   -952.92738    40.172796   -912.75459    1438.8439   -5723.8905    2.1774321    15.593957   0.11233555 
  195200    -947.1111    43.601693   -903.50941    1561.6545     -5855.46    2.1595902    15.494973   0.12343027 
  195300   -949.57362     44.68344   -904.89018    1600.3988    9362.2501    2.2073425    14.455806   0.11471095 
  195400   -952.75434    44.330603   -908.42374    1587.7614    9042.1093    2.2114941    15.010948   0.10200649 
  195500   -946.91589    46.902546   -900.01334    1679.8791   -10588.771    2.1497338    15.513622   0.12684638 
  195600   -947.68337     44.24996   -903.43341    1584.8731   -8341.1446    2.1586668    16.956291   0.11596436 
  195700   -952.32642    45.137614    -907.1888    1616.6656    5180.6386    2.1962689    15.648129   0.10098655 
  195800   -950.31104    44.640803   -905.67024    1598.8717    5883.7832    2.1963561      14.5683    0.1095714 
  195900     -947.031    47.648482   -899.38252    1706.5958   -7353.7463    2.1571853    15.002949   0.12283147 
  196000   -952.73737    44.135389   -908.60198    1580.7696   -3651.3274    2.1807955    17.696425   0.11463431 
  196100   -949.98784    43.637208   -906.35063    1562.9265      2575.64    2.1911392    14.597027    0.1286981 
  196200   -947.96292    47.000136   -900.96279    1683.3744    2562.5368    2.1812189    15.746072   0.10762649 
  196300   -948.67983    41.147834     -907.532    1473.7662   -1669.9043    2.1784751    13.630922   0.11097807 
  196400   -951.97797    43.251981   -908.72598    1549.1291   -4432.0939    2.1789264    13.549086   0.11244683 
  196500    -949.3288    45.383773   -903.94502    1625.4822    2741.6521    2.1886924    13.923243   0.12010893 
  196600   -948.78716    42.095543   -906.69162    1507.7097    2409.9002    2.1905569     16.31011    0.1253942 
  196700   -952.00096    40.220183   -911.78078    1440.5411     153.0971    2.1872968    16.990068   0.10753141 
  196800   -949.99067    44.841011   -905.14966    1606.0424   -3375.1719    2.1751493    16.632221  0.099742735 
  196900   -945.91451     41.09016   -904.82435    1471.7005    5351.5917    2.1875429    16.384384   0.11025883 
  197000   -951.40338    38.788497   -912.61489    1389.2633    5756.5421    2.2046212    14.550196   0.11954832 
  197100   -948.62716    43.941633   -904.68553    1573.8299   -4950.2292    2.1665233     17.14268   0.11240894 
  197200   -947.39097     42.54315   -904.84782    1523.7413   -3606.1142    2.1695572    13.596186   0.12442221 
  197300   -951.36558     42.75649   -908.60909    1531.3824    7906.0777    2.2086131    13.413324   0.11074687 
  197400   -955.66839     43.50344   -912.16495    1558.1354    7653.4502    2.2152365    14.563719   0.10107546 
  197500   -947.10912    44.307498   -902.80162    1586.9339   -14769.318    2.1430505    15.396729   0.12436226 
  197600   -947.68162    41.121236   -906.56038    1472.8136   -7955.3412    2.1607198    17.615472   0.11755659 
  197700   -951.26566    44.698692   -906.56697     1600.945    10381.602     2.213225    17.560971   0.10837167 
  197800   -946.90155    49.554131   -897.34742    1774.8492    6854.7828    2.1906739    16.112636   0.11185874 
  197900   -946.18529    42.266083   -903.91921    1513.8178   -4745.5035    2.1664415    15.192584   0.11536504 
  198000   -952.69675    44.896478   -907.80027     1608.029   -9244.9952    2.1700545     14.90133   0.11973164 
  198100   -949.05184    44.691203   -904.36064    1600.6768    3816.3282    2.1934455    15.792337   0.12299455 
  198200   -942.77071    44.426628   -898.34408    1591.2007    4237.2631    2.1839363    14.797101   0.12060706 
  198300   -949.59233     42.62553    -906.9668    1526.6919   -2801.4522    2.1804656     13.98347   0.11775261 
  198400    -951.2514    44.625462   -906.62594    1598.3222   -5032.1211    2.1758546     15.53332    0.1173285 
  198500   -944.29674     43.72223   -900.57451    1565.9717     3905.552    2.1850882    16.985826   0.12636724 
  198600   -948.10333    45.923716   -902.17962    1644.8209    1791.4251    2.1877007    15.914303    0.1277182 
  198700   -949.54103    41.908299   -907.63273    1501.0033   -4798.5847    2.1747631    16.435304   0.10939742 
  198800   -950.32844    44.432802   -905.89564    1591.4218    -3168.378    2.1795468    15.788609   0.10084017 
  198900   -946.80751    45.877847   -900.92966    1643.1781    7953.3786    2.1976299    14.573821   0.12035499 
  199000   -948.12045    49.312315   -898.80814    1766.1883    778.50388    2.1821937    14.999072   0.12250276 
  199100   -951.25283     43.67219   -907.58064    1564.1795   -10131.246    2.1619915    14.893668   0.11494265 
  199200   -950.84997    44.056757   -906.79322    1577.9533   -1838.6271    2.1844084    14.565727    0.1074169 
  199300   -948.62599     45.12132   -903.50467     1616.082    14482.918    2.2160294    16.170301   0.10873277 
  199400   -951.24653    43.942492   -907.30404    1573.8607   -428.05025    2.1851803    13.791215   0.12008654 
  199500   -950.94009    38.734142   -912.20595    1387.3165   -10853.047    2.1635407    16.509647   0.11350956 
  199600   -950.65174    43.950316   -906.70143    1574.1409    559.55381    2.1851179    16.340944   0.10341543 
  199700   -948.87675    45.299303   -903.57744    1622.4567    10506.589     2.204685    14.248116   0.10507782 
  199800   -950.64491    40.526867   -910.11804    1451.5254    1040.8748    2.1894636     16.04549  0.095647923 
  199900   -953.51688    42.907121   -910.60976    1536.7775   -9492.0927    2.1705155    14.549325   0.12452084 
  200000   -949.71767    44.868316   -904.84935    1607.0204   -1353.7874    2.1816731    12.920633   0.12507061 
  200100   -951.00507    44.692195   -906.31288    1600.7124    4092.3941    2.1968089    13.724851   0.11983501 
  200200   -955.21547    41.717242   -913.49823    1494.1603     541.9358    2.1958609    14.187197   0.10413809 
  200300   -948.91243    44.056501   -904.85593    1577.9441   -6265.9473    2.1651016    14.052965   0.11995313 
  200400   -947.91794    42.882851   -905.03509    1535.9082    2190.1998    2.1855694    15.776816   0.13008824 
  200500   -950.94446    42.412313   -908.53215    1519.0552    4084.3762    2.1971914    14.641498    0.1223144 
  200600   -953.23125    41.881314   -911.34993    1500.0368     14.56118    2.1888155    14.257665   0.10877161 
  200700   -949.39716    47.683145   -901.71401    1707.8373   -9461.0663    2.1559361    15.674794   0.10850054 
  200800    -949.2035     44.26026   -904.94324     1585.242     1427.756    2.1826918    16.015517   0.11395669 
  200900    -950.7001    43.356857   -907.34324    1552.8854     4056.003    2.1963073    15.734196   0.12587481 
  201000     -950.963      44.6975    -906.2655    1600.9024   -2402.5169    2.1806124     16.24896   0.11951601 
  201100   -949.95303    50.732235   -899.22079    1817.0447   -8296.0373    2.1557414    14.950521   0.11602414 
  201200   -946.13032    39.969766   -906.16056    1431.5721    2022.6233    2.1802069    15.558102   0.11946385 
  201300    -948.0384    41.005472   -907.03293    1468.6673    4604.2827    2.1934058    16.637493   0.11523983 
  201400   -944.91547    45.678109   -899.23736    1636.0242     3632.346    2.1756925    16.425315   0.12701497 
  201500   -944.61158    41.459807   -903.15178    1484.9399   -2991.3792    2.1672413    16.425187   0.13393874 
  201600   -951.10115    43.205798   -907.89536     1547.475    -5017.038    2.1746545    16.087695   0.11831376 
  201700   -949.41977     45.19979   -904.21998    1618.8926    3996.4676     2.192586     13.32265    0.1169255 
  201800   -943.35158    45.741888   -897.60969    1638.3086    5699.2199    2.1815968     16.40963   0.13319692 
  201900   -947.86461    40.713467   -907.15114    1458.2087   -1094.6153    2.1775583    15.629719   0.12196165 
  202000   -949.25609    42.535308   -906.72079    1523.4605    -8199.982    2.1634145    14.622702   0.12295874 
  202100   -948.88818    45.763919   -903.12426    1639.0976    2023.4544    2.1886289    14.360541    0.1279237 
  202200   -953.60381    45.646571   -907.95724    1634.8946    12138.406    2.2156445    17.771729   0.11531457 
  202300   -952.05398    41.450745   -910.60324    1484.6154   -5939.6949    2.1737591    15.560603   0.11502941 
  202400   -946.00005    39.325744    -906.6743    1408.5055   -11165.268    2.1498338    18.019563   0.12268301 
  202500   -947.19263      43.7922   -903.40043    1568.4778    6427.2298    2.1896845    16.835686   0.12533868 
  202600   -953.64996     42.91715   -910.73281    1537.1367    13906.386    2.2252844    13.836044   0.12438494 
  202700   -950.45544    40.903001   -909.55244    1464.9972   -3731.4317    2.1775054    13.612582   0.11788309 
  202800   -950.22435    45.112016   -905.11233    1615.7488   -9652.5486    2.1554051    15.074047   0.11357707 
  202900   -952.01904    45.338113   -906.68092    1623.8468    89.982197    2.1859403    14.397021   0.11653118 
  203000   -955.31652    42.780151   -912.53636    1532.2299     6752.349    2.2137022    16.206263   0.11887295 
  203100    -948.3632     44.88082   -903.48238    1607.4682   -2493.2423    2.1743928        14.81   0.12513175 
  203200   -946.48044    41.871804   -904.60864    1499.6962    227.45849    2.1773295     16.21934   0.11547225 
Loop time of 142.374 on 1 procs for 200000 steps with 217 atoms

Performance: 364.112 ns/day, 0.066 hours/ns, 1404.754 timesteps/s
100.0% CPU use with 1 MPI tasks x no OpenMP threads

MPI task timing breakdown:
Section |  min time  |  avg time  |  max time  |%varavg| %total
---------------------------------------------------------------
Pair    | 138.13     | 138.13     | 138.13     |   0.0 | 97.02
Neigh   | 1.1119     | 1.1119     | 1.1119     |   0.0 |  0.78
Comm    | 0.88557    | 0.88557    | 0.88557    |   0.0 |  0.62
Output  | 0.068553   | 0.068553   | 0.068553   |   0.0 |  0.05
Modify  | 1.8705     | 1.8705     | 1.8705     |   0.0 |  1.31
Other   |            | 0.3111     |            |       |  0.22

Nlocal:    217 ave 217 max 217 min
Histogram: 1 0 0 0 0 0 0 0 0 0
Nghost:    957 ave 957 max 957 min
Histogram: 1 0 0 0 0 0 0 0 0 0
Neighs:    4219 ave 4219 max 4219 min
Histogram: 1 0 0 0 0 0 0 0 0 0
FullNghs:  8438 ave 8438 max 8438 min
Histogram: 1 0 0 0 0 0 0 0 0 0

Total # of neighbors = 8438
Ave neighs/atom = 38.8848
Neighbor list builds = 1886
Dangerous builds = 19
Total wall time: 0:02:24
