LAMMPS (3 Mar 2020)
Reading data file ...
  orthogonal box = (0 0 0) to (12.27 12.27 12.27)
  1 by 1 by 1 MPI processor grid
  reading atoms ...
  108 atoms
  read_data CPU = 0.000921447 secs
Reading potential file /usr/share/lammps-stable/potentials/Ag_u3.eam with DATE: 2007-06-11
Neighbor list info ...
  update every 1 steps, delay 10 steps, check yes
  max neighbors/atom: 2000, page size: 100000
  master list distance cutoff = 7.55
  ghost atom cutoff = 7.55
  binsize = 3.775, bins = 4 4 4
  2 neighbor lists, perpetual/occasional/extra = 1 1 0
  (1) pair eam, perpetual
      attributes: half, newton on
      pair build: half/bin/atomonly/newton
      stencil: half/bin/3d/newton
      bin: standard
  (2) compute rdf, occasional, copy from (1)
      attributes: half, newton on
      pair build: copy
      stencil: none
      bin: none
Setting up Verlet run ...
  Unit style    : metal
  Current step  : 0
  Time step     : 0.005
Per MPI rank memory allocation (min/avg/max) = 3.723 | 3.723 | 3.723 Mbytes
Step PotEng KinEng TotEng Temp Press Density c_msdall[4] 
       0       -307.8    17.081082   -290.71892         1235    9876.3899    10.472245            0 
     100   -295.83098     7.560901   -288.27008    546.66986   -2577.2193    9.9607177  0.073275345 
     200   -294.87745    9.0181623   -285.85929    652.03308   -6338.2175     9.873315  0.089658074 
     300   -294.46307    10.779771    -283.6833    779.40129    10520.444    10.015533  0.081721564 
     400   -295.04761    13.515223   -281.53239    977.18055   -1993.8279    9.8893198  0.092006368 
     500   -291.79689    12.489306   -279.30759    903.00442   -7569.5246    9.6998581   0.11971401 
     600   -292.98646     15.66292   -277.32354    1132.4638   -3355.2828    9.7875616   0.11361549 
     700   -291.01219    16.111803   -274.90038     1164.919    14605.211    9.9033861   0.14476223 
     800   -288.38729    15.356371   -273.03092    1110.2996    100.27367    9.6312478   0.15362555 
     900   -287.43299    16.409378   -271.02361    1186.4343   -16573.291    9.4179399   0.17875406 
    1000   -283.77068    14.876783    -268.8939    1075.6243    4593.5692    9.5005034   0.18618744 
    1100   -285.38807     17.57269   -267.81538    1270.5444    5775.6558    9.5685787   0.19230791 
    1200   -289.38101    17.047154   -272.33386    1232.5469    9772.0286    9.7794436   0.12555903 
    1300   -289.40158    18.180411   -271.22117    1314.4839   -1680.4118    9.6440173   0.15976975 
    1400    -284.7487    16.322328   -268.42638    1180.1404    3750.0397    9.5155189   0.19203481 
    1500   -286.58381    16.175551   -270.40826    1169.5281   -4857.8089    9.5110765   0.20208232 
    1600   -288.39704    15.226762   -273.17027    1100.9286    141.90857    9.6404385   0.17078348 
    1700   -284.93706    17.042529   -267.89453    1232.2126   -9374.4474    9.3948482   0.21037672 
    1800   -285.21827    17.212858   -268.00542    1244.5277   -3984.6595    9.4462857   0.19997508 
    1900   -289.20645    17.985921   -271.22053    1300.4218    10754.627    9.7759859   0.14419714 
    2000   -288.60351     16.47391    -272.1296    1191.1001    12280.673    9.7760835   0.12573368 
    2100   -283.24561    16.296933   -266.94867    1178.3043   -505.63411    9.4547562   0.26508249 
    2200   -287.42355    19.588699   -267.83485    1416.3063   -2434.9764    9.5537071   0.21996449 
    2300   -288.07907    17.575353   -270.50372    1270.7369   -4430.9849    9.5545478   0.19642835 
    2400   -287.66267    13.578022   -274.08465    981.72106   -9314.3185    9.5091582    0.1864731 
    2500   -282.24393    13.249641   -268.99429    957.97833   -2343.6038    9.4020292   0.27845733 
    2600    -286.2728    17.663955   -268.60885     1277.143    1782.7273    9.5360794   0.22800087 
    2700   -287.12773    18.437474   -268.69026    1333.0702    1434.9567    9.5696255   0.19315692 
    2800   -288.09756    16.603326   -271.49423    1200.4572   -11690.496    9.4877048   0.16573963 
    2900   -290.10083    14.942894   -275.15794    1080.4043    6184.4318    9.7824829   0.12624008 
    3000   -288.49265    18.233669   -270.25898    1318.3346   -1441.5783    9.5982124   0.17053398 
    3100   -285.55662    16.455149   -269.10147    1189.7437    -7492.203    9.4489289   0.21680292 
    3200   -283.24808    15.025255   -268.22283    1086.3591    7976.7065    9.5049665   0.23254831 
    3300   -288.33927    16.751093   -271.58818    1211.1411   -10353.491    9.5091871   0.18961457 
    3400   -287.56639    15.767204   -271.79918    1140.0037    7158.2688    9.6828359   0.15795015 
    3500   -287.46747     19.43091   -268.03656    1404.8978    5810.9351    9.6426642    0.1573381 
    3600   -286.45651    16.691887   -269.76462    1206.8604    10746.261    9.6675722   0.17812412 
    3700   -289.07984    15.884198   -273.19564    1148.4626   -8889.3552    9.5714501   0.16688136 
    3800   -285.20801    16.978195   -268.22981    1227.5611   -17673.059    9.2925849   0.23149265 
    3900   -286.88926    17.835674   -269.05359    1289.5587    -8967.851    9.4628341     0.213413 
    4000   -286.48179    18.004055   -268.47773     1301.733    10438.009    9.6555659   0.17143755 
    4100   -283.88838       19.668   -264.22038    1422.0399    2353.5209    9.4575779   0.18155748 
    4200   -287.65726    18.568898   -269.08836    1342.5724   -8668.6913    9.5046745   0.16161435 
    4300   -288.47597    17.519865   -270.95611     1266.725    690.28519    9.6397844    0.1466375 
    4400   -284.91028    17.211337   -267.69895    1244.4178   -2138.4897    9.4596459    0.2219225 
    4500   -283.76414    18.262463   -265.50168    1320.4165   -296.14475    9.4259652   0.22425418 
    4600   -285.19224    14.562475   -270.62977    1052.8991    1955.8026    9.5296371   0.20983995 
    4700   -286.26819    16.381672   -269.88652    1184.4311   -3865.4044    9.5152159   0.18654162 
    4800   -284.68163    18.568146   -266.11348     1342.518    14106.747    9.6249249   0.23311976 
    4900   -286.34475     19.26137   -267.08338    1392.6396    1972.2795     9.545935   0.21776463 
    5000   -286.50102    16.309099   -270.19192    1179.1839   -8668.9725    9.4817668   0.19581531 
    5100   -286.92612     16.66535   -270.26077    1204.9417   -10930.154    9.4514933   0.18541939 
    5200   -284.99551     17.65748   -267.33803    1276.6749    14236.971    9.6391786   0.19443555 
    5300   -284.18781    19.365926   -264.82188    1400.1993    21688.198    9.6935631   0.20474589 
    5400    -287.6465    19.735035   -267.91146    1426.8867    1174.3387    9.6060293   0.19214924 
    5500   -287.47276    17.271352   -270.20141     1248.757   -8808.5834      9.51885   0.16171196 
    5600   -287.85129    14.982626   -272.86867     1083.277    767.99689     9.619986   0.16164449 
    5700   -283.12212    15.730016   -267.39211     1137.315    8523.8705    9.5062931   0.22180225 
    5800   -286.93199    18.502778   -268.42921    1337.7918   -2460.8109    9.5445091   0.20033532 
    5900   -287.63539    17.017288    -270.6181    1230.3876     3150.869    9.6415092   0.16098037 
    6000   -287.91771    15.230453   -272.68726    1101.1954    11582.175     9.743717   0.14326529 
    6100   -290.58858    14.721112   -275.86747    1064.3689   -14439.415    9.5732876   0.15295219 
    6200   -286.37972    15.647444   -270.73227    1131.3448   -1102.3413    9.5446256   0.19012952 
    6300   -287.76331    17.881192   -269.88212    1292.8497    6806.2833    9.6732232   0.14989915 
    6400   -287.36529    18.233994    -269.1313    1318.3581    14840.106    9.7393838    0.1526459 
    6500   -285.13765    17.077715   -268.05994    1234.7566    2851.4948    9.5295385   0.17602822 
    6600   -284.63906    21.330076   -263.30899    1542.2117   -18820.084    9.2550726   0.21217429 
    6700    -287.5306    18.592016   -268.93859    1344.2439   -5613.4245    9.5240278    0.1666189 
    6800   -288.12743    18.334211   -269.79322     1325.604    -1798.862     9.594798   0.16636142 
    6900   -287.63516    18.298619   -269.33654    1323.0306   -11936.179    9.4564017   0.21282837 
    7000   -283.39089    17.292311   -266.09858    1250.2723    4961.4335    9.4633334   0.24264343 
    7100   -287.80533    16.527979   -271.27736    1195.0094    5532.8866    9.6752411   0.14833367 
    7200   -287.88399    17.026287    -270.8577    1231.0382    3775.5564    9.6457829   0.16037028 
    7300   -286.15208    16.845089   -269.30699    1217.9372   -4513.0631    9.4998941    0.1801721 
    7400   -285.39207    20.006805   -265.38526    1446.5362   -12519.865     9.337341    0.2144273 
    7500   -285.39975    19.394449    -266.0053    1402.2616   -4254.0917    9.4328483   0.22908358 
    7600   -285.38978    16.179281    -269.2105    1169.7978    3471.8177    9.5615577   0.21264621 
    7700   -286.42635     17.03115    -269.3952    1231.3898   -4323.0091    9.5067096   0.19762166 
    7800   -284.74466    16.858366   -267.88629    1218.8972    14683.095    9.6466896   0.19221576 
    7900   -281.41439    19.612282   -261.80211    1418.0114     -61.6343    9.3272364   0.25475598 
    8000   -283.80166    18.387393   -265.41427    1329.4492    12150.934    9.5587561   0.22205532 
    8100    -285.4689    17.324844   -268.14406    1252.6245      3658.01    9.5597104   0.22551318 
    8200   -284.18577    14.356113   -269.82966    1037.9787    -1796.654    9.4685405    0.2395972 
    8300   -285.50923    16.073921   -269.43531    1162.1801   -1978.2389     9.520991   0.19042986 
    8400   -282.25379    18.648389    -263.6054    1348.3198    20099.414    9.5983066    0.2340824 
    8500   -286.27619    18.974948   -267.30124    1371.9307    16668.552    9.7339477   0.14854931 
    8600   -288.57998    18.647314   -269.93267     1348.242    708.04797    9.6318738   0.16377088 
    8700   -284.89037    17.251669    -267.6387    1247.3339   -119.13612    9.5185979    0.1997131 
    8800   -285.96696    16.516443   -269.45052    1194.1754    1898.2941    9.5494565   0.20103255 
    8900   -288.05035    15.889196   -272.16116     1148.824    -2243.429     9.595869   0.18819973 
    9000   -284.82126    17.181509   -267.63975    1242.2611   -10072.273    9.3753356   0.21254586 
    9100   -284.76495     16.31047   -268.45448     1179.283   -947.93351    9.4949003   0.22664922 
    9200   -289.08957    16.981868    -272.1077    1227.8266    5341.9182    9.7200448   0.14856892 
    9300   -285.78637    16.540561   -269.24581    1195.9192    14961.047    9.7101506   0.18524389 
    9400   -284.81723    17.048855   -267.76838      1232.67   -4761.5917    9.4398494    0.2139581 
    9500    -285.9823    14.871474   -271.11083    1075.2404   -6356.1047    9.4653555   0.21353426 
    9600   -286.78125    15.963138   -270.81812    1154.1702    -810.9559    9.5451186   0.15950811 
    9700    -284.8824    18.481085   -266.40132    1336.2233    20969.752     9.686699   0.18469006 
    9800   -286.52001     17.20632   -269.31369     1244.055   -2841.2207    9.5278434    0.1990937 
    9900    -289.7731    16.496455   -273.27664    1192.7302   -10670.679    9.5667682    0.1499345 
   10000   -285.46911    16.470834   -268.99828    1190.8777   -2415.0443    9.4940978   0.20192284 
   10100   -283.94499    15.141112   -268.80387    1094.7359    12899.105    9.5954448   0.21842075 
   10200   -286.11757    17.471835   -268.64573    1263.2523   -3585.4484    9.5036376   0.23536281 
   10300   -282.11401    18.495071   -263.61893    1337.2346    11523.988    9.4601231   0.30130472 
   10400   -281.90645      18.3955   -263.51095    1330.0353   -1110.7633    9.3414735   0.30726617 
   10500   -284.85586    15.982146   -268.87372    1155.5445   -8864.1827    9.3898234   0.22058024 
   10600   -285.76145    16.446932   -269.31451    1189.1495    321.43961    9.5299679   0.17574173 
   10700   -287.23013    16.934225    -270.2959    1224.3819    10267.205    9.7183134   0.16507143 
   10800   -288.52949    14.453121   -274.07637    1044.9926   -10609.132    9.5411753   0.18974169 
   10900    -288.1313    16.009985   -272.12132    1157.5573   -16158.723    9.4543739   0.17765787 
   11000   -288.68854    19.829203   -268.85934    1433.6952    -3826.068    9.5977264   0.17318735 
   11100   -286.73057    17.557037   -269.17354    1269.4126    20773.374    9.7905019   0.18668145 
   11200   -287.04118    18.717381    -268.3238     1353.308   -1553.8278    9.5505588   0.18626311 
   11300   -282.48882    19.351221    -263.1376     1399.136   -947.62915    9.3735598   0.27223352 
   11400   -284.97435    17.478665   -267.49569    1263.7462   -1190.5016     9.486824   0.21705979 
   11500    -286.5316      16.2349    -270.2967    1173.8191   -744.56686    9.5465038   0.17238525 
   11600   -288.29513     17.04304   -271.25209    1232.2495   -11606.498    9.5052854   0.18463458 
   11700   -283.38271    17.829261   -265.55345     1289.095    1585.3533    9.4202445   0.24397715 
   11800   -285.68914    18.345331   -267.34381     1326.408    4038.1095     9.566189   0.21835551 
   11900   -288.98722    18.514642   -270.47258    1338.6495   -3434.3138    9.6091545   0.14527133 
   12000   -289.54387    19.011742   -270.53212     1374.591   -1901.9352    9.6554566   0.15103367 
   12100   -283.84799    18.811682   -265.03631    1360.1262   -5730.6795    9.3505684   0.23387074 
   12200   -282.86825    14.522445    -268.3458    1050.0049   -3247.9747    9.3664423   0.24944542 
   12300   -284.14435    14.037097   -270.10725    1014.9132    8158.6294     9.542334   0.21652154 
   12400   -288.08301     17.10547   -270.97754    1236.7633   -792.35754    9.5949136   0.18116877 
   12500   -289.53369    14.215638   -275.31805    1027.8221    4340.3848    9.7378523   0.17851192 
   12600   -287.95857    16.532033   -271.42653    1195.3025   -8510.5135    9.5263422   0.17844938 
   12700   -288.08595    18.849273   -269.23667    1362.8442   -4055.6396    9.5622923   0.15456093 
   12800   -287.95358    18.192883    -269.7607    1315.3857    11381.956    9.7229987   0.16635191 
   12900   -286.81068     16.60623   -270.20445    1200.6671   -1821.1792    9.5418262   0.18819666 
   13000   -281.15999    16.436953   -264.72304    1188.4281   -13167.846      9.15538   0.28058334 
   13100   -283.62021    16.237107   -267.38311    1173.9787   -9004.8785     9.323439   0.23832118 
   13200   -285.58497    15.453586   -270.13138    1117.3285    -10520.76    9.3918221   0.24620429 
   13300   -285.95987    16.074292   -269.88558    1162.2069   -3754.4783    9.4933639   0.21630863 
   13400    -284.0573    19.039287   -265.01801    1376.5826    3744.3145    9.4811471   0.19162072 
   13500   -287.41781    17.621695   -269.79611    1274.0875    9202.1546    9.6996375   0.18429099 
   13600   -285.29973    14.949692   -270.35004    1080.8958    6302.6235    9.5677064   0.17186163 
   13700   -283.55269    15.157269   -268.39542    1095.9041   -583.48201    9.4092793   0.22321346 
   13800   -281.85583    16.453132    -265.4027    1189.5978    -11735.12    9.2295604   0.33084024 
   13900   -288.34101    17.930958   -270.41005    1296.4479    -2404.643    9.6211543   0.15861513 
   14000   -287.28462    16.572653   -270.71196    1198.2395    13602.752    9.7495224   0.17270584 
   14100   -286.65118    17.382935   -269.26824    1256.8246    -5624.307    9.5174714   0.19335352 
   14200   -283.22171    16.515408    -266.7063    1194.1005    -706.4121    9.4078424    0.2575073 
   14300   -282.87335    16.532653    -266.3407    1195.3474      190.014    9.4134451    0.2752844 
   14400   -286.14967    15.619118   -270.53055    1129.2968     8840.784    9.6600443   0.22274946 
   14500   -285.37223    15.092532    -270.2797    1091.2234   -4929.9739    9.4535045   0.22734184 
   14600    -284.1274    17.672073   -266.45532      1277.73   -8087.6149    9.3366902   0.25548436 
   14700   -286.66391    17.052192   -269.61171    1232.9112   -7.0131158    9.5751525   0.16831324 
   14800   -289.95454    18.244018   -271.71052    1319.0829   -3374.0044    9.6442271   0.14108235 
   14900   -285.82286    17.476784   -268.34607    1263.6101    12968.587    9.6455826   0.18922665 
   15000   -284.94995    17.036483   -267.91347    1231.7754    8179.1891    9.5728561   0.20217689 
   15100   -288.81759    15.654454   -273.16313    1131.8517   -1034.6169    9.6369652   0.13951849 
   15200   -287.89261    17.348661   -270.54395    1254.3466   -9938.7031    9.5050026   0.17060844 
   15300    -285.8631    17.871797    -267.9913    1292.1704   -1273.4627    9.4930962   0.21574247 
   15400   -285.70302    17.236627   -268.46639    1246.2463   -1792.3979    9.5229208   0.20279287 
   15500    -288.9524    16.612585   -272.33981    1201.1266    376.16068    9.6659236   0.13956789 
   15600     -287.087    17.893237   -269.19377    1293.7206    -5974.975    9.4993906   0.16525548 
   15700   -284.42006    17.085819   -267.33424    1235.3425   -6272.0872    9.3755822   0.23901557 
   15800   -286.59302    15.231294   -271.36173    1101.2562   -5428.0361    9.5164499   0.18946841 
   15900   -287.80889    16.094661   -271.71423    1163.6796    3478.5878     9.648361   0.16799638 
   16000   -285.84099     17.18367   -268.65732    1242.4173    5728.8796    9.5960992   0.23007109 
   16100   -282.85626    16.349887   -266.50637     1182.133   -1951.5174    9.3952628   0.27471099 
   16200   -286.11513     15.44755   -270.66758     1116.892    -11245.32    9.3757991   0.20555194 
   16300   -286.84873    15.836239   -271.01249    1144.9951   -15499.155    9.3880818   0.16943396 
   16400   -284.77519    17.174846   -267.60035    1241.7794    10751.754    9.6052128   0.22322632 
   16500   -284.89041    20.661307    -264.2291    1493.8582    15495.716    9.6388989   0.17354791 
   16600   -286.57317    17.496746   -269.07643    1265.0534    14549.294    9.7334016    0.1674303 
   16700   -286.21604    16.978881   -269.23716    1227.6107    1379.1505    9.5500528   0.21372229 
   16800   -285.21603    18.338797   -266.87723    1325.9356    5263.8669    9.5382783   0.22298127 
   16900   -285.13927    19.073686   -266.06559    1379.0697   -4712.4798    9.4378582   0.20319777 
   17000   -288.23906    17.404675   -270.83439    1258.3965   -11152.145    9.4883383   0.16597212 
   17100   -286.78479    16.928513   -269.85628    1223.9689   -10528.305    9.4476165    0.1878302 
   17200     -286.765    19.531358   -267.23364    1412.1604   -7050.5658    9.4717581   0.20047824 
   17300   -285.22358    19.093679    -266.1299    1380.5153    5932.0531    9.5644821   0.18900279 
   17400   -289.14263    18.177213   -270.96541    1314.2527    6120.0008    9.7323835   0.15497856 
   17500   -286.80497    17.021555   -269.78341    1230.6961   -14226.036    9.4196922   0.21038127 
   17600    -282.9222    16.919688   -266.00251    1223.3309   -3208.5308    9.3646225   0.29138854 
   17700   -282.30154    14.951723   -267.34982    1081.0426    8663.7432    9.4702116    0.2537681 
   17800   -288.39522    18.719743   -269.67548    1353.4788    3354.0503    9.6573249   0.15488635 
   17900   -288.36013    17.014686   -271.34545    1230.1994    5884.0826    9.7013343   0.16094632 
   18000   -283.65389    17.132416   -266.52148    1238.7116    3970.3672    9.4708642   0.22602251 
   18100   -286.38652    17.831152   -268.55537    1289.2317   -19098.514    9.3202233   0.19794387 
   18200   -285.82692    15.513367   -270.31356    1121.6508   -10493.638    9.4040871   0.22318666 
   18300   -286.11169    18.257845   -267.85384    1320.0826    -1082.502       9.5445    0.1902783 
   18400   -288.52675    15.856006   -272.67075    1146.4243    11857.046    9.7889145   0.13760332 
   18500   -287.52789    16.003669   -271.52422    1157.1007   -2197.1223     9.580708   0.16424932 
   18600   -283.65124    15.404114   -268.24712    1113.7515   -3775.0907    9.4042579   0.23754453 
   18700   -286.10292    17.674357   -268.42856    1277.8951    6444.4068    9.6172952   0.21083073 
   18800   -289.30546    16.630926   -272.67454    1202.4527    19334.872    9.8882649   0.13525586 
   18900   -287.56555    17.929443    -269.6361    1296.3384   -5512.8279    9.5378188   0.16131551 
   19000   -285.46604    17.189657   -268.27638    1242.8502   -13183.305      9.36606   0.19980909 
   19100   -287.08741    16.085175   -271.00223    1162.9937   -12294.725    9.4513976    0.1902356 
   19200   -290.10991    16.351287   -273.75862    1182.2342    10821.871    9.8201906   0.12520056 
   19300   -287.69928    18.237022   -269.46226     1318.577    9510.7484    9.7073804   0.15818628 
   19400   -285.35546    17.795917   -267.55954    1286.6842   -4303.4606    9.4460777   0.22280607 
   19500   -286.18191    18.016144   -268.16577    1302.6071   -5595.4169    9.4349524   0.22667547 
   19600   -287.47123    15.040173   -272.43106    1087.4377   -1908.6692    9.5707653   0.17459566 
   19700   -284.92809    15.823147   -269.10494    1144.0485    630.14121    9.4785899   0.22292251 
   19800   -283.98796    17.177134   -266.81083    1241.9448   -9031.4056    9.3500152    0.2365782 
   19900   -285.47519    14.189332   -271.28586    1025.9201   -2267.6883    9.4785904   0.20416838 
   20000   -287.65857    17.533903   -270.12466      1267.74    11426.356    9.7175214   0.18451426 
   20100   -285.87131    20.438325   -265.43298    1477.7361    20933.034    9.7443555   0.19081101 
   20200   -286.54859    17.880757   -268.66784    1292.8183      -9168.2    9.4477551    0.1965643 
   20300   -288.64714    17.078883   -271.56826     1234.841   -8588.4359    9.5566735   0.16336886 
   20400   -285.15489    18.078465   -267.07643     1307.113     7921.835    9.5925348   0.20345761 
   20500   -285.13565    18.121138   -267.01452    1310.1984    8399.1537     9.560842   0.19084046 
   20600   -286.19186    14.904772   -271.28709     1077.648   -2199.4449    9.5060692   0.17833318 
   20700   -284.75964      15.0098   -269.74984    1085.2417   -4485.6187    9.4280263   0.20680181 
   20800   -283.36778    17.135495   -266.23228    1238.9342   -1582.0521    9.4058627   0.24074613 
   20900   -287.63302    17.191251   -270.44177    1242.9655    7114.1287    9.6648689   0.15130289 
   21000   -287.29085    16.298572   -270.99228    1178.4228    6067.6686    9.6390108   0.16079361 
   21100   -283.98821    16.683173   -267.30504    1206.2303   -4194.4657    9.3934615   0.22955579 
   21200   -285.01873    16.598784   -268.41995    1200.1288   -6112.5857    9.4279093    0.2266331 
   21300   -288.53314    16.188612   -272.34453    1170.4724   -808.93475    9.6350165   0.17446411 
   21400    -284.5265    15.149595   -269.37691    1095.3492    6483.0485    9.5535771   0.20924502 
   21500   -284.24772    17.034976   -267.21275    1231.6664    660.10089    9.4520484   0.22065207 
   21600   -287.22789    15.264192   -271.96369    1103.6348   -12737.539    9.4691712   0.22227632 
   21700   -286.43312    15.910024   -270.52309    1150.3299    8333.1994    9.6586724   0.18464209 
   21800   -286.04128    19.050893   -266.99039    1377.4217    6191.1254    9.5835841   0.19099298 
   21900   -286.35275     17.40741   -268.94534    1258.5942   -4052.5507    9.4855379   0.19103466 
   22000   -289.12032    17.062936   -272.05738     1233.688   -4398.3733    9.5993349   0.16212853 
   22100   -284.79385    16.309356   -268.48449    1179.2025     -2890.53    9.4756221   0.19862275 
   22200   -285.18782    17.571235   -267.61658    1270.4391   -373.96011    9.4770946   0.21995396 
   22300   -288.00778    15.623266   -272.38452    1129.5967    797.20989    9.6250845   0.16105204 
   22400   -286.95411    16.803014   -270.15109    1214.8951    8910.4675    9.6512103   0.17232091 
   22500   -284.68859    16.633497    -268.0551    1202.6386    8557.1272    9.5597132   0.17757732 
   22600   -287.55939    16.316342   -271.24304    1179.7076   -9168.7925    9.4878019   0.16088564 
   22700   -288.23993    15.997016   -272.24292    1156.6197   -10527.517    9.5233197   0.16661313 
   22800   -285.73289    18.503952   -267.22894    1337.8766    4643.8172    9.5638466   0.21340612 
   22900   -286.42729    17.545557   -268.88173    1268.5826    18415.179    9.7613453   0.18169482 
   23000   -286.72121    14.920659   -271.80055    1078.7967    3024.5477     9.623637   0.20232301 
   23100   -283.51255    16.126093   -267.38646    1165.9522   -12881.591    9.2935729   0.22605183 
   23200   -284.26626    17.014652   -267.25161    1230.1969    729.30097    9.4765478   0.23617569 
   23300   -286.81107    16.385376   -270.42569     1184.699    13106.011    9.7041011   0.17484038 
   23400   -288.60127    18.393601   -270.20767    1329.8981    6041.3614     9.702281   0.14240962 
   23500   -283.52049    18.138095   -265.38239    1311.4244    15194.734    9.5960083   0.20494654 
   23600   -286.03884    17.537556   -268.50129    1268.0041    580.64696    9.5406435   0.19645893 
   23700    -285.4961    16.566453   -268.92964    1197.7912   -1542.7072    9.5143478   0.22850363 
   23800   -285.61489    16.717129   -268.89776    1208.6854   -13635.035    9.3664944   0.22738858 
   23900   -288.33406    14.400324   -273.93373    1041.1753   -3693.0551    9.6076342    0.1684707 
   24000   -287.29878    16.546068   -270.75272    1196.3173    7611.7021    9.6650543   0.15728158 
   24100   -284.86662    16.539665   -268.32696    1195.8543    1301.8415    9.5183866   0.21375805 
   24200   -283.44559    16.051942   -267.39365    1160.5909      5323.26    9.4817444   0.21714193 
   24300   -287.59358    15.695372   -271.89821    1134.8101    -5774.277    9.5563939   0.20395074 
   24400   -286.53886    17.347474   -269.19138    1254.2607   -1959.4045    9.5417828   0.20651982 
   24500   -283.81875    17.436401   -266.38235    1260.6904    6313.8583    9.5328308   0.21823404 
   24600   -288.63974     17.41923   -271.22051    1259.4489    3907.2479    9.6789814    0.1582416 
   24700   -286.86048    15.682136   -271.17834    1133.8531   -1721.1966    9.5606149    0.1903441 
   24800   -285.00807    17.742582   -267.26549    1282.8279   -5641.7032    9.4302004   0.23894748 
   24900   -285.75803    16.057038   -269.70099    1160.9594   -8946.9065    9.4177583   0.24914606 
   25000   -287.63978    17.312231   -270.32755    1251.7126    7266.7984    9.6666778   0.17290772 
   25100    -282.1047    17.851161   -264.25354    1290.6784    12249.174    9.5299891    0.2509187 
   25200   -287.94699    20.291904   -267.65509    1467.1495    -5676.261     9.537257   0.17070183 
   25300   -285.43554    15.490011   -269.94553     1119.962    -6012.856    9.4658373   0.19565802 
   25400   -287.22632    17.477953   -269.74836    1263.6947   -86.336984    9.5748925   0.18597289 
   25500   -285.93151     21.62571    -264.3058    1563.5866   -1122.5641    9.4843349   0.21434377 
   25600   -285.89926    17.520672   -268.37859    1266.7834    1170.7232    9.5324874   0.20142971 
   25700   -288.07053    18.246639   -269.82389    1319.2723     -1080.17    9.6068702   0.17898554 
   25800   -285.34075    17.312535   -268.02822    1251.7345    7276.9427    9.5766599   0.18021944 
   25900   -282.94742    19.129356   -263.81806    1383.0947   -8698.6489    9.2549715   0.25801524 
   26000   -288.41424    19.010469   -269.40377     1374.499   -9913.7181    9.4993138   0.16150417 
   26100   -287.71211     18.03933   -269.67278    1304.2834   -10489.499    9.4890606   0.17772811 
   26200   -286.66187    17.098725   -269.56314    1236.2756   -3305.0788    9.5269672   0.16316866 
   26300   -282.93401    19.442159   -263.49185    1405.7111    20956.062    9.5888022   0.21899836 
   26400   -284.86459    18.849189    -266.0154     1362.838    9213.8838    9.5591256   0.20433574 
   26500   -286.99386    16.979908   -270.01395    1227.6849   -7256.5389    9.4801345   0.17811399 
   26600   -287.15546    17.959944   -269.19552    1298.5437   -13474.817     9.425077    0.2054899 
   26700   -284.57057    18.095123   -266.47545    1308.3174   -9711.8392    9.3560833   0.25520044 
   26800   -286.32335    15.813128   -270.51022    1143.3241    8.2421901    9.5645904   0.20822255 
   26900   -289.35609    18.329912   -271.02618    1325.2932    1307.2308    9.6739452   0.15746094 
   27000   -285.85991    17.775269   -268.08464    1285.1913    982.71778    9.5295046   0.18799156 
   27100   -283.63492    16.274671   -267.36025    1176.6947   -16637.284    9.2776138    0.2031766 
   27200   -287.36068    14.490345   -272.87033     1047.684   -2733.5367    9.5618755   0.18234773 
   27300   -287.12711    16.274768   -270.85234    1176.7017    4160.9392    9.6057693   0.18771612 
   27400   -286.73783    18.359318   -268.37852    1327.4193    -2378.464    9.5155433   0.18464763 
   27500   -284.70275    17.452736   -267.25002    1261.8714    -10579.63    9.3454284   0.23889471 
   27600   -288.35528    15.937175   -272.41811     1152.293   -3206.5221    9.5938085   0.16693832 
   27700   -288.30196    17.623722   -270.67824    1274.2341   -4320.3839    9.5855308   0.17157522 
   27800   -287.01077    18.663005   -268.34777    1349.3765    14684.528    9.7131074   0.17864427 
   27900   -286.65968    16.697157   -269.96252    1207.2414    5869.1654    9.6540812   0.17395747 
   28000   -287.19414    13.737111   -273.45703    993.22353   -8887.6226    9.4993663   0.19419037 
   28100   -285.98464    17.438109   -268.54653    1260.8139    -9833.696    9.3946861   0.17976653 
   28200   -286.88155    17.752385   -269.12916    1283.5367   -1286.9508    9.5583336   0.21449267 
   28300   -286.15861    18.209028   -267.94958     1316.553    1149.9302    9.5232422   0.19243989 
   28400   -282.50756    18.715684   -263.79187    1353.1854   -6841.5768    9.3045607   0.26690125 
   28500   -287.21696    18.156529   -269.06043    1312.7572    5363.3048    9.6469707   0.17787826 
   28600   -285.84925    16.136786   -269.71247    1166.7253    16145.426    9.7094136   0.17484081 
   28700   -285.67913    15.984863   -269.69427    1155.7409   -6598.3296    9.4444803   0.20483313 
   28800   -283.86837    17.917705   -265.95067    1295.4897   -880.30456    9.4330604   0.20771222 
   28900   -285.59164    18.828575   -266.76306    1361.3476    12232.131    9.6187246   0.18758291 
   29000   -287.01251    17.284598   -269.72791    1249.7147   -5734.3768    9.5134319   0.20301649 
   29100   -285.67746    16.355951   -269.32151    1182.5714   -9040.6989    9.4512151   0.21786781 
   29200   -283.32743    18.793174   -264.53425     1358.788   -3153.9199    9.3485369   0.23412536 
   29300   -287.52725    18.179774   -269.34748    1314.4379   -945.97378    9.5861104    0.1648495 
   29400   -287.97215    17.980601   -269.99155    1300.0372    4628.1724    9.6668235   0.17311073 
   29500   -285.63863     16.56739   -269.07124     1197.859   -1424.4284    9.4933767   0.20545188 
   29600   -281.28851    17.586483   -263.70203    1271.5416   -3807.2461    9.2769472   0.30447814 
   29700   -287.35007    20.602823   -266.74725    1489.6297    4960.1896     9.621964   0.16932482 
   29800   -287.01962    17.627573   -269.39205    1274.5126   -6498.2527    9.5119637   0.20065657 
   29900   -285.23325    15.087122   -270.14613    1090.8323   -12544.817    9.3741711   0.20644669 
   30000   -285.84742    16.538337   -269.30908    1195.7583    30.362093     9.514149   0.19798253 
   30100   -283.09201    19.020759   -264.07125     1375.243    12730.718    9.5283176   0.21689336 
   30200    -286.4259    17.434883   -268.99102    1260.5806    11520.906     9.698049    0.1639101 
   30300   -286.57354    16.034482   -270.53906    1159.3285    -3328.727    9.5256742   0.16273026 
   30400   -285.68393    16.620221   -269.06371    1201.6788    373.44549    9.5191146   0.21164559 
   30500   -283.90329    19.321783   -264.58151    1397.0076   -7121.0759    9.3636905   0.25163102 
   30600   -285.50916    16.496921   -269.01224    1192.7639    4410.3522    9.5485511   0.20630049 
   30700   -286.98019    17.902365   -269.07782    1294.3806    8003.2054    9.6468267   0.16538945 
   30800   -287.23784    18.206912   -269.03093       1316.4    881.44715    9.5732828   0.17277937 
   30900   -289.97872    15.884983   -274.09374    1148.5194     -2621.18    9.6838258   0.15492806 
   31000   -286.33035    16.125279   -270.20507    1165.8933   -17157.604    9.3340003   0.19961743 
   31100   -286.10899    17.313066   -268.79593     1251.773   -6901.0521    9.4368564   0.20806363 
   31200    -286.9123    18.301167   -268.61113    1323.2149    7830.3138    9.6510813   0.19178414 
   31300   -289.40151    15.702509     -273.699    1135.3261    14454.331    9.8391724   0.12338727 
   31400   -288.36928    17.257933   -271.11135    1247.7867   -7700.2702    9.5488426   0.16989868 
   31500   -285.99359    17.449309   -268.54429    1261.6236   -3774.0496    9.4809901   0.22389983 
   31600   -285.24925     16.89152   -268.35773    1221.2942   -141.62705     9.501422   0.20324304 
   31700   -288.73695    15.485587   -273.25137    1119.6422    -9532.986    9.5620646   0.16645008 
   31800   -287.70123    17.705254   -269.99598    1280.1291    -6090.444    9.5119292   0.14940328 
   31900    -286.6091     18.61394   -267.99516     1345.829    15680.901    9.7129153   0.16738197 
   32000   -287.48054    17.542226   -269.93831    1268.3417     16619.21    9.7617287   0.13783964 
   32100   -288.41779    15.894378   -272.52341    1149.1987   -14940.767    9.4737754   0.14904734 
   32200   -284.74728    16.239432   -268.50785    1174.1468   -304.13743    9.4790232   0.20826455 
   32300   -285.81449    17.137111   -268.67738     1239.051   -6087.8947    9.4590107    0.2039038 
   32400   -288.79073    15.942852   -272.84787    1152.7035   -6916.7236    9.5762752   0.15135326 
   32500   -287.26934    17.751863   -269.51748    1283.4989    4500.5682    9.6368559   0.16459768 
   32600   -285.90095    18.309439   -267.59151     1323.813    6836.2581    9.6046566   0.19150443 
   32700   -287.65742    16.334485   -271.32294    1181.0194    10352.688    9.7067944   0.15791959 
   32800   -287.23749    15.266189    -271.9713    1103.7792   -11556.677    9.4603376   0.18672086 
   32900   -285.52821    17.452419   -268.07579    1261.8485   -14559.969    9.3496634   0.19154839 
   33000   -287.84474    17.524357   -270.32039    1267.0498    7120.3585    9.6790622   0.14795569 
   33100   -289.17466    17.358449   -271.81621    1255.0543    10816.298    9.7745986   0.15403946 
   33200   -283.35753    16.154048   -267.20348    1167.9734    -7388.031    9.3879339   0.22434109 
   33300   -286.10962    16.583466   -269.52615    1199.0213   -12626.458    9.4252451   0.18680252 
   33400   -289.03877    17.367456   -271.67132    1255.7055    15872.397    9.8301255   0.13387977 
   33500   -286.91729    19.906942   -267.01035    1439.3159     2489.419    9.5868817    0.1820577 
   33600   -284.78095    16.356531   -268.42442    1182.6133   -3874.1629    9.4434614   0.18394882 
   33700   -287.41357    15.421312   -271.99226    1114.9949   -17017.219     9.404726   0.18097777 
   33800   -286.99358    17.389531   -269.60405    1257.3016     2356.358      9.60448   0.19011131 
   33900   -285.21108    19.060448   -266.15063    1378.1126    597.83874    9.4876938   0.22061691 
   34000   -285.93151    15.031916   -270.89959    1086.8408    18360.437    9.7215235   0.17381115 
   34100   -286.32331     14.79113   -271.53218    1069.4314    -13456.25    9.4132938    0.2100761 
   34200   -284.71864     16.71061   -268.00803     1208.214   -10612.486    9.3395251   0.22953723 
   34300   -283.92103     14.46314   -269.45789     1045.717    17269.457    9.6431049   0.20967966 
   34400   -286.94324    14.778643    -272.1646    1068.5285    11480.192    9.7074885   0.18050702 
   34500   -286.52803    17.754474   -268.77356    1283.6877    3141.5378    9.5794804   0.20704903 
   34600   -286.82589    20.010161   -266.81573    1446.7789   -12485.156    9.4131284   0.22413592 
   34700   -289.51498    18.534088    -270.9809    1340.0556   -12505.848    9.5391575   0.16380433 
   34800   -289.37588    18.020623   -271.35526    1302.9309    2667.6056    9.6853242   0.14022006 
   34900   -285.25515    16.030515   -269.22463    1159.0417    7406.1828     9.585462    0.1966819 
   35000   -283.35662    16.989327    -266.3673    1228.3659   -17461.712    9.2295892   0.21443649 
   35100   -287.10935    16.084177   -271.02518    1162.9216   -12988.196    9.4489977   0.18207069 
   35200   -287.28507    16.233642   -271.05143    1173.7283    13252.683    9.7538655   0.18091187 
   35300   -286.19961    18.875913    -267.3237    1364.7703    13919.008    9.6766428   0.16427864 
   35400   -286.81453    16.265869   -270.54866    1176.0583    104.65957    9.5649185   0.17901282 
   35500   -287.06064    14.963548    -272.0971    1081.8976   -2809.3872    9.5627855   0.17394003 
   35600   -284.04648    16.526063   -267.52041    1194.8709    6227.8529    9.4953316   0.21142024 
   35700   -283.24183    14.240595   -269.00124    1029.6265    8415.3262    9.5461589   0.23221065 
   35800   -288.14424    15.760207   -272.38404    1139.4978   -7634.5315    9.5511881   0.18237917 
   35900     -286.399    18.195774   -268.20322    1315.5947    1964.8848    9.5630537   0.17259079 
   36000   -285.53129    17.015909   -268.51538    1230.2878    789.86532    9.5150275   0.19988392 
   36100   -288.66076    16.054035   -272.60672    1160.7423   -6238.3151     9.581857    0.1466436 
   36200   -288.83706    17.500825   -271.33623    1265.3483    2794.7681    9.6654991   0.16552316 
   36300    -286.2089     17.60388   -268.60502    1272.7995    121.56217    9.5440938   0.20381035 
   36400   -284.96832     15.66461   -269.30371    1132.5859   -14550.941    9.3367495   0.21008939 
   36500   -286.41469     14.03666   -272.37803    1014.8816    4719.9028     9.620036   0.18235262 
   36600   -285.86148    18.291772   -267.56971    1322.5356    1017.5709    9.5232274   0.21003787 
   36700   -284.36202    16.910767   -267.45125    1222.6858    2019.0586    9.4717992   0.22196255 
   36800   -286.39962    15.682239   -270.71739    1133.8606    1999.1657    9.5479847   0.18039836 
   36900   -287.96813    15.085538   -272.88259    1090.7177   -416.10242    9.6097176   0.16220603 
   37000   -285.20243    17.589805   -267.61263    1271.7818   -3537.1988    9.4473321   0.20665864 
   37100    -285.9096    17.069028   -268.84057    1234.1285   -9750.2577    9.3933052   0.21844006 
   37200   -286.43425    15.722479   -270.71177      1136.77   -14706.285    9.3971667    0.1960751 
   37300   -287.49963    19.003152   -268.49647    1373.9699    11524.896    9.7182269   0.15884142 
   37400   -285.81611    20.089277   -265.72683    1452.4992    9167.1344    9.6277808   0.19595871 
   37500   -287.75061    18.497456   -269.25315     1337.407    12346.694    9.7449927   0.16107323 
   37600   -287.98836    17.089083   -270.89927    1235.5785    -6879.505    9.5585626   0.20886553 
   37700   -282.80114    15.898342    -266.9028    1149.4853   -14354.237     9.268533   0.24270077 
   37800   -285.70147    16.580745   -269.12073    1198.8245   -5711.9419    9.4438761   0.19741116 
   37900   -289.18344    16.651876   -272.53157    1203.9675    -5855.139    9.6085513   0.15277873 
   38000   -288.12487      19.8083   -268.31657    1432.1839    4617.5315    9.6547905   0.17237543 
   38100   -284.43009    17.406137   -267.02395    1258.5022    4520.8091    9.5317566   0.23117413 
   38200    -286.1029    16.101091    -270.0018    1164.1445    17370.676    9.7132129   0.19826148 
   38300   -287.87534    16.096094   -271.77924    1163.7832   -9329.7788    9.4996831   0.17796111 
   38400   -284.29051    16.153243   -268.13727    1167.9152   -393.90902    9.4663946   0.21487679 
   38500   -285.40431    16.745103   -268.65921     1210.708    1224.4149    9.5021724   0.19023297 
   38600   -289.54002    16.737456   -272.80257    1210.1551    9731.4297    9.7757316   0.15311529 
   38700    -286.0343    16.783681   -269.25062    1213.4973    1927.5532    9.5773379   0.19947738 
   38800    -286.0219     17.97782   -268.04408    1299.8362    8206.5543    9.6270263   0.16645263 
   38900   -288.76776    16.968878   -271.79889    1226.8874   -7336.7904    9.5809688   0.18693154 
   39000   -284.96354    16.001208   -268.96233    1156.9227    1259.7685    9.5128164    0.1963946 
   39100    -283.3178    16.208651   -267.10914    1171.9213   -4370.8923    9.3912828   0.20437976 
   39200   -285.56811    14.822396   -270.74572     1071.692     4228.496    9.5637885   0.21894949 
   39300   -286.50689    17.378801   -269.12809    1256.5258   -7359.1095    9.4659611   0.17592908 
   39400   -282.98746    18.975078   -264.01239    1371.9401    14387.357    9.5465235   0.23451846 
   39500   -285.61354    18.175851   -267.43769    1314.1542    18955.691    9.7292473   0.22915065 
   39600   -286.38712    16.468647   -269.91848    1190.7196    2762.4925    9.5904905   0.16368309 
   39700   -286.87797    15.928511   -270.94946    1151.6666   -2324.2627    9.5502601   0.17013408 
   39800   -281.69985    16.315091   -265.38476    1179.6172   -3901.2449    9.2894885   0.26415939 
   39900   -284.78999    18.409379   -266.38061    1331.0388   -11567.837    9.3326451   0.21348608 
   40000   -288.86013    18.748859   -270.11127     1355.584   -5015.8774    9.6064913   0.15222331 
   40100    -287.8852    17.160459   -270.72474    1240.7391    8324.0137    9.6814457   0.15269619 
   40200   -285.39351    20.147447   -265.24607     1456.705   -8948.5601    9.3781739   0.21250092 
   40300   -287.27901    19.036635   -268.24237    1376.3908    10187.987    9.6778177   0.17402072 
   40400   -287.22315    17.049894   -270.17326     1232.745   -83.380342    9.6038473    0.1737116 
   40500   -285.96155    17.834641   -268.12691     1289.484    -11869.89    9.3991315   0.21994087 
   40600   -285.08244    19.001193   -266.08125    1373.8283   -4182.7452    9.4117226   0.20837568 
   40700   -287.00283    16.171483   -270.83135     1169.234   -2858.1422     9.543791    0.1839443 
   40800   -287.10497    17.261756   -269.84321    1248.0632    -1529.283    9.5675364   0.19086371 
   40900   -286.06651    19.636266   -266.43025    1419.7455   -2872.6168     9.490191   0.19778621 
   41000   -286.61464    18.271093   -268.34355    1321.0405    487.68091    9.5534452   0.20901316 
   41100   -287.18334    16.439201   -270.74414    1188.5906    5718.0518    9.6506416   0.16588387 
   41200   -285.76292    16.737025    -269.0259    1210.1239   -4967.2813    9.4454755   0.17970355 
   41300    -282.1948    16.322438   -265.87236    1180.1484    1605.0212    9.4213718   0.22505917 
   41400   -284.34196    16.080172   -268.26179     1162.632    6670.3825    9.5484021   0.24143942 
   41500   -287.73209    17.362745   -270.36934    1255.3648    6641.1022    9.6769639   0.16859892 
   41600   -286.65205    16.664504   -269.98755    1204.8805    4540.9943    9.6060934   0.19228849 
   41700   -282.91518    18.156207   -264.75897    1312.7339   -9478.6515    9.2726417   0.26591882 
   41800   -283.72544    16.160931    -267.5645     1168.471   -14579.815    9.2986274   0.25721194 
   41900   -285.19455    15.673392   -269.52116    1133.2209    6159.9417    9.5697687   0.19460851 
   42000   -288.69665    18.759568   -269.93708    1356.3583    15329.835    9.7889629   0.15251811 
   42100   -289.35892    14.799729   -274.55919    1070.0532    361.27535    9.6891761   0.16227518 
   42200   -287.09986    16.197743   -270.90211    1171.1326   -13623.081    9.4296985   0.19229531 
   42300   -287.82658    18.273666   -269.55291    1321.2264   -2157.0377     9.554755   0.16125091 
   42400   -287.90294    18.697098   -269.20585    1351.8416    3379.5699    9.6482728   0.15461821 
   42500   -287.51693    20.809993   -266.70694    1504.6085    4464.7397    9.6209865   0.16069327 
   42600   -283.63201    20.062055   -263.56995     1450.531   -1373.2109    9.3744426   0.27818951 
   42700   -288.17602    18.929523    -269.2465    1368.6464    3452.2688    9.6316849     0.165408 
   42800    -288.2264    17.812075   -270.41433    1287.8524   -3127.1502    9.5926619    0.1757379 
   42900   -284.36778    16.787333   -267.58045    1213.7613    1551.0982    9.5114017   0.19230847 
   43000   -284.57221     17.36072   -267.21149    1255.2185   -10641.652    9.3470378   0.27688307 
   43100   -287.75186    15.514156    -272.2377    1121.7078   -8337.7566    9.5343325   0.20035638 
   43200    -286.8994    16.409426   -270.48997    1186.4378    15268.581    9.7437824   0.17687278 
   43300   -287.49548    18.371604   -269.12388    1328.3076    404.30615    9.5883118   0.17509273 
   43400   -286.63878    16.925434   -269.71335    1223.7463   -17276.278     9.364689   0.23370269 
   43500   -289.46251    14.772557   -274.68995    1068.0885   -6174.0849    9.6170767   0.16549786 
   43600   -286.96193    15.795244   -271.16668    1142.0311    16657.618    9.7627616   0.16898231 
   43700   -287.61424    18.380886   -269.23336    1328.9787   -5279.0451     9.527012    0.1632804 
   43800   -285.95234    17.500842    -268.4515    1265.3496   -10949.404    9.4185231   0.19239808 
   43900   -287.12068    18.244908   -268.87577    1319.1472   -383.12663    9.5519413   0.17803691 
   44000   -288.61931    15.801055   -272.81826    1142.4512   -2824.4544    9.6129164   0.15650476 
   44100   -286.45174    16.161362   -270.29038    1168.5022    -3912.999    9.4870344   0.16305195 
   44200   -286.37504    17.955171   -268.41987    1298.1986    3588.5608    9.5832764   0.20386106 
   44300   -284.45464     20.05274    -264.4019    1449.8575    7183.4631    9.4912124   0.22170396 
   44400   -282.53503    15.541153   -266.99387    1123.6597    92.489535    9.3792022    0.3018924 
   44500   -285.73053     15.01373    -270.7168    1085.5259   -11027.074    9.4137429   0.21160964 
   44600   -286.86997    17.108117   -269.76185    1236.9547   -2114.2927    9.5329244   0.19348265 
   44700   -284.95652    19.340996   -265.61552    1398.3968    1257.0865    9.4791373   0.20883766 
   44800   -286.86436    16.628057   -270.23631    1202.2453    4845.2013    9.5978821   0.19604855 
   44900   -287.48916    17.249902   -270.23926     1247.206    3862.6347    9.6180899   0.18961925 
   45000   -283.07866    15.633183   -267.44548    1130.3137   -9301.8092    9.3061311   0.25531969 
   45100   -282.28858    18.482319   -263.80626    1336.3125   -2717.1378     9.316059   0.28031226 
   45200   -287.60166    18.505749   -269.09591    1338.0066   -74.185235    9.6014538   0.17711903 
   45300   -288.02214    19.088204   -268.93394    1380.1194    5780.0739    9.6806331   0.17103262 
   45400    -286.8521    18.392622   -268.45948    1329.8273    8344.3224    9.6485424   0.16465995 
   45500   -288.54766    15.915205   -272.63246    1150.7045   -15439.666    9.4658256   0.17109457 
   45600   -288.32614    16.534349   -271.79179      1195.47   -2962.3564     9.593492   0.16384709 
   45700   -285.90778    17.403513   -268.50427    1258.3125   -1226.9901    9.5046814   0.20747521 
   45800   -286.52699    16.025323   -270.50166    1158.6663    4129.7516    9.5899041   0.21333713 
   45900   -288.43074    15.358919   -273.07182    1110.4838   -7834.7102    9.5602085   0.17372544 
   46000   -284.71848    16.876952   -267.84153    1220.2409   -7777.4369    9.3960722   0.25768357 
   46100   -285.01053    16.646287   -268.36424    1203.5634   -470.41142    9.4800469   0.20553233 
   46200   -286.51912    15.212781   -271.30634    1099.9177    2378.0586    9.6056659   0.18084374 
   46300   -288.40454     18.19197   -270.21257    1315.3197   -10606.206    9.5143612   0.16350118 
   46400   -285.17599    19.279128   -265.89686    1393.9236    10957.904    9.5851707     0.208134 
   46500   -287.22649    17.750833   -269.47566    1283.4245   -5220.0634    9.5207628   0.18272247 
   46600   -287.42166    16.064379   -271.35729    1161.4902   -7445.4523    9.5068133   0.17495513 
   46700   -286.03617    17.815203   -268.22097    1288.0786    -3190.313    9.4871188   0.18756773 
   46800   -284.05015    18.056682   -265.99347    1305.5381    6932.5219    9.5191374   0.21402096 
   46900   -285.67892     16.06236   -269.61656    1161.3442    7034.6602    9.6074115   0.19765865 
   47000   -286.06733    14.642839   -271.42449    1058.7096    583.30711    9.5512394   0.19299035 
   47100   -285.27522     15.49145   -269.78377    1120.0661   -5652.1273    9.4366157   0.21140908 
   47200   -284.01813    16.832921   -267.18521    1217.0574   -11495.043    9.3339662   0.26870958 
   47300   -283.58549    14.563869   -269.02162         1053    -5570.306    9.3785559   0.25034466 
   47400    -285.7493    16.327676   -269.42163    1180.5271   -6584.8193    9.4401685   0.23439432 
   47500   -286.29486    14.969195   -271.32567    1082.3059    5602.7424    9.6110216   0.21971706 
   47600   -290.07848    15.556004   -274.52247    1124.7335    8030.8937    9.7889756   0.15073816 
   47700   -287.64694    17.946155   -269.70079    1297.5467    6552.5933    9.6509082   0.17384829 
   47800   -286.78889    17.651875   -269.13702    1276.2696   -1600.3169    9.5252628   0.16061503 
   47900    -286.1963    16.572117   -269.62419    1198.2007     10660.23    9.6593886   0.17081918 
   48000   -289.02753     14.81287   -274.21466    1071.0033    8304.6201    9.7494417   0.14484393 
   48100   -286.95632    16.097465   -270.85885    1163.8823    5782.2379    9.6380852   0.16948321 
   48200   -285.17161    16.250543   -268.92107    1174.9502    4442.4972    9.5577719   0.17722296 
   48300   -285.56426    16.934682   -268.62958    1224.4149   -4626.2029    9.4625476   0.18328596 
   48400    -289.6599    15.692097    -273.9678    1134.5734    1750.7961    9.7005604   0.13622757 
   48500   -289.49522     17.88605   -271.60917     1293.201   -3510.2094    9.6384572   0.12690839 
   48600   -285.08662    16.167574   -268.91905    1168.9514    27771.243    9.8190913   0.17136717 
   48700   -286.00088    18.693745   -267.30714    1351.5991    3864.4645    9.5762274   0.19861893 
   48800   -287.11268    18.444346   -268.66833     1333.567   -1819.8423    9.5459698   0.18212335 
   48900   -288.27353    15.474651   -272.79887    1118.8515   -2206.5574    9.6001969   0.15716826 
   49000   -285.98394    16.098766   -269.88517    1163.9764   -9760.0876    9.4522673   0.18276876 
   49100   -286.46121    18.550759   -267.91045    1341.2609   -555.12611    9.5327624   0.19853191 
   49200   -288.25719    17.846588    -270.4106    1290.3478   -7081.9187     9.529776   0.17822633 
   49300   -288.54087    15.849904   -272.69097    1145.9831    5205.3474     9.692395   0.13275795 
   49400   -286.75705    17.525128   -269.23192    1267.1055    9793.1951    9.6627514   0.15551133 
   49500   -286.41132    18.558359   -267.85296    1341.8104    3504.3105    9.5793027   0.18777634 
   49600   -286.06644    14.870717   -271.19573    1075.1858    3786.5044    9.5925243   0.19501908 
   49700   -288.23897    16.113612   -272.12536    1165.0498   -16334.689    9.4399465   0.17363271 
   49800   -286.43479    17.652989    -268.7818    1276.3501    7309.4425    9.6351389   0.19604165 
   49900   -286.07178    17.616792   -268.45499     1273.733    11290.138    9.6801099   0.19273441 
   50000   -288.46051    15.251073   -273.20944    1102.6863   -487.78217    9.6526448   0.15920275 
   50100   -286.79564    16.856677   -269.93896    1218.7751   -7286.2073     9.518638   0.18491732 
   50200   -284.86776    16.034842   -268.83292    1159.3545    8368.4674    9.5591897   0.19577235 
   50300     -289.257    17.386468   -271.87053    1257.0801   -1707.4899     9.629285    0.1729533 
   50400   -287.30366    14.431672   -272.87199    1043.4418    5615.2934    9.6784069   0.17823886 
   50500   -284.59115     16.38193   -268.20922    1184.4498   -2556.5895    9.4488816   0.22449119 
   50600   -286.19044    16.025193   -270.16525    1158.6569     803.8391    9.5403922    0.1861222 
   50700   -287.70407    16.647079   -271.05699    1203.6206    12092.931     9.737685   0.15286954 
   50800   -282.99452    17.228665   -265.76586    1245.6706    7283.3498    9.4743982   0.22902386 
   50900   -284.37801    17.116686   -267.26132    1237.5743   -10060.845    9.3524933   0.23552504 
   51000   -286.94706    16.298946   -270.64811    1178.4498   -3910.0985    9.5163062   0.17892059 
   51100   -288.38171     18.51987   -269.86184    1339.0276    8748.5905    9.7244694    0.1411329 
   51200   -286.82114    22.025626   -264.79551    1592.5015   -2195.4256    9.5031594   0.19755709 
   51300   -286.08768    17.216684     -268.871    1244.8044    7380.2337    9.6167741   0.18373184 
   51400    -287.8365    16.922819   -270.91368    1223.5572    -9430.385    9.4988009   0.18841647 
   51500   -284.85909    17.604412   -267.25468    1272.8379    13556.877    9.6484152   0.19914581 
   51600   -285.58845     18.84502   -266.74343    1362.5366    9410.4016    9.6066741   0.18185159 
   51700   -288.78335    16.633641   -272.14971     1202.649    1353.5667    9.6442919   0.14647343 
   51800   -286.57439     17.27926   -269.29513    1249.3287   -5072.0908     9.504562   0.18228267 
   51900   -287.66001    19.035704   -268.62431    1376.3235    5765.9601    9.6209399    0.1739073 
   52000   -286.86805     14.33442   -272.53363    1036.4103    6330.6402    9.6535814   0.18663311 
   52100   -286.47041     16.70791    -269.7625    1208.0189   -3409.6752    9.5293691   0.19027379 
   52200   -285.82962    17.797278   -268.03234    1286.7826    3146.0121    9.5254877   0.18016725 
   52300   -287.21755    15.838175   -271.37938    1145.1351    6200.0497    9.6533628   0.15907905 
   52400    -287.0307    16.962485   -270.06822    1226.4251    3047.1099    9.6328066   0.15591351 
   52500    -286.8006    19.732462   -267.06814    1426.7007   -3516.7959     9.498767    0.1681335 
   52600   -286.92208     15.65932   -271.26276    1132.2035   -3001.9415    9.5428341   0.18902231 
   52700   -287.74799    17.390558   -270.35744    1257.3758    -6213.139    9.5340441   0.17866108 
   52800   -283.35608    17.587012   -265.76907    1271.5799    2534.6727     9.437765   0.22668849 
   52900   -287.63708    18.038145   -269.59894    1304.1978    12248.219    9.7248928   0.16672041 
   53000   -288.00084    17.624573   -270.37627    1274.2956     6781.562    9.6884883   0.12415434 
   53100   -287.26437    18.832921   -268.43145    1361.6618    1230.7664    9.5875454   0.17391378 
   53200   -281.70664    15.521993   -266.18465    1122.2744    6551.3538    9.4467912   0.25998362 
   53300   -286.61355    14.749757   -271.86379    1066.4401   -14341.747    9.4148702   0.18631357 
   53400   -286.35624       16.059   -270.29724    1161.1012   -1609.4866    9.5285508   0.20786913 
   53500    -286.9754    19.435173   -267.54023     1405.206    6592.9823    9.6270267   0.18224252 
   53600   -286.76801    17.750909    -269.0171      1283.43     1197.099    9.5850625   0.16841119 
   53700   -288.81998    16.251798   -272.56818    1175.0409    745.23019    9.6576465   0.13410612 
   53800   -286.06123    16.627092   -269.43414    1202.1755   -9389.0128    9.4443373   0.18937882 
   53900   -284.82212    17.003398   -267.81872    1229.3833    1918.6464    9.4925114   0.18561411 
   54000   -287.55718    15.123949   -272.43323     1093.495    10452.141    9.7083668   0.13609193 
   54100   -288.09591    17.822908   -270.27301    1288.6357   -9684.5012    9.5225415   0.14678254 
   54200   -286.15898    19.013292   -267.14569    1374.7031   -1211.1235    9.5025075   0.18289351 
   54300   -287.69609    16.396766   -271.29932    1185.5224    17567.951    9.8087411   0.16026403 
   54400   -287.99641    17.410117   -270.58629    1258.7899   -5978.8339    9.5473861   0.16348815 
   54500   -284.50165    17.568695   -266.93295    1270.2555   -3145.0055    9.4386846   0.21646045 
   54600   -286.77199    16.507903   -270.26408    1193.5579    2500.1515    9.5855685   0.21469083 
   54700   -287.40037    17.450917   -269.94945    1261.7399   -440.73245     9.583459   0.15953605 
   54800   -285.14599    19.474447   -265.67154    1408.0456   -13554.109    9.3650306   0.18131547 
   54900   -285.14546    15.321729   -269.82373    1107.7949    6538.6204    9.5744192   0.17859571 
   55000   -286.68555    15.938445    -270.7471    1152.3848   -4843.8009    9.5199735   0.16279154 
   55100   -283.42122    17.191612   -266.22961    1242.9916     3079.668    9.4685802    0.2376315 
   55200   -286.16141    19.371146   -266.79026    1400.5767   -3359.0005    9.4982783   0.20790936 
   55300   -286.57789    16.705874   -269.87202    1207.8716   -6476.1654     9.486361   0.18762795 
   55400   -287.28942    15.499177   -271.79025    1120.6248    3825.8703    9.6197366    0.1887124 
   55500   -284.10047     17.19786   -266.90261    1243.4433   -4256.3195    9.4056373   0.25857394 
   55600   -283.96155    16.579439   -267.38211    1198.7301    181.24021    9.4326554   0.22663736 
   55700   -287.27554    16.718431   -270.55711    1208.7796   -10887.409    9.4892712   0.19834375 
   55800   -288.30304      18.4436   -269.85944    1333.5131   -3656.1806    9.5764704   0.17698995 
   55900   -283.58334    18.618048   -264.96529     1346.126    13586.627    9.5786325   0.20161899 
   56000   -288.33978    19.211505   -269.12828    1389.0343   -2005.1301    9.5940797   0.16867562 
   56100   -287.91188    17.684948   -270.22693    1278.6609   -19834.587    9.4027044   0.17789748 
   56200   -284.12005    16.917567   -267.20249    1223.1775    4889.6777     9.490167   0.24602741 
   56300   -283.15006    19.484826   -263.66523     1408.796    3114.7458     9.448298    0.2528656 
   56400   -286.12969    17.252921   -268.87677    1247.4244   -5687.7913    9.4660539   0.18261064 
   56500    -284.4942    15.107454   -269.38674    1092.3023   -2472.5872    9.4456621   0.22824313 
   56600   -285.66663    18.208946   -267.45769    1316.5471   -12071.336    9.3646282   0.19832752 
   56700   -288.54152    17.004809   -271.53671    1229.4853     17161.23    9.8290015   0.18013021 
   56800   -286.51928    16.331219   -270.18806    1180.7832    9664.0058    9.6817921   0.19322901 
   56900   -282.92629    15.858342   -267.06795    1146.5932   -5797.8835    9.3337642   0.25405929 
   57000   -287.57906    16.826851   -270.75221    1216.6186    -11251.94    9.4810063   0.19561526 
   57100   -287.64206    16.130646   -271.51141    1166.2814    158.67604    9.6043509   0.16501272 
   57200     -285.072    17.793885   -267.27812    1286.5372   -704.81452    9.4665501   0.18877483 
   57300   -285.61909    17.649203   -267.96989    1276.0764   -6150.0062    9.4440744   0.20744614 
   57400   -288.42075    16.268631   -272.15212     1176.258     2281.564    9.6519294   0.14456081 
   57500   -286.78323    17.540266   -269.24297       1268.2    14801.551    9.7287206   0.16958537 
   57600   -286.31937    20.069364   -266.25001    1451.0594   -757.53348    9.5430606   0.17933669 
   57700   -285.95432    16.116701   -269.83762    1165.2731    12950.378    9.6898478   0.16167976 
   57800    -289.1148    17.921441   -271.19336    1295.7598    2993.4746    9.6682458   0.14717772 
   57900   -284.42255    17.753858    -266.6687    1283.6432    3467.3887    9.4921498   0.21353673 
   58000   -286.38909    17.567082   -268.82201    1270.1389   -6623.6334    9.4742745   0.17772637 
   58100    -285.7418    14.628234   -271.11357    1057.6536     133.9086    9.5334612   0.21405297 
   58200   -284.52065    16.769985   -267.75067     1212.507    275.99658    9.4632707   0.22103255 
   58300    -285.0336    17.894154   -267.13945    1293.7869   -4186.7606    9.4342933   0.26653272 
   58400   -287.60442    15.488108   -272.11631    1119.8244    4440.2283    9.6604971   0.16493206 
   58500   -285.91102    15.312843   -270.59817    1107.1524    785.90995    9.5272429   0.19051248 
   58600   -285.01747    17.718973    -267.2985    1281.1209   -9099.5955    9.3763477   0.20539027 
   58700    -287.9786    17.132502    -270.8461    1238.7178    8415.1703    9.7106354   0.16330279 
   58800   -287.15653    15.102975   -272.05356    1091.9785    11706.295    9.7261947   0.18928954 
   58900   -284.76341    17.205897   -267.55751    1244.0244   -12568.841    9.3333287   0.21290301 
   59000   -283.75724    14.620058   -269.13718    1057.0625    8808.6529    9.5531496   0.23623513 
   59100   -287.21627    17.030843   -270.18543    1231.3676    176.56129    9.6023142   0.16463192 
   59200   -289.66791    15.391937   -274.27598    1112.8711    -4498.552    9.6215601   0.15361285 
   59300    -289.0549    15.578381   -273.47652    1126.3514   -9438.9555    9.5557523   0.15407075 
   59400   -285.64548    15.800719   -269.84476    1142.4269    30251.382    9.8558598    0.1809207 
   59500   -287.50461     19.03479   -268.46982    1376.2574   -8296.9334    9.4845922   0.15907802 
   59600   -287.74075    16.662409   -271.07834     1204.729   -6516.7399     9.525588   0.19397148 
   59700   -289.34452     17.09853   -272.24599    1236.2616    9943.2576    9.7937853    0.1423981 
   59800   -285.74806     18.51118   -267.23688    1338.3993    7599.9252    9.5876789   0.18593688 
   59900   -284.76749    15.395202   -269.37229    1113.1072    5656.0641    9.5357763   0.23206317 
   60000    -285.8166    13.197934   -272.61867    954.23984    -8124.717    9.4860514   0.20502247 
   60100   -287.44272    15.960712   -271.48201    1153.9948    788.24432    9.6100949   0.18328874 
   60200   -284.55732    16.352831   -268.20449    1182.3458    13853.115    9.6310365    0.2053229 
   60300   -285.38511    16.225069   -269.16004    1173.1084    8508.6295    9.6299077   0.17900074 
   60400   -288.22489    15.661852   -272.56304    1132.3865   -1119.2065    9.6445939   0.16026858 
   60500   -289.36965    16.593756   -272.77589    1199.7652   -1778.2712    9.6588491   0.15244104 
   60600   -286.26527    17.772891   -268.49238    1285.0193   -4094.4765     9.492216   0.20023022 
   60700   -284.72115    15.695685   -269.02546    1134.8328   -3472.5246    9.4768844   0.23706496 
   60800   -284.71318    18.019059   -266.69412    1302.8178    8029.4555    9.5794363   0.22688106 
   60900   -283.06853    17.285912   -265.78262    1249.8097    -8909.065    9.3343631   0.25489003 
   61000   -285.04101    14.551312   -270.48969    1052.0921    -12250.74    9.3945183   0.26197124 
   61100   -286.85453    16.999514   -269.85502    1229.1025    -15649.66    9.3903015   0.23264077 
   61200   -286.96351    19.492795   -267.47071    1409.3722    2152.4424    9.5970927   0.19530214 
   61300   -290.45989    18.898779   -271.56111    1366.4235    6035.8122     9.799497   0.13464602 
   61400    -288.9172    17.377023   -271.54018    1256.3972    13922.631    9.8043865   0.17636159 
   61500   -284.53259    15.991586     -268.541     1156.227    753.13044    9.4679572   0.25037896 
   61600   -285.96645    17.570222   -268.39623    1270.3659   -14631.037    9.3499762   0.23902799 
   61700   -289.11955    16.036788   -273.08276    1159.4953   -2459.9978    9.6439579   0.14386388 
   61800   -286.29507    14.654395   -271.64068    1059.5452    10389.885    9.6664409   0.17478476 
   61900   -285.69924    17.021858   -268.67738     1230.718    -263.0234    9.4970185   0.19729806 
   62000   -283.72971    14.501683   -269.22803    1048.5038   -8139.0654    9.3576366   0.25367302 
   62100   -285.20767    15.033014   -270.17466    1086.9202   -8427.6162    9.4086873   0.25852012 
   62200   -288.43973     13.43091   -275.00882    971.08451    -623.1808    9.6518973   0.16814717 
   62300   -288.29927    16.704366    -271.5949    1207.7626    6713.1257    9.6816224   0.14755468 
   62400   -286.63178    17.787707   -268.84407    1286.0905    14070.509    9.7110152   0.16414408 
   62500   -286.24892    18.039471   -268.20945    1304.2936    3911.4721    9.5916353   0.20024323 
   62600   -287.95621    15.671494   -272.28471    1133.0837    5206.9914    9.6530894   0.15625911 
   62700   -288.26871    15.808065   -272.46065    1142.9581   -1377.9395    9.6230171   0.17268434 
   62800    -286.3345    17.274271   -269.06023     1248.968   -6796.9357    9.4645007   0.19814287 
   62900   -284.28679    15.612028   -268.67476    1128.7842    1734.9654    9.4814556   0.22421934 
   63000   -287.56428     14.69255   -272.87173    1062.3039    4419.7809    9.6639944   0.18653803 
   63100   -287.55728    15.934779    -271.6225    1152.1198   -1617.7535    9.5609736   0.16548345 
   63200   -285.42451    17.399716   -268.02479     1258.038    3814.8111    9.5369462      0.20366 
   63300   -286.64416    16.689013   -269.95515    1206.6526    1139.5825    9.5683984   0.18700502 
   63400   -288.06915    15.234858   -272.83429    1101.5139   -4673.9409    9.5817396   0.15923841 
   63500   -284.89363    17.285215   -267.60842    1249.7593    17157.903     9.679176   0.19525254 
   63600   -286.36885     18.19244   -268.17641    1315.3537    6683.9461    9.5857169   0.18898121 
   63700   -289.22716    17.332068   -271.89509    1253.1469   -1466.8296    9.6319592   0.18481474 
   63800   -286.54773    17.700857   -268.84688    1279.8111   -8909.3165    9.4655558   0.19756643 
   63900   -282.05881    14.817955   -267.24086    1071.3709   -541.89033    9.3879919   0.25878615 
   64000   -287.05525    15.427701   -271.62755    1115.4569   -10098.209    9.4629006   0.17880176 
   64100   -287.22326    16.726203   -270.49706    1209.3414   -632.89974     9.572928   0.17345357 
   64200   -288.15874    21.171366   -266.98737    1530.7366    5124.7171    9.6492218   0.17438609 
   64300   -288.28131    17.656209    -270.6251     1276.583   -75.410828    9.6161216   0.17014998 
   64400   -286.35117    15.223509   -271.12766    1100.6934   -10538.439    9.4257453   0.20228949 
   64500    -283.6147    16.107155   -267.50755    1164.5829   -8021.3717    9.3250875   0.26915038 
   64600   -287.07178    17.184599   -269.88718    1242.4845   -5287.3642    9.5172914   0.23584136 
   64700     -288.505    17.280943   -271.22405    1249.4504   -3111.6353    9.5895436     0.176801 
   64800   -284.96689    18.849966   -266.11693    1362.8942    -11356.73    9.3594567   0.17627744 
   64900   -284.83312    16.671276   -268.16184    1205.3701    16403.071    9.6656526   0.18255256 
   65000   -287.01017      16.6648   -270.34537    1204.9019    10228.341    9.7126152   0.15614464 
   65100   -286.65152    16.865924   -269.78559    1219.4436    -365.7165     9.552486   0.20224581 
   65200   -283.85013    18.815153   -265.03497    1360.3771   -3352.4201    9.3937534   0.22684422 
   65300   -285.77969    16.878766   -268.90092    1220.3721    9787.8172    9.6501086   0.18748187 
   65400   -288.22111    17.434818    -270.7863    1260.5759   -2833.0583     9.609242    0.1964867 
   65500   -283.35085    15.948714   -267.40214    1153.1273   -3885.3351    9.3892549   0.21470834 
   65600   -282.87634    17.146229   -265.73011    1239.7103    -10066.23    9.2807804   0.29244448 
   65700   -286.34522    15.661433   -270.68379    1132.3563    -4929.518      9.51914   0.21549008 
   65800    -288.3305    18.688067   -269.64243    1351.1886    704.08463     9.644443   0.17068678 
   65900    -285.5717    19.315115   -266.25658    1396.5255    17782.309    9.6869421   0.18773733 
   66000    -282.2955    18.992644   -263.30285    1373.2101    4889.1968     9.428685   0.26214507 
   66100   -287.11943    18.073217   -269.04622    1306.7336   -9696.2017    9.4637304   0.19482533 
   66200   -286.86364    17.429974   -269.43367    1260.2257   -60.868885    9.5581916   0.23479576 
   66300   -286.25712    17.786599   -268.47052    1286.0104   -12698.566    9.3831805   0.20372138 
   66400   -287.79471    16.943954   -270.85075    1225.0854     -4338.41    9.5475178   0.17832232 
   66500   -286.98876    14.410956    -272.5778     1041.944    1734.5665    9.5972684   0.18891989 
   66600   -285.18857     15.71779   -269.47078     1136.431   -6576.2081    9.4426358   0.20879842 
   66700   -285.52872    15.856068   -269.67265    1146.4288   -2782.9022    9.4614497   0.19530003 
   66800   -288.23108    14.854972   -273.37611    1074.0473    2715.4108    9.6719592   0.20315249 
   66900    -285.9069    16.434091   -269.47281    1188.2211    1284.8966     9.529011    0.2076404 
   67000   -285.61508    16.853907   -268.76118    1218.5747   -10014.883    9.4154642   0.18061728 
   67100   -287.69915    17.173102   -270.52604    1241.6533    8761.3995    9.7062841   0.15747167 
   67200   -290.60324    18.428175   -272.17506    1332.3978    12127.154     9.838282   0.12034809 
   67300   -287.76251    16.032776   -271.72973    1159.2051    2633.6075     9.639288   0.17101668 
   67400   -284.54162    16.910482   -267.63113    1222.6653   -9297.3159    9.3522057     0.221785 
   67500   -286.22327    17.249125   -268.97415    1247.1499   -15492.301    9.3791255   0.19622064 
   67600   -287.18284    17.519631    -269.6632    1266.7081    2593.2822    9.5934895   0.18947382 
   67700   -284.84556    19.788935   -265.05663    1430.7837    4584.0339    9.5086976   0.20447274 
   67800   -285.16558    17.515588   -267.64999    1266.4158   -1075.5583      9.48294   0.23004032 
   67900   -287.24238    17.159218   -270.08316    1240.6494   -6367.3853    9.5235809   0.18650317 
   68000   -285.85873    16.759636   -269.09909    1211.7588   -4208.8623      9.48335   0.19770056 
   68100   -284.41941    18.806437   -265.61298     1359.747    5858.5021    9.5066988   0.23104828 
   68200   -287.91896    17.118404   -270.80056    1237.6985    16229.463    9.8102361   0.18133657 
   68300    -284.7759     14.75363   -270.02227    1066.7201   -11524.331     9.352935    0.2394486 
   68400   -285.01187    17.539768    -267.4721     1268.164   -17250.033    9.2912003   0.21277744 
   68500   -286.02458    15.108012   -270.91656    1092.3427     5356.853    9.5891398   0.18377263 
   68600   -288.31045     18.88068   -269.42977    1365.1149    1274.3304    9.6222785   0.16308264 
   68700   -285.87743    19.379994   -266.49744    1401.2164   -826.50496    9.4985316   0.18786724 
   68800   -287.94096    17.076558   -270.86441    1234.6729   -845.69896    9.6025071   0.17063489 
   68900   -287.59645    15.763477   -271.83297    1139.7343   -3631.2196    9.5771718   0.16647442 
   69000   -285.33142    18.356899   -266.97453    1327.2444   -5000.1682    9.4389584   0.25060925 
   69100   -285.42532    16.073244   -269.35207    1162.1311    2736.6049    9.5314516   0.25008582 
   69200   -288.15056    16.651452    -271.4991    1203.9368    40.121417    9.6302336   0.19582384 
   69300   -283.79241    16.729411     -267.063    1209.5734   -4295.4666     9.387698   0.25213667 
   69400    -284.0167    17.237446   -266.77925    1246.3055   -11315.274    9.3032182   0.25599472 
   69500   -286.24118    15.990257   -270.25092    1156.1309    1852.0701    9.5499727   0.20298213 
   69600   -288.50962    19.125251   -269.38437     1382.798    4060.8097     9.655733   0.17744019 
   69700   -282.82491    17.891095   -264.93381    1293.5658    7590.1864    9.4637759   0.24934271 
   69800   -285.50845    16.499326   -269.00913    1192.9378   -3358.3334    9.4876178   0.19683854 
   69900    -288.0996    17.891844   -270.20776    1293.6199   -6561.7028    9.5500498   0.19906236 
   70000   -287.12088    18.800608   -268.32027    1359.3256   -1232.4165    9.5618173     0.161042 
   70100   -286.85499    15.935238   -270.91975     1152.153    23318.026    9.8206138   0.15436746 
   70200   -288.89471    16.545704     -272.349     1196.291   -831.18778     9.646013   0.13899206 
   70300   -285.87582    17.746257   -268.12956    1283.0936   -13730.652    9.3408048   0.23436429 
   70400   -285.30862    16.620109   -268.68851    1201.6706   -2096.2829    9.4740487    0.2360064 
   70500    -289.6026     16.61212   -272.99048     1201.093    1268.0093    9.6910441   0.15262511 
   70600    -288.3264     17.08222   -271.24418    1235.0823    3410.2465    9.6405367   0.15051522 
   70700   -284.76726    16.628853   -268.13841    1202.3028   -10681.571    9.3529683   0.19692389 
   70800   -284.33317    14.215833   -270.11734    1027.8362   -11669.875    9.3464055   0.23922439 
   70900   -285.12752    13.989598   -271.13792    1011.4789    -4099.403    9.4777547   0.19128846 
   71000   -284.08239    18.328308   -265.75409    1325.1772       8528.5     9.544028   0.20240341 
   71100   -284.96898    17.972043   -266.99694    1299.4185    13158.853    9.6076563   0.18518246 
   71200    -285.2225    15.335519   -269.88698    1108.7919    6793.5597    9.5549968    0.1957173 
   71300     -286.101    16.802722   -269.29828    1214.8739   -2816.6856    9.4942815   0.18545893 
   71400   -282.61993    18.625841   -263.99409    1346.6895    -596.8287    9.3973029   0.26710769 
   71500   -284.25744    16.233371   -268.02407    1173.7086    6095.5927    9.5405086   0.23691121 
   71600   -285.46092     15.04499   -270.41593     1087.786    -15354.27    9.3430389   0.25398013 
   71700   -284.08372    15.549434   -268.53428    1124.2584    1317.6068    9.4890639   0.21554486 
   71800   -288.57766    16.822874   -271.75478     1216.331    16008.384    9.8012611   0.12829278 
   71900   -288.87159    16.007682   -272.86391    1157.3908    10976.837    9.7797748   0.14843515 
   72000   -283.66523    15.402772   -268.26246    1113.6545   -8273.9028    9.3457652   0.24702473 
   72100   -284.63944     15.17239   -269.46705    1096.9973   -9852.4902    9.3836233   0.23317009 
   72200   -287.86276    16.136571   -271.72618    1166.7098    8714.3218    9.6885488   0.16955842 
   72300   -287.29534    19.533231    -267.7621    1412.2958    9405.6335    9.6760233   0.18041012 
   72400   -285.57469    18.605589    -266.9691    1345.2253   -4201.4805    9.4728746   0.22522224 
   72500   -287.59304    16.845145   -270.74789    1217.9412   -9781.7094    9.5061782   0.18064206 
   72600   -287.62345    15.871498   -271.75195    1147.5444    689.39143    9.5835553   0.14688096 
   72700   -284.21684    18.037558   -266.17928    1304.1553   -7792.6723    9.3845437   0.22661286 
   72800   -284.73952    17.357043   -267.38247    1254.9526    9641.4858    9.5587887   0.20277224 
   72900   -288.31966    17.588569   -270.73109    1271.6924     4520.728     9.657291   0.15946702 
   73000   -287.97387    15.924654   -272.04921    1151.3877    4802.1531    9.6606642   0.17073493 
   73100   -285.86814    19.091185   -266.77695    1380.3349   -14071.581    9.3410368   0.23567877 
   73200   -284.98909    16.310423   -268.67867    1179.2796     4468.309    9.5590589    0.2251788 
   73300   -286.77523    16.791613   -269.98362    1214.0707   -264.80299    9.5753087   0.21739539 
   73400   -283.97965    18.817237   -265.16241    1360.5279   -6168.7875    9.3767551   0.24304202 
   73500    -283.7948    16.205041   -267.58976    1171.6603    315.05715    9.4507794   0.25963203 
   73600   -287.79974    17.200605   -270.59913    1243.6418   -11986.261    9.4776499   0.21557242 
   73700   -285.92329      17.0884   -268.83489    1235.5291   -2144.2229    9.5229958   0.19805998 
   73800   -286.92152    23.140341   -263.78118    1673.0978     4343.456    9.5675696   0.18718087 
   73900    -286.2741    18.469765   -267.80434    1335.4049    11293.512     9.677116   0.19415244 
   74000   -287.91117      17.1478   -270.76337    1239.8239   -2903.3077    9.5757404   0.17249386 
   74100    -286.7647     17.29543   -269.46927    1250.4979   -15116.122    9.4035232   0.19008844 
   74200   -284.01272    18.016824    -265.9959    1302.6563    6936.9173    9.5328823   0.18558525 
   74300   -286.36752    16.239331   -270.12819    1174.1395    1387.0644     9.578287   0.18754879 
   74400   -288.33156    17.178751   -271.15281    1242.0617   -16883.899    9.4413679   0.18643325 
   74500   -285.24064     19.26772   -265.97292    1393.0988   -6983.2502    9.4089316   0.22979152 
   74600   -282.97748    16.291098   -266.68638    1177.8824   -1451.0837    9.4035745   0.29718549 
   74700    -288.0449      17.6912    -270.3537    1279.1129    61.742969    9.6139799   0.17579267 
   74800   -290.14605    19.177507   -270.96854    1386.5762    4594.5338      9.72783     0.131794 
   74900    -284.3392    16.836764   -267.50243    1217.3353    5483.2218    9.5292329   0.25337271 
   75000   -283.66415    16.708959   -266.95519    1208.0947   -3589.4075    9.3879365   0.23713536 
   75100   -286.68168    15.678905   -271.00277    1133.6195     6364.837    9.6230267   0.17543234 
   75200   -286.19122    16.917927   -269.27329    1223.2036    12899.676    9.6835238   0.20007768 
   75300   -284.52712    18.933484   -265.59363    1368.9328   -1821.8586    9.4414194   0.23100426 
   75400   -285.47717     16.02223   -269.45494    1158.4426    12094.481    9.6644702   0.20486148 
   75500   -286.21062    14.357596   -271.85303     1038.086     3733.549    9.5996302     0.225348 
   75600   -283.30026    15.878873   -267.42139    1148.0777   -6154.6798    9.3617592   0.21893682 
   75700   -285.76358    17.025365   -268.73822    1230.9716   -1214.5117    9.5263744   0.20206958 
   75800   -289.13419    16.517788    -272.6164    1194.2726    3877.1761    9.6944045   0.15660711 
   75900   -286.30312    17.578175   -268.72494    1270.9409   -753.71954    9.5367251   0.21533548 
   76000   -284.40637    16.774794   -267.63157    1212.8547    6649.9828    9.5671051   0.21391879 
   76100   -287.35397    15.430555   -271.92341    1115.6633    8440.6634    9.6932582   0.18965789 
   76200   -287.55799    16.706628   -270.85136    1207.9262   -18796.279    9.3849725   0.19676443 
   76300   -284.47611    16.627822   -267.84829    1202.2283   -8760.6434    9.3823008   0.22219059 
   76400   -288.85617    18.337262   -270.51891    1325.8246    14619.166    9.8059611   0.13084431 
   76500   -289.77919    17.833352   -271.94583    1289.3908    6624.6567    9.7681114   0.12458543 
   76600   -285.00153     17.44866   -267.55287    1261.5767    5155.3736    9.5541507   0.18942153 
   76700   -287.77712    18.936316   -268.84081    1369.1376   -9190.2964    9.5071093   0.18189518 
   76800   -287.72559    15.480575   -272.24502    1119.2798    541.94568    9.6124134    0.1575035 
   76900   -286.52396    18.677675   -267.84628    1350.4372    178.43919    9.5475281   0.20407027 
   77000   -284.68055    17.060052   -267.62049    1233.4795   -6887.5119    9.4045868   0.22083087 
   77100   -287.46895    15.163119   -272.30583     1096.327    2223.5691    9.6300336   0.16872055 
   77200   -286.84091    16.873416    -269.9675    1219.9853   -5535.8409    9.4980667   0.18403471 
   77300   -284.81004    15.835951   -268.97409    1144.9743   -2534.6617     9.456195   0.25325345 
   77400   -286.16977    18.185038   -267.98473    1314.8185   -461.72597    9.5158297   0.19574101 
   77500   -281.78751    18.841066   -262.94645    1362.2507   -13634.259    9.1781751   0.37681025 
   77600   -283.12613    20.410481   -262.71565    1475.7229    18415.791    9.5996551   0.23108796 
   77700   -285.89494    18.922764   -266.97217    1368.1577     19827.64    9.7289738   0.19974966 
   77800   -286.63554    18.948752   -267.68679    1370.0367     509.3642    9.5337409   0.16891218 
   77900   -285.81865    15.914518   -269.90414    1150.6548   -2231.3997     9.484952   0.17785006 
   78000    -287.3352    14.946062   -272.38913    1080.6333   -1490.7679    9.5729097   0.15803494 
[...]
  481400    -284.7682    18.929411   -265.83879    1368.6383    8722.4474    9.5514016   0.22233596 
  481500   -288.23237    18.411803   -269.82057    1331.2141    -4073.402    9.5791861   0.15431946 
  481600   -287.37788    15.455247   -271.92263    1117.4486    8548.7136      9.68932    0.1832614 
  481700    -285.3785    18.101996    -267.2765    1308.8143   -17241.504    9.3127906   0.22426331 
  481800   -284.43713      17.1247   -267.31243    1238.1537   -8397.1914    9.3615715   0.24902915 
  481900   -288.28581    16.454936   -271.83088    1189.7283   -3587.1772    9.5982142    0.1680257 
  482000   -286.99831    17.816827   -269.18148     1288.196     7674.084    9.6465422   0.20696379 
  482100   -284.34308    16.667529   -267.67555    1205.0992    9205.7491    9.5743516   0.19291304 
  482200    -289.1105     18.35201   -270.75849     1326.891    9400.4551    9.7484763   0.14448306 
  482300   -286.76805    16.589867   -270.17819    1199.4841    3627.3864    9.6109524   0.18519376 
  482400   -282.59784    16.323946   -266.27389    1180.2574   -11810.132    9.2562812   0.28222587 
  482500   -287.46694    18.316066   -269.15087    1324.2921     -4348.87    9.5360043   0.20957557 
  482600   -287.52222    15.926369   -271.59585    1151.5117    9100.8161    9.6794053   0.16545476 
  482700   -285.23893    18.151729    -267.0872    1312.4101   -7286.6294    9.4031223   0.20999949 
  482800   -284.75864    16.907868   -267.85077    1222.4762   -8612.8487    9.3890262   0.20764623 
  482900   -287.91101    16.328248   -271.58276    1180.5685    7537.3225    9.7037165   0.15358245 
  483000   -287.51532    18.541286   -268.97403     1340.576    14812.072    9.7357845   0.15747869 
  483100   -286.41852    19.231552   -267.18697    1390.4838   -6978.7676    9.4537067   0.19413113 
  483200   -286.67924    15.410261   -271.26898     1114.196   -7296.7754    9.4838715   0.21367912 
  483300   -285.75268    14.958755   -270.79393    1081.5511    2327.0893    9.5449367   0.21200735 
  483400   -283.80384    17.105842     -266.698    1236.7902    5924.9348    9.5230333   0.23661612 
  483500   -288.73385    18.590881   -270.14297    1344.1618    2639.7812    9.6312596    0.1950115 
  483600   -286.09117    15.912372    -270.1788    1150.4997    3185.9293    9.5515062   0.19064969 
  483700    -284.9058    18.886712   -266.01909    1365.5511   -14392.059       9.3343   0.22607921 
  483800   -286.38213    16.703387   -269.67875    1207.6918    1855.3752      9.56446   0.17489541 
  483900   -288.90863    17.663037   -271.24559    1277.0767    2811.7008    9.6816679   0.15566488 
  484000   -285.90222    18.305517   -267.59671    1323.5293   -5202.5049    9.4806284   0.21724085 
  484100   -285.09049    17.827206   -267.26329    1288.9464    2208.3281    9.5170669   0.23649675 
  484200   -287.36281    15.341915   -272.02089    1109.2544   -8152.5543    9.5081037   0.19631168 
  484300   -286.53762    17.346076   -269.19155    1254.1597   -8576.8666    9.4734443   0.20004597 
  484400   -285.49688    17.698159   -267.79872    1279.6161    12523.204    9.6549251   0.19764122 
  484500   -291.17892    18.839245   -272.33967    1362.1191    2796.6206    9.7719938   0.11565486 
  484600   -287.31101     15.72147   -271.58954     1136.697    1867.7248    9.6238639   0.17047702 
  484700   -284.65295    16.240456   -268.41249    1174.2209   -18998.553    9.2620509   0.21437478 
  484800   -287.41424    18.249765   -269.16447    1319.4984   -16855.731    9.4068481    0.1761191 
  484900   -290.05731     17.20881    -272.8485     1244.235    3320.5203    9.7398031   0.14873565 
  485000   -287.86555    18.449134   -269.41641    1333.9132    5437.5312    9.6732313   0.17124379 
  485100   -285.98523    17.354536   -268.63069    1254.7713    -458.2252    9.5389475   0.23743596 
  485200    -288.8058    19.781407   -269.02439    1430.2395   -7006.7064    9.5572053   0.16813244 
  485300   -289.28048    15.539152   -273.74133     1123.515    -2927.732    9.6339248   0.14599707 
  485400   -285.56678     15.30393   -270.26285     1106.508   -1271.8515       9.5084    0.1633014 
  485500   -285.35068    17.032941   -268.31774    1231.5193    12493.057    9.6341514   0.18802064 
  485600   -286.07887    16.568196   -269.51067    1197.9172    13118.922    9.6945187   0.20274475 
  485700   -289.16021    14.178944   -274.98126     1025.169   -3541.4447    9.6389619   0.16963705 
  485800   -286.40902    15.090038   -271.31898    1091.0431   -12390.091     9.420132   0.19168873 
  485900   -288.22255    18.683373   -269.53917    1350.8492   -10192.967    9.4865471   0.15968667 
  486000     -287.528    17.558801    -269.9692    1269.5402    10372.764    9.7058058   0.17706262 
  486100   -288.51562    15.393978   -273.12164    1113.0187    2631.4579    9.6818292   0.17341366 
  486200   -289.70919    15.790362   -273.91883    1141.6781   -2092.5741    9.6848784   0.15043217 
  486300   -287.83104    17.721433   -270.10961    1281.2988     9502.177    9.7134228   0.13811427 
  486400    -286.8759    17.533034   -269.34287    1267.6771    13701.851    9.7105353    0.1701151 
  486500   -284.27194    16.688251   -267.58369    1206.5974    2926.8488    9.5041651   0.23302838 
  486600   -282.12976    18.029675   -264.10009    1303.5854   -7400.1452    9.3015798   0.27567599 
  486700   -285.69438    16.127079   -269.56731    1166.0235   -4980.5525    9.4819468   0.21886139 
  486800   -285.67614    16.274943   -269.40119    1176.7144    2240.0222    9.5647788   0.17074323 
  486900   -289.03666    17.619509   -271.41716    1273.9295    2474.2315    9.6916889   0.13767696 
  487000   -290.85773    16.890055   -273.96768    1221.1883      11129.5    9.8542524   0.11236631 
  487100   -288.02693    18.705009   -269.32192    1352.4135   -9675.3597    9.5019669   0.17425665 
  487200   -285.07689    16.325703   -268.75118    1180.3844     -10793.7    9.3500138   0.22183018 
  487300   -286.14142    18.057569   -268.08385    1305.6022   -1313.3042    9.4962436   0.21547275 
  487400   -286.84198    21.618606   -265.22338     1563.073    6170.2234    9.6002041   0.16535121 
  487500   -285.15414    20.587112   -264.56703    1488.4937    8557.6741    9.5732977   0.24895588 
  487600   -287.23412    17.052434   -270.18168    1232.9287    3410.5251    9.6174886   0.15523698 
  487700   -287.92899    18.468051   -269.46094     1335.281   -9674.5763    9.4918534   0.15036195 
  487800   -287.32938     17.19978    -270.1296    1243.5822   -5032.9407    9.5217908   0.17683906 
  487900    -288.2248    13.464702    -274.7601    973.52777   -4049.3137     9.605645   0.15518857 
  488000    -287.4376    14.687185   -272.75042     1061.916    114.27998    9.6008922   0.16730388 
  488100   -287.31241    17.403651   -269.90876    1258.3225   -512.11406    9.5809662   0.17734082 
  488200   -286.32329     17.78352   -268.53977    1285.7878    11038.873    9.6778977   0.19117362 
  488300   -284.65434    19.113609   -265.54073    1381.9562    6895.2698    9.5287773   0.24390484 
  488400   -280.29672    16.870045   -263.42668    1219.7415   -4128.7896    9.2706572   0.26001903 
  488500   -284.25857    16.159725   -268.09885    1168.3838    -6036.871    9.3721533   0.20927321 
  488600   -287.19702    17.059552   -270.13747    1233.4433   -5872.9134    9.5118072   0.18036128 
  488700   -286.97863    16.854612   -270.12401    1218.6258    10195.265    9.6811476   0.15417411 
  488800   -282.82505    18.572988   -264.25206    1342.8681    372.09083    9.3942774   0.18632287 
  488900   -284.99117    17.852714   -267.13846    1290.7907   -956.75588    9.4938822   0.21952492 
  489000   -287.31811    17.454618   -269.86349    1262.0075     3513.989     9.619476   0.15874086 
  489100   -288.83628    16.699194   -272.13708    1207.3886   -10617.354    9.5414217   0.16826087 
  489200   -285.05545    17.880564   -267.17488    1292.8043     261.5382    9.5131534    0.2561181 
  489300   -286.10084    20.754697   -265.34614    1500.6105    14827.049     9.688115    0.1713161 
  489400   -285.95904    16.324017   -269.63502    1180.2626    13115.215    9.6920849   0.18782579 
  489500   -286.53683    16.910548   -269.62628      1222.67   -16920.281    9.3641515   0.23890785 
  489600   -283.27513    17.122387   -266.15274    1237.9864   -17158.227    9.2169317     0.264215 
  489700   -286.21329    16.184095   -270.02919    1170.1458   -11597.194    9.4181278   0.23044821 
  489800   -286.51448    15.277298   -271.23718    1104.5824    7596.0496    9.6564664    0.2119671 
  489900   -285.77066    18.981794   -266.78887    1372.4257   -337.57993    9.5119977   0.22578905 
  490000   -286.80405    19.668178   -267.13587    1422.0528    1851.8895     9.581318   0.19421334 
  490100   -287.45851    16.637593   -270.82091    1202.9348    -16130.82    9.4053821   0.19874125 
  490200   -285.91865    15.944714   -269.97394    1152.8381   -6762.6584     9.453981   0.20279376 
  490300   -283.86259    17.817959   -266.04463    1288.2778    9587.0845    9.5487781   0.19577203 
  490400   -284.23414    18.692193   -265.54195    1351.4869    361.23831    9.4309974   0.22098124 
  490500   -287.00079    16.035444   -270.96535    1159.3981    1669.2862    9.5965888   0.19005807 
  490600    -287.3041    17.387364   -269.91674    1257.1449   -14489.717    9.4391649   0.20377109 
  490700   -284.86947    16.572704   -268.29677    1198.2431    688.10612     9.480492   0.23536114 
  490800   -282.50453    16.364275   -266.14025    1183.1733   -5913.4153    9.3306153   0.27154483 
  490900   -288.13474     16.27242   -271.86232     1176.532   -1230.5491    9.6061946   0.16082199 
  491000   -286.35692    15.596783   -270.76014    1127.6819   -2032.6295     9.546317   0.19466287 
  491100   -285.90669    17.103278   -268.80341    1236.6048   -4269.7974     9.499609   0.20830171 
  491200    -285.1116     16.77727   -268.33433    1213.0337    1140.4592    9.5065827   0.24883149 
  491300    -289.4656    16.094789   -273.37081    1163.6889    8915.8102    9.7703864    0.1487441 
  491400    -286.6032    15.059515   -271.54368    1088.8363    4623.7947    9.6054735   0.17308437 
  491500   -285.56067    16.907059   -268.65361    1222.4177   -12236.188    9.3966329    0.2311198 
  491600   -285.60322    17.866117   -267.73711    1291.7598    824.88229    9.5260129   0.19059818 
  491700   -289.12397    16.096917   -273.02706    1163.8427    14998.703    9.8297812   0.12357958 
  491800   -286.82305    16.426768   -270.39628    1187.6916   -15293.337    9.3989386   0.16564545 
  491900   -285.14849    16.409493   -268.73899    1186.4426   -13959.312     9.318642   0.22967952 
  492000   -284.84978    17.594616   -267.25516    1272.1297    732.23665    9.4960338   0.20981342 
  492100    -280.1866     18.51082   -261.67578    1338.3732    15710.407    9.4617954   0.27169511 
  492200   -284.15859    17.153511   -267.00508    1240.2368    14266.202    9.5905921   0.19104824 
  492300     -286.128    17.024502    -269.1035    1230.9092   -5276.4846    9.4715949    0.2092353 
  492400   -284.70202    15.189121    -269.5129     1098.207     -6760.88    9.4166322   0.21665591 
  492500   -286.70655    14.963576   -271.74297    1081.8997    2240.2033    9.5958062   0.19334326 
  492600   -291.03557    14.914235   -276.12133    1078.3322    5837.7231    9.8227566   0.12675884 
  492700   -288.41172    16.229926    -272.1818    1173.4595    545.99426    9.6410021   0.15175058 
  492800   -286.98014    16.614357   -270.36579    1201.2548   -8521.3072    9.5026392   0.18749221 
  492900   -287.75226    19.779196   -267.97307    1430.0796    3068.3236     9.617527   0.14315352 
  493000    -287.5276    17.714852   -269.81275     1280.823    21864.771    9.8476056   0.13768917 
  493100   -291.38677    17.972148   -273.41462     1299.426    -9401.841    9.6450118   0.13014546 
  493200   -285.76968    16.729476   -269.04021    1209.5781   -12498.145    9.3865622   0.22147456 
  493300    -285.6895    17.165644   -268.52385     1241.114   -4403.7272    9.4714507   0.21255664 
  493400   -286.85568    14.952101   -271.90358      1081.07   -2780.8587    9.5478468   0.20528505 
  493500   -287.22974    16.198312   -271.03142    1171.1738    4319.9187    9.6405074   0.16537411 
  493600   -283.69926    16.830359    -266.8689    1216.8722    6780.4957    9.5152236   0.25208554 
  493700   -286.39487    17.863652   -268.53121    1291.5816    1168.7195    9.5530128   0.17903346 
  493800   -288.11416    15.957888   -272.15627    1153.7906     11540.38    9.7565258   0.16040473 
  493900   -285.73768    17.054824   -268.68285    1233.1015   -11543.442     9.383781   0.17075521 
  494000    -283.7706    16.615029   -267.15557    1201.3034   -17915.075     9.237869   0.21980721 
  494100   -287.77901    16.013162   -271.76585     1157.787     547.9873    9.5922908   0.16167097 
  494200   -287.83186    17.816893   -270.01497    1288.2008    7218.4426    9.6746047   0.15945421 
  494300    -284.9371    18.516178   -266.42093    1338.7606    1649.7129    9.4676825   0.22613189 
  494400    -286.9321    17.353097   -269.57901    1254.6673   -9954.0722    9.4549626   0.18990501 
  494500   -287.73714    16.852393   -270.88475    1218.4653    9214.8594    9.7103999   0.15167397 
  494600    -284.0792    17.046027   -267.03318    1232.4654    8135.5875    9.5535649   0.20637456 
  494700   -284.98321    18.325979   -266.65723    1325.0088    10667.977     9.564538   0.19747032 
  494800   -287.29894    15.806704   -271.49224    1142.8596    846.09428     9.603479    0.1813577 
  494900   -285.44483    14.898309   -270.54652    1077.1807   -19741.191    9.3150399   0.21927693 
  495000   -284.91706    17.202476   -267.71459    1243.7771   -13334.686    9.3524761   0.21680014 
  495100   -289.96498    19.444106   -270.52087    1405.8518    785.14309     9.684773   0.16982907 
  495200   -288.42123    16.913435    -271.5078    1222.8788    9191.0507    9.7223823     0.136865 
  495300   -283.96763     17.66266   -266.30497    1277.0494   -5699.5896    9.3920129   0.22584842 
  495400   -285.44937    16.801008   -268.64836      1214.75    3209.3614    9.5282277   0.18055878 
  495500   -284.92177    14.994964   -269.92681    1084.1691    5678.8538    9.5499375   0.19216446 
  495600   -285.00887    18.285587   -266.72329    1322.0884   -4356.6778    9.4186462   0.23024847 
  495700   -284.94485    18.785177   -266.15968    1358.2098   -1914.2967    9.4659659    0.2213834 
  495800   -288.54371    19.472151   -269.07156    1407.8796    8556.6885    9.7100787   0.17776789 
  495900   -285.88257    16.071656   -269.81091    1162.0163     9815.092    9.6480069   0.17818378 
  496000   -287.62496    13.635748   -273.98921    985.89474    -9538.541    9.5072166   0.17269742 
  496100   -285.75016    12.922373   -272.82779    934.31615    4864.1455     9.582548   0.18334448 
  496200    -286.4385    16.843095    -269.5954     1217.793    11087.183    9.6803944    0.1954734 
  496300   -286.21769    17.644907   -268.57278    1275.7658    8973.4177    9.6492837    0.1985916 
  496400   -285.55965     16.46538   -269.09427    1190.4834    5164.5316    9.5902017   0.17894343 
  496500   -288.86186    14.932901   -273.92895    1079.6817   -1.8944696    9.6478859   0.15243647 
  496600    -285.5921    14.569724   -271.02238    1053.4233    -3062.618    9.4970406   0.18495088 
  496700   -285.12014    16.722587   -268.39755      1209.08     513.1608    9.4894623   0.20480075 
  496800   -286.03591    17.176671   -268.85924    1241.9113   -1005.7643    9.5192818   0.18807827 
  496900   -288.98107    15.766497   -273.21457    1139.9526   -4021.0382    9.6342546    0.1391373 
  497000   -288.16333    18.896471   -269.26686    1366.2567   -4817.0708     9.537471    0.1615318 
  497100   -286.04346    17.084551   -268.95891    1235.2509    7597.7555     9.603908    0.1671906 
  497200   -286.78001    14.714927   -272.06508    1063.9217    19261.368    9.7741659   0.14383896 
  497300   -289.31567    15.993399   -273.32227    1156.3581   -9205.8156    9.5815527   0.13731809 
  497400   -284.54104    16.267097   -268.27394    1176.1471   -6217.2519    9.3793486   0.23835106 
  497500   -285.22608     16.16358    -269.0625    1168.6626    12585.048    9.6570303   0.22999465 
  497600   -286.23415    15.085386   -271.14876    1090.7068    3668.9322    9.6023408   0.21180386 
  497700   -289.38545    15.787975   -273.59748    1141.5055   -4521.7638    9.6315701    0.1652989 
  497800   -284.59726    15.912017   -268.68524    1150.4741   -6232.2514    9.4106836   0.23413991 
  497900    -284.6808    16.144254   -268.53655    1167.2653   -14145.683    9.3366304   0.20554228 
  498000   -286.77509    17.398109   -269.37698    1257.9218    12512.176    9.6906716   0.16381008 
  498100   -287.86783     15.85799   -272.00984    1146.5677    5573.9875    9.6786141   0.14312499 
  498200    -288.4152    14.352334   -274.06287    1037.7055   -4609.5324    9.5795775   0.15220962 
  498300   -285.30415     16.54379   -268.76036    1196.1526   -14654.865     9.350187   0.23498479 
  498400   -285.64759    16.863857   -268.78373    1219.2941   -3394.3719    9.4728152   0.21969917 
  498500   -286.27581    17.872085   -268.40372    1292.1913    17783.592    9.7381369   0.19662497 
  498600   -288.87739    15.382656   -273.49473    1112.2001   -323.45878    9.6591518   0.17110473 
  498700   -286.21926    15.804918   -270.41435    1142.7306   -22590.456    9.2990109   0.18661798 
  498800    -284.0981    15.464665   -268.63343    1118.1295    2991.9432    9.5003421   0.25717634 
  498900   -284.57259     17.64278   -266.92981     1275.612     5833.825    9.5409679    0.2176778 
  499000   -286.84278    14.918039   -271.92474    1078.6072    3309.5672    9.6342312   0.15361074 
  499100   -289.11707    17.773597   -271.34347    1285.0704   -5620.5521    9.6026013   0.15056856 
  499200   -285.91716    18.743693   -267.17347    1355.2104    10810.147     9.628891   0.17665386 
  499300   -286.06391     16.84715   -269.21676    1218.0862   -4152.3371    9.4903074   0.20542795 
  499400   -287.84213    14.693499   -273.14863    1062.3725   -2712.1272     9.586329   0.16921458 
  499500   -288.59188    18.633722   -269.95815    1347.2593   -5870.1882    9.5661429   0.16557033 
  499600   -284.17739    16.750248   -267.42715      1211.08    11900.988     9.596698   0.20654825 
  499700   -286.37175    15.653844   -270.71791    1131.8076   -6165.9174    9.4982394   0.21891549 
  499800   -285.74473    14.280349   -271.46438    1032.5008    -19567.66    9.3245623    0.2273453 
  499900   -284.95069    17.896261   -267.05443    1293.9393    3146.6434    9.5091514   0.21256235 
  500000   -287.36451    18.551523   -268.81299    1341.3161   -2840.0576    9.5635481   0.19491674 
Loop time of 150.892 on 1 procs for 500000 steps with 108 atoms

Performance: 1431.490 ns/day, 0.017 hours/ns, 3313.635 timesteps/s
100.0% CPU use with 1 MPI tasks x no OpenMP threads

MPI task timing breakdown:
Section |  min time  |  avg time  |  max time  |%varavg| %total
---------------------------------------------------------------
Pair    | 89.736     | 89.736     | 89.736     |   0.0 | 59.47
Neigh   | 5.1721     | 5.1721     | 5.1721     |   0.0 |  3.43
Comm    | 2.5425     | 2.5425     | 2.5425     |   0.0 |  1.68
Output  | 0.11927    | 0.11927    | 0.11927    |   0.0 |  0.08
Modify  | 52.803     | 52.803     | 52.803     |   0.0 | 34.99
Other   |            | 0.5191     |            |       |  0.34

Nlocal:    108 ave 108 max 108 min
Histogram: 1 0 0 0 0 0 0 0 0 0
Nghost:    990 ave 990 max 990 min
Histogram: 1 0 0 0 0 0 0 0 0 0
Neighs:    4857 ave 4857 max 4857 min
Histogram: 1 0 0 0 0 0 0 0 0 0

Total # of neighbors = 4857
Ave neighs/atom = 44.9722
Neighbor list builds = 22497
Dangerous builds = 0
Total wall time: 0:02:30
