LAMMPS (3 Mar 2020)

# ---------- 1. Initialize simulation ----------
units metal
atom_style atomic
dimension 3
boundary p p p
read_data /home/modeler/RemLabs/Project/arrhenius_4/T1400.0/n3_T1400.0_timestep3.000000e-03_eqsteps3200_time600_rseed3340/20201205-112456/lammps.data
  orthogonal box = (0 0 0) to (17.469 17.469 17.469)
  1 by 1 by 1 MPI processor grid
  reading atoms ...
  217 atoms
  read_data CPU = 0.000984885 secs

pair_style meam/c
pair_coeff * * library.meam Li Si LiSi.meam Li Si
Reading potential file library.meam with DATE: 2012-06-29
Reading potential file LiSi.meam with DATE: 2020-11-07

group Li type 1
1 atoms in group Li
group Si type 2
216 atoms in group Si

velocity all create 1400.0 3340 dist gaussian

# ---------- 2. Specify equilibration ensemble  ----------
fix 1 all npt temp 1400.0 1400.0 0.15 tchain 2 iso 1.0 1.0 1.0 pchain 2
# fix 1 all nvt temp 1400.0 1400.0 0.15

# ---------- 3. Run equilibration -------------
timestep 0.003
run 3200
Neighbor list info ...
  update every 1 steps, delay 10 steps, check yes
  max neighbors/atom: 2000, page size: 100000
  master list distance cutoff = 6
  ghost atom cutoff = 6
  binsize = 3, bins = 6 6 6
  2 neighbor lists, perpetual/occasional/extra = 2 0 0
  (1) pair meam/c, perpetual
      attributes: full, newton on
      pair build: full/bin/atomonly
      stencil: full/bin/3d
      bin: standard
  (2) pair meam/c, perpetual, half/full from (1)
      attributes: half, newton on
      pair build: halffull/newton
      stencil: none
      bin: none
Per MPI rank memory allocation (min/avg/max) = 8.895 | 8.895 | 8.895 Mbytes
Step Temp E_pair E_mol TotEng Press Volume 
       0         1400   -951.04357            0    -911.9553   -116399.41    5330.9442 
    3200    1497.7452   -954.97101            0   -913.15368     10339.08    4542.7002 
Loop time of 2.3316 on 1 procs for 3200 steps with 217 atoms

Performance: 355.739 ns/day, 0.067 hours/ns, 1372.448 timesteps/s
100.0% CPU use with 1 MPI tasks x no OpenMP threads

MPI task timing breakdown:
Section |  min time  |  avg time  |  max time  |%varavg| %total
---------------------------------------------------------------
Pair    | 2.265      | 2.265      | 2.265      |   0.0 | 97.14
Neigh   | 0.019034   | 0.019034   | 0.019034   |   0.0 |  0.82
Comm    | 0.013963   | 0.013963   | 0.013963   |   0.0 |  0.60
Output  | 2.7056e-05 | 2.7056e-05 | 2.7056e-05 |   0.0 |  0.00
Modify  | 0.028923   | 0.028923   | 0.028923   |   0.0 |  1.24
Other   |            | 0.004688   |            |       |  0.20

Nlocal:    217 ave 217 max 217 min
Histogram: 1 0 0 0 0 0 0 0 0 0
Nghost:    957 ave 957 max 957 min
Histogram: 1 0 0 0 0 0 0 0 0 0
Neighs:    4282 ave 4282 max 4282 min
Histogram: 1 0 0 0 0 0 0 0 0 0
FullNghs:  8564 ave 8564 max 8564 min
Histogram: 1 0 0 0 0 0 0 0 0 0

Total # of neighbors = 8564
Ave neighs/atom = 39.4654
Neighbor list builds = 32
Dangerous builds = 0

# ---------- 4. Describe computed properties----------
compute msdli Li msd
compute msdsi Si msd
thermo_style custom step pe ke etotal temp press density c_msdli[4] c_msdsi[4]
thermo 100

# ---------- 3. Run production -------------
timestep 0.003
run 200000
Per MPI rank memory allocation (min/avg/max) = 9.666 | 9.666 | 9.666 Mbytes
Step PotEng KinEng TotEng Temp Press Density c_msdli[4] c_msdsi[4] 
    3200   -954.97101    41.817334   -913.15368    1497.7452     10339.08    2.2201131            0 5.2442359e-32 
    3300   -954.60731    39.783402    -914.8239    1424.8972    11544.247    2.2265867   0.10358741  0.091661104 
    3400   -956.75398    39.999018   -916.75496    1432.6198    -3537.653    2.1928295   0.03175446  0.087980656 
    3500   -949.58903    41.805902   -907.78313    1497.3358     -12247.9    2.1541778   0.10596905   0.10461198 
    3600   -955.93567    43.713202   -912.22247    1565.6484   -4939.8606    2.1863408   0.10614516   0.10214007 
    3700   -957.35133    42.151175   -915.20015    1509.7022    8007.7195    2.2210882   0.13106723   0.07706517 
    3800     -958.561     42.80196   -915.75904     1533.011    6569.3591      2.21855    0.2598074   0.10138098 
    3900   -951.68907     44.09263   -907.59644    1579.2381   -7165.0313    2.1732263  0.032502452   0.10803342 
    4000   -952.68072    39.054418    -913.6263    1398.7876   -8363.7983    2.1738953   0.18616282   0.11893507 
    4100   -955.92116    39.843821   -916.07734    1427.0612   -2585.3488    2.1952373  0.047289938  0.087117158 
    4200    -955.0067    40.858754   -914.14794    1463.4124    7692.8711    2.2177336    0.1088148  0.091171341 
    4300   -949.08289     42.70964   -906.37325    1529.7044    6886.3763    2.1986854   0.01626494  0.089339905 
    4400   -954.58641    40.040899   -914.54551    1434.1198   -1268.9835    2.1945849   0.15533834   0.08632921 
    4500    -955.2356    39.166779   -916.06882     1402.812   -8269.1498    2.1799518   0.14381893   0.10483527 
    4600   -956.08927    41.939314   -914.14996    1502.1141   -5659.6559    2.1874071  0.065798006  0.092591412 
    4700   -950.32251    44.305329   -906.01718    1586.8562    4356.6042    2.1954575    0.3268136   0.11697471 
    4800   -953.47256    39.110654    -914.3619    1400.8018     9478.021    2.2198299   0.15725499   0.11429043 
    4900   -955.79492    40.011182   -915.78374    1433.0554   -1569.4842    2.1962871   0.36868999   0.12267144 
    5000   -957.18218    42.512925   -914.66926    1522.6588   -12393.039    2.1714919    0.2701864  0.090885026 
    5100   -949.82245      43.3907   -906.43175    1554.0975   -4748.5346    2.1676392   0.29269346  0.095984927 
    5200    -955.3903     41.03594   -914.35436    1469.7586    9679.2359    2.2189431  0.079220859    0.1043225 
    5300   -954.49084    39.216283   -915.27456     1404.585    9236.2715    2.2165294   0.05473412   0.08943695 
    5400   -953.10383    37.447195   -915.65664    1341.2227   -3502.4331    2.1873307  0.029799325  0.098900967 
    5500   -947.54739    39.589054   -907.95834    1417.9363   -6933.6995    2.1616831   0.21923738  0.095360559 
    5600   -955.02286    43.400729   -911.62213    1554.4567    -1499.552    2.1891459   0.09629086  0.098353401 
    5700   -954.42708    39.370287    -915.0568    1410.1009    5891.1718    2.2128147   0.10726949   0.11375803 
    5800   -953.04926    37.160882   -915.88838     1330.968    4945.6022    2.2074766   0.12286725   0.11811766 
    5900   -951.86223     40.97593    -910.8863    1467.6092   -3826.8117    2.1799994   0.26065788   0.11874148 
    6000   -948.29035    38.114387   -910.17596    1365.1191   -4672.7963    2.1710736   0.35811515   0.10661006 
    6100   -955.06738    39.163183   -915.90419    1402.6832   -3813.6162    2.1918193  0.049193688  0.099539386 
    6200   -953.50113    38.145958   -915.35518    1366.2499    6595.9281    2.2133781  0.050099318    0.1004229 
    6300   -950.86584    42.036469   -908.82937    1505.5939    6693.9437    2.2042185  0.042884478  0.096786528 
    6400   -952.19431    39.525975   -912.66834    1415.6771   -3179.7959    2.1873061  0.068591003   0.10024383 
    6500   -953.69582    37.335117   -916.36071    1337.2085   -7923.4095    2.1763622 0.0038979142  0.089156485 
    6600   -954.77309    40.100137   -914.67295    1436.2415   -2308.0739    2.1924962   0.23139821  0.099813944 
    6700   -949.53924    41.500549    -908.0387    1486.3992    8746.6545    2.2085229  0.054453814   0.12430857 
    6800   -952.73583    39.764703   -912.97112    1424.2275    6210.3247    2.2086574   0.27779036    0.1110804 
    6900   -954.04261    37.980343   -916.06226    1360.3181    -6849.117    2.1812483   0.43804825    0.1021753 
    7000   -953.55988    38.410738   -915.14914    1375.7333   -7692.0329    2.1743473   0.13043618  0.094417997 
    7100   -949.42436    39.028005   -910.39635    1397.8416    5565.7093    2.1953506  0.078306954  0.098747108 
    7200   -948.26973    40.531285   -907.73845    1451.6837    8684.7247    2.2038858 0.0099886277  0.099945618 
    7300   -953.89388    39.215647   -914.67823    1404.5623    3395.4499    2.2015654   0.14647101  0.090103039 
    7400   -953.07684    37.558662   -915.51818    1345.2151   -2241.7004    2.1878152   0.10902642  0.092304993 
    7500   -954.24245    38.597965   -915.64449    1382.4391   -5205.2532     2.183804   0.14886315  0.098142007 
    7600   -958.94832    39.775401   -919.17292    1424.6106   -1807.5917    2.1998979  0.022089396  0.093854322 
    7700   -956.90146    34.802208   -922.09925    1246.4889    7829.9775    2.2240508   0.12808747  0.099116571 
    7800   -954.80782    37.860195   -916.94763    1356.0149    7690.6107    2.2194496    0.1352292  0.098706082 
    7900   -953.49423    38.843659   -914.65057     1391.239   -4502.1074     2.185317   0.17177136   0.10889668 
    8000   -952.32227    37.979873    -914.3424    1360.3013   -12987.111    2.1587781   0.13898746   0.11086137 
    8100   -956.88008    34.368062   -922.51202    1230.9393   -1653.7325    2.2021907   0.24808951  0.092209734 
    8200   -955.09972    39.623516    -915.4762    1419.1707    15546.534    2.2351841   0.13491696  0.089316654 
    8300   -955.85749    41.943412   -913.91408    1502.2609     8239.139    2.2177366   0.13903764  0.079143138 
    8400   -954.64386    36.882753   -917.76111    1321.0065   -6881.7246    2.1795769   0.06533512  0.091371964 
    8500   -957.70567    35.932384   -921.77328    1286.9677   -9361.3865    2.1856669  0.094800479   0.10146475 
    8600   -954.18898    39.868036   -914.32094    1427.9285   -1675.9383     2.192047  0.062798204    0.1074179 
    8700   -952.34607    37.450105   -914.89596     1341.327     5952.074    2.2095738  0.072637435   0.10507265 
    8800   -954.97893    35.783815   -919.19512    1281.6465    4120.6714    2.2109393   0.18198436  0.099772878 
    8900   -960.21234    40.551951   -919.66039    1452.4238   -3470.2774    2.2001789   0.23867328  0.095325676 
    9000    -954.3479    41.285021   -913.06288    1478.6797   -5744.4972    2.1812728   0.08597279   0.10505159 
    9100   -957.83077    42.521919   -915.30885    1522.9809   -2708.0208    2.1903903   0.23644546  0.086834297 
    9200   -955.04783    38.165923   -916.88191     1366.965    3059.1087    2.2099317  0.049317923  0.096686526 
    9300   -952.44566    40.675112   -911.77055     1456.835    6984.3817    2.2109358   0.13464586  0.094878645 
    9400   -950.58071    40.033895   -910.54681    1433.8689    271.23125    2.1891058  0.090690707   0.10550424 
    9500   -953.20778    37.700514   -915.50726    1350.2957   -9356.4599    2.1709936  0.070054968  0.094250335 
    9600   -953.51351    37.142858   -916.37065    1330.3225   -5069.5993     2.182129   0.18125696  0.091070656 
    9700    -952.7027    42.901103    -909.8016    1536.5619    7444.6262    2.2125442    0.3202757    0.1140228 
    9800   -955.83516    43.926656    -911.9085    1573.2935    9358.8798    2.2218728  0.072740259   0.10621298 
    9900   -953.23304    36.724499   -916.50854    1315.3384   -3095.1045    2.1905947   0.14513662   0.12019209 
   10000   -955.71173    40.951808   -914.75992    1466.7453   -9261.9388    2.1737377   0.18493792   0.09654972 
   10100   -950.62733    41.850976   -908.77636    1498.9502   -2589.1943    2.1846823  0.084999092   0.11042437 
   10200   -959.76265    43.124535   -916.63811    1544.5645    1600.5357    2.2141961     0.145348  0.091909077 
   10300   -954.02379    37.512352   -916.51144    1343.5564    1994.8263    2.2039897  0.095864742   0.10226224 
   10400   -952.76665    38.445457   -914.32119    1376.9768   -2686.2641    2.1912787  0.030350573   0.11303911 
   10500   -950.53177    39.979633   -910.55214    1431.9255   -571.63985    2.1875564  0.093398896   0.09508548 
   10600   -947.19571    40.918391   -906.27732    1465.5484    2137.2427    2.1880958    0.1385005   0.10828835 
   10700    -956.7569     40.92554   -915.83136    1465.8044    5940.0768    2.2190479    0.1575191   0.10030679 
   10800   -953.03289    37.548427   -915.48447    1344.8485    290.67572    2.1986498    0.3455211   0.12713954 
   10900   -954.06488    38.523885     -915.541    1379.7858   -7223.6049    2.1801754   0.37563022   0.10996615 
   11000   -955.60985     41.31165    -914.2982    1479.6335   -4957.4543    2.1859923   0.05365764  0.096660173 
   11100   -946.63883    40.788188   -905.85064     1460.885    8490.6159    2.1995675   0.10945293   0.11220462 
   11200   -951.93756    40.909119   -911.02844    1465.2163    10832.645    2.2145463   0.16003826  0.097620907 
   11300   -952.17884    37.157273   -915.02157    1330.8388   -3021.9969    2.1850216  0.092389204   0.10985907 
   11400   -952.14316    35.632931   -916.51023    1276.2424   -9862.8521    2.1702579  0.040347819   0.10946781 
   11500   -953.35769    39.905597    -913.4521    1429.2738   -2041.9164    2.1919028  0.014276504   0.10412628 
   11600    -949.1014    40.030549   -909.07085    1433.7491    8310.2431    2.2050978   0.12314591  0.096720392 
   11700   -951.89295    36.987256    -914.9057    1324.7494    4826.4609     2.203386   0.15680813   0.11454161 
   11800   -954.98624     38.48103   -916.50521    1378.2509   -2968.9003    2.1918142   0.23858055   0.11364345 
   11900   -951.92874    41.315929   -910.61281    1479.7867    -861.8645    2.1870068   0.18760101   0.10522785 
   12000   -951.87551    40.734431   -911.14108    1458.9596   -854.78677    2.1917934  0.081927658    0.1119609 
   12100   -953.92551    37.782494   -916.14302    1353.2319    1073.9968    2.2006981   0.03455518  0.093065748 
   12200   -953.50979    38.281409   -915.22838    1371.1013    1093.8115    2.2005045  0.033030506   0.10262505 
   12300   -948.91893     41.04458   -907.87435     1470.068    940.56334    2.1866482  0.059793276   0.11477402 
   12400   -956.39836    41.079237   -915.31912    1471.3093    247.03909    2.2016119   0.11118865  0.089286474 
   12500   -953.24981    37.061784   -916.18803    1327.4187   -1785.8604    2.1912332  0.072806104  0.096985151 
   12600   -950.96661    37.300295   -913.66632    1335.9613   -127.07659    2.1877536  0.077840973   0.10947392 
   12700   -949.18879    41.814974   -907.37381    1497.6607   -37.553533     2.185203   0.13309948   0.11186667 
   12800   -954.52784    38.578057   -915.94978    1381.7261    7492.5924    2.2151553   0.15594499  0.098482652 
   12900   -955.75341    39.823661   -915.92974    1426.3391   -2522.2335    2.1935477   0.25746563  0.095794714 
   13000   -954.17157    39.144078   -915.02749    1401.9989   -10652.753    2.1683523  0.047259086  0.098703055 
   13100   -949.82493    40.115206   -909.70972    1436.7812   -5278.1208    2.1739659   0.11466763  0.097373487 
   13200    -952.7041    44.061652   -908.64245    1578.1286    6957.6155    2.2066142  0.079115926  0.088885633 
   13300   -951.19894    37.275075   -913.92387     1335.058    10716.158    2.2181162   0.15233404  0.097715681 
   13400   -952.44891    36.967666   -915.48124    1324.0477    48.569366    2.1934035   0.10864346  0.088510131 
   13500   -954.58221     37.95511    -916.6271    1359.4144   -10457.285    2.1718012  0.079054067  0.093668742 
   13600   -957.63973     32.79792   -924.84181    1174.7025   -1944.9963    2.2024243  0.063723375   0.10199978 
   13700   -956.78869     38.75962   -918.02907     1388.229    2928.8402    2.2126807    0.2451161  0.092564533 
   13800   -957.97881    42.778082   -915.20073    1532.1558     3738.473    2.2134585    0.1083317   0.10301445 
   13900   -957.45154    42.516879   -914.93466    1522.8004   -2932.7992    2.1929033  0.082364441  0.094773935 
   14000   -956.84267    41.268859   -915.57381    1478.1009   -8707.4124    2.1796072  0.033269833  0.096682961 
   14100   -958.72747    36.141187   -922.58629    1294.4462    942.72506    2.2100435   0.10741733  0.085787138 
   14200    -956.1284     38.94609   -917.18231    1394.9077    4079.3735    2.2117547  0.074321426  0.079329703 
   14300   -955.27289    40.720444   -914.55244    1458.4586    299.24046    2.1985572  0.045060405  0.085959971 
   14400   -953.06128    38.390189   -914.67109    1374.9973   -1756.5582    2.1894647    0.0387544  0.092069739 
   14500   -957.13988    34.905535   -922.23434    1250.1897     1021.937    2.2079939  0.048761849  0.098872607 
   14600   -955.72164    39.802514   -915.91913    1425.5817   -371.26056    2.1964481  0.032896624  0.096155257 
   14700   -954.58721    40.380379   -914.20684    1446.2787   -366.67989    2.1969272  0.076211175   0.10112235 
   14800   -955.14964    35.797332   -919.35231    1282.1306    388.14519    2.2015413   0.15454671    0.1052327 
   14900   -954.01163    34.526693   -919.48493    1236.6209    1266.2685    2.2023685   0.16040037   0.10940492 
   15000   -953.05545    39.016771   -914.03868    1397.4392    1724.5108    2.1978162   0.15639854   0.10181031 
   15100   -955.57368    39.697949   -915.87573    1421.8366   -1458.7316    2.1960738  0.013570665  0.092754134 
   15200   -955.28871    33.492533   -921.79618    1199.5811    1560.7781    2.2055397  0.089108028  0.092832933 
   15300   -956.10662    40.692244   -915.41437    1457.4486   -1241.5609    2.1960051   0.06336347  0.088880855 
   15400   -954.20248    39.928161   -914.27432    1430.0819    4524.6967    2.2062605   0.10355963   0.09985368 
   15500   -955.50127     39.20961   -916.29166     1404.346    2502.9412    2.2056167   0.21981174  0.089321448 
   15600   -957.60562    36.463404   -921.14222    1305.9869   -5720.4637    2.1903982   0.23533777  0.096431012 
   15700   -955.84981    33.522563   -922.32724    1200.6566   -5032.9188    2.1909591  0.051694759    0.1017275 
   15800    -952.9662    36.898039   -916.06816    1321.5539    4431.0356    2.2064239   0.11993855   0.11254668 
   15900   -953.74097    38.648679   -915.09229    1384.2555    6812.8502    2.2147351   0.17777629   0.11429389 
   16000   -951.94191    36.114615    -915.8273    1293.4945    2956.0701    2.1978243   0.13449913   0.10562273 
   16100   -958.87006    36.972167   -921.89789     1324.209   -9086.3072    2.1859449    0.1190101   0.10108938 
   16200   -958.64196    37.952173   -920.68978    1359.3092    -6984.473    2.1887049   0.10198325  0.081180858 
   16300   -953.69715    37.896068   -915.80108    1357.2997    8188.6083    2.2149899   0.19997941  0.093495208 
   16400   -953.58411    39.703997   -913.88012    1422.0532    11332.548    2.2196305   0.08519522  0.094804454 
   16500   -954.44905    37.112561   -917.33649    1329.2374   -1435.1804    2.1957431   0.26026796   0.10753731 
   16600   -956.33926    34.923334   -921.41593    1250.8272   -7164.2117    2.1846313   0.16779035   0.10167568 
   16700   -954.19261    38.625845   -915.56677    1383.4377   -2694.7412    2.1894058   0.35579163   0.10571988 
   16800   -953.56833      39.7745   -913.79383    1424.5784    6809.8025    2.2115231   0.10764807   0.10780402 
   16900   -959.42879    39.180608   -920.24819    1403.3073     4125.263    2.2180241   0.16983755  0.096077894 
   17000   -956.97023    38.645627   -918.32461    1384.1462   -2266.4016    2.1985044   0.01398661   0.11758339 
   17100   -954.76405    40.568156   -914.19589    1453.0042   -4357.9177    2.1869081   0.12374252   0.10562632 
   17200   -953.62356    37.331227   -916.29234    1337.0692   -1927.3094    2.1957228  0.036955752   0.11066657 
   17300   -958.31542    36.406347   -921.90907    1303.9433     2092.321    2.2126912    0.1722829  0.099286849 
   17400   -952.61101    38.119583   -914.49143    1365.3052    2672.4263    2.2011088    0.1017094   0.10737359 
   17500   -953.52792    39.122532   -914.40538    1401.2272    1190.8191    2.2003158    0.1281915   0.10447163 
   17600   -953.64267    37.296198   -916.34647    1335.8146    1003.5341     2.198274  0.046675307   0.10652726 
   17700   -956.32765    36.799553    -919.5281    1318.0265   -2297.5669    2.1974802  0.087464466   0.10575993 
   17800   -959.25554    33.446787   -925.80875    1197.9426    944.73186    2.2139089   0.08583134   0.10621262 
   17900   -953.02602    35.249192   -917.77683    1262.4982    766.64683    2.1989786   0.24840826   0.11188866 
   18000   -956.55164    40.823549   -915.72809    1462.1515   -1892.1863    2.1962936  0.069081169  0.099289822 
   18100   -954.73154    40.629433   -914.10211     1455.199   -1721.4035    2.1925656  0.045347424   0.10363899 
   18200    -956.0797    39.951086   -916.12862     1430.903    176.75636     2.198212  0.014864814  0.098395932 
   18300   -957.31189    36.297021   -921.01487    1300.0277     2031.895    2.2113981  0.023896256   0.08949067 
   18400   -955.81872    39.849935   -915.96878    1427.2801    2333.2236    2.2076779  0.086596355   0.10140677 
   18500   -952.05379    37.994336   -914.05945    1360.8193    1302.2657    2.1927472  0.082634507   0.10158191 
   18600   -955.01626    37.240267   -917.77599    1333.8113   -8114.5052     2.182131 0.0076555179   0.10470988 
   18700   -954.72506    34.281848   -920.44321    1227.8515    261.43283    2.1993923   0.18191229   0.10289297 
   18800   -955.21966    40.956904   -914.26276    1466.9278    7649.5323    2.2160394   0.10323033    0.1007626 
   18900   -955.20944    40.327224   -914.88222    1444.3749    5670.9104    2.2165448  0.031556932   0.11554699 
   19000   -959.48544    37.945109   -921.54033    1359.0562    -5479.671    2.1974171  0.074396813  0.094569621 
   19100   -951.49143    35.815118   -915.67631    1282.7676   -8150.2302    2.1728788  0.034171751   0.10461709 
   19200   -953.93559    39.822645   -914.11294    1426.3027   -559.12397    2.1925965  0.012486211    0.1039488 
   19300   -955.09024    39.094062   -915.99618    1400.2075    7297.6238    2.2188172  0.036458968  0.094403614 
   19400    -957.7457    36.347096   -921.39861    1301.8211     6271.279    2.2198586  0.061888036   0.10230976 
   19500   -953.82648    40.014981    -913.8115    1433.1915   -4570.4015    2.1838139   0.15119261   0.10641724 
   19600   -951.49929    37.398622   -914.10067     1339.483   -3295.4068    2.1827955   0.30744746   0.10941511 
   19700   -953.41086    37.295511   -916.11535      1335.79    935.46461    2.2006671  0.018439154   0.11925277 
   19800   -954.65084    35.835566   -918.81527       1283.5    7516.6999    2.2171805   0.17344402   0.10049192 
   19900   -951.79839    41.226067   -910.57232    1476.5682    2055.9827    2.1965159  0.035769833   0.11049004 
   20000   -951.90735    39.224776   -912.68258    1404.8892    1099.0624    2.1933505  0.023102546   0.11468477 
   20100   -953.04868    36.784225   -916.26445    1317.4775   -3229.2693    2.1923097   0.20127263   0.10830033 
   20200   -953.03166    36.181673   -916.84999    1295.8963   -1156.5395    2.1920573   0.13472792   0.10664623 
   20300   -953.31855    44.725353   -908.59319    1601.8999   -709.04185    2.1888729  0.088100744   0.10348578 
   20400   -951.54872    37.142946   -914.40577    1330.3256    12131.651     2.224067   0.13228612    0.1036183 
   20500   -954.69742    38.377261   -916.32016    1374.5343    6433.8541    2.2128819  0.011136244  0.090694431 
   20600   -953.63133    42.157855   -911.47348    1509.9415   -10062.773      2.16404   0.05422775   0.10377296 
   20700   -948.97985    37.900493   -911.07936    1357.4582   -9437.2965    2.1605347   0.14640056   0.12032214 
   20800   -951.10212      34.3406   -916.76152    1229.9557    5103.4262    2.2077046    0.2858657   0.11574016 
   20900   -957.08552    43.213851   -913.87167    1547.7634    10803.528    2.2261099   0.19898273   0.10640012 
   21000   -952.86111    43.410934   -909.45018    1554.8222    1868.1264    2.1967501  0.038861238  0.095684116 
   21100    -953.0844    35.761762   -917.32263    1280.8566   -6499.8007    2.1827119  0.018523325  0.096802238 
   21200   -956.92438    40.393693   -916.53068    1446.7556    -11926.98    2.1729851  0.097487708  0.092448347 
   21300   -952.61682    39.384053   -913.23277    1410.5939    711.93134    2.1926325   0.13927594   0.10656471 
   21400   -955.14444    37.981889   -917.16255    1360.3735    7577.5028    2.2184612  0.081876377   0.10605928 
   21500   -959.80487    40.134814   -919.67006    1437.4835    2582.8466    2.2144864  0.074009673  0.091961563 
   21600   -955.60982    41.004496   -914.60533    1468.6323   -3999.5467    2.1860903  0.030921317  0.099003655 
   21700   -953.90855    39.326713   -914.58184    1408.5403   -6287.9656    2.1783894    0.1396363   0.10683743 
   21800   -957.58421    35.759714    -921.8245    1280.7833    438.61377    2.2064103   0.24755855   0.10545492 
   21900   -953.00804      38.0865   -914.92154    1364.1203    4969.4968    2.2061065  0.077447746   0.12228809 
   22000   -952.16709    38.056395   -914.11069    1363.0421    4647.1673    2.2035875   0.13016768   0.10247538 
   22100     -956.019    36.875163   -919.14384    1320.7346   -2078.2258    2.1933929  0.037221251  0.093099045 
   22200   -953.72571    36.262617   -917.46309    1298.7954   -4851.0956    2.1833626   0.21467924   0.10433604 
   22300     -952.654    39.756321   -912.89768    1423.9272     2518.927    2.1948486  0.049664558  0.096041408 
   22400   -957.77502    42.327605   -915.44742    1516.0213    7887.6894    2.2208446    0.0186951  0.086321855 
   22500   -955.56735    37.440478   -918.12687    1340.9821    7249.0344    2.2146506  0.086232595   0.10056745 
   22600   -950.69006    41.700691   -908.98937    1493.5675   -11379.162    2.1578876  0.062645638    0.1024875 
   22700   -952.64921    37.947167   -914.70204    1359.1299   -10831.854    2.1669779  0.025179616   0.10466128 
   22800   -954.99493    38.694537   -916.30039     1385.898    4844.4482    2.2090574   0.35685801  0.096000643 
   22900   -953.73705    41.550706   -912.18635    1488.1956    13259.919    2.2261649  0.056433872  0.098337881 
   23000   -953.71633    43.448511   -910.26782    1556.1681    1010.8338    2.1937726   0.13821307  0.093713651 
   23100   -954.00686    36.669114   -917.33775    1313.3547    -5470.821    2.1811302  0.093808174  0.096109488 
   23200   -953.55201    38.313492   -915.23852    1372.2503   -3566.2666    2.1850469   0.13754776  0.093769432 
   23300    -949.5645    39.225573   -910.33892    1404.9178    3923.1471    2.1951755  0.059843956  0.091895395 
   23400   -957.49849     39.72847   -917.77002    1422.9297    3533.6271    2.2105686  0.032751215  0.090145502 
   23500   -954.23922    36.921757   -917.31746    1322.4034   -1294.2797    2.1927229 0.0031922247  0.092065144 
   23600    -952.0789    38.045018   -914.03388    1362.6346   -3144.7179    2.1823701   0.32916122   0.11010742 
   23700   -953.60434    40.701593   -912.90275    1457.7835   -1213.3928    2.1910833   0.10109287   0.10372432 
   23800   -958.01846    36.961516   -921.05694    1323.8275    6992.4689    2.2245948   0.23049879   0.10153597 
   23900   -956.43258     40.71933   -915.71325    1458.4187    2317.8801    2.2056183    0.1310345  0.094368567 
   24000   -956.55572    42.262687   -914.29303    1513.6962   -7493.8347    2.1815223  0.088953239    0.1023947 
   24100    -953.7894    34.271109   -919.51829    1227.4668   -8577.2979    2.1800182   0.11288082   0.10158311 
   24200     -955.372    36.546247   -918.82575     1308.954    1649.5829    2.2018348   0.15187316  0.077980994 
   24300   -955.19632    42.292964   -912.90335    1514.7806    14558.992     2.232527  0.045007831  0.094757911 
   24400   -954.21238    38.592144   -915.62024    1382.2307     9201.495    2.2198714   0.11227937  0.092235329 
   24500   -957.68584    36.481539    -921.2043    1306.6364   -13525.609     2.171197  0.030580651  0.092963067 
   24600   -954.67104    40.654123   -914.01692    1456.0833   -14982.377      2.15902  0.031062868   0.11077529 
   24700   -952.47171    38.869299   -913.60241    1392.1573    4527.4401     2.204273    0.3106531  0.099637289 
   24800   -952.70502     36.08836   -916.61666    1292.5542    11222.955    2.2223534   0.16081577   0.10632961 
   24900   -956.79304    39.903166   -916.88987    1429.1867     1888.319     2.207928   0.02281321  0.095675132 
   25000   -950.52207    40.561872   -909.96019    1452.7792   -7705.5176    2.1709479  0.012179331   0.10760493 
   25100   -956.44916    40.367742   -916.08142    1445.8261   -6846.2597    2.1847051  0.016118897  0.091869411 
   25200   -951.95423    35.684789   -916.26944    1278.0997    3890.6293    2.2065311  0.035555768   0.09415603 
   25300   -952.82941    44.200295   -908.62911    1583.0943    5042.1275    2.2061565  0.021396492  0.099100215 
   25400   -956.64291    41.731051   -914.91186    1494.6549    1007.1422    2.2042369  0.083468892  0.092206895 
   25500   -955.44041    38.410317   -917.03009    1375.7183   -6274.9457    2.1854036   0.38879607   0.10424769 
   25600   -956.41104    44.268783   -912.14226    1585.5472   -10029.826    2.1755466   0.11031077   0.10415288 
   25700   -951.04258    39.276495   -911.76608    1406.7416    1992.1468     2.195616   0.21849079    0.1103808 
   25800   -953.47504     35.94072   -917.53432    1287.2663    11297.757    2.2239985  0.058162404   0.10280983 
   25900    -953.6169    39.446655   -914.17024    1412.8361    5807.1302    2.2103335    0.1314174   0.10328574 
   26000   -952.81566    39.779287   -913.03638    1424.7498   -6020.4745     2.180556   0.18590723   0.10419989 
   26100   -957.36364    36.367676   -920.99596    1302.5583   -8153.6549    2.1881371  0.056469826  0.090173389 
   26200   -952.98182    36.970177   -916.01164    1324.1377   -242.88118     2.196896   0.14852247  0.096775316 
   26300   -953.67671    40.786334   -912.89037    1460.8186    8307.7507    2.2146788   0.19126352  0.094270068 
   26400   -960.80614    41.111465   -919.69467    1472.4636    3758.9989    2.2192569  0.060875634  0.089331247 
   26500   -957.10417     39.66451   -917.43966    1420.6389   -7418.3217    2.1817704  0.034866866   0.10001043 
   26600   -950.29225    36.417982   -913.87426      1304.36   -11181.729    2.1607743   0.72968301     0.115759 
   26700   -951.82495    37.713227   -914.11172     1350.751   -916.34545    2.1891595   0.82427678    0.1192946 
   26800    -957.6038    38.043073   -919.56073    1362.5649    23892.037    2.2593502    1.2210576  0.097400499 
   26900   -956.77605    38.310432   -918.46562    1372.1407    12519.679     2.233284   0.64338935   0.10697876 
   27000   -952.79458    38.198649   -914.59593    1368.1371   -9860.8606    2.1659634    1.2165743   0.11691403 
   27100   -951.34366    37.439155    -913.9045    1340.9348   -8152.4996    2.1693683   0.43630689   0.11256563 
   27200   -957.51155    41.956284   -915.55527     1502.722    986.95042    2.1995543   0.67777244   0.10510394 
   27300   -957.98009    35.928738   -922.05135    1286.8371    10726.185    2.2293733    4.1004711   0.11637681 
   27400   -953.46967    38.838232   -914.63144    1391.0446    363.58664    2.1933361    5.2170474    0.1172782 
   27500   -951.81984    38.223138    -913.5967    1369.0142   -8225.8043    2.1744465    7.3478015   0.11072007 
   27600   -954.17384    38.232573   -915.94127    1369.3521   -6911.0133    2.1793278    2.8509701   0.12100914 
   27700   -957.68905    37.563368   -920.12568    1345.3836    4222.8201      2.21298    5.3698345   0.11792873 
   27800   -952.26886    39.713401   -912.55546      1422.39    5905.8039    2.2094925    4.8421571   0.13301818 
   27900   -954.72936    40.473562    -914.2558    1449.6162   -459.21799    2.1933228    4.3222178   0.12235452 
   28000   -956.02976    36.757213   -919.27254    1316.5101   -6989.8687    2.1817616    5.3506119   0.11697169 
   28100   -952.40941    39.455782   -912.95363     1413.163   -3720.6614    2.1814667    4.6924793   0.12264681 
   28200   -954.74331    42.371112    -912.3722    1517.5796    6265.4842    2.2086105    4.8393963   0.11332292 
   28300   -952.47036     36.47131   -915.99905    1306.2701     8564.561    2.2116746    5.5034669   0.13236353 
   28400   -955.81042     39.85403   -915.95639    1427.4268   -2080.4448    2.1899158    4.5842361   0.10888254 
   28500   -949.48627    40.609422   -908.87685    1454.4822   -11154.726    2.1602586    5.2224838   0.13972591 
   28600   -952.33994    36.965529   -915.37441    1323.9712   -3947.1192    2.1865768    6.7396819   0.12877419 
   28700   -951.69411    37.223448   -914.47066    1333.2089    9678.6683    2.2152807    2.6035745   0.11049851 
   28800   -948.65659    40.516315   -908.14027    1451.1475    9551.8541    2.2114671    8.9645933   0.13697361 
   28900   -951.62816    39.853397   -911.77476    1427.4042   -5384.9387    2.1840268    7.8117418   0.14631739 
   29000   -952.59119    37.095341   -915.49584    1328.6206   -11151.507    2.1702196    4.5378299   0.14124341 
   29100   -951.49755    38.075002   -913.42254    1363.7085   -2123.8127     2.188697    5.3452096   0.14235851 
   29200   -951.17002    40.450579   -910.71944     1448.793    5233.9597    2.2033228    3.5545745   0.13949451 
   29300    -947.5961    45.902263   -901.69384    1644.0526   -403.70967    2.1803678    6.8422314   0.14896014 
   29400   -951.44059    40.412974   -911.02762    1447.4462    1288.7451    2.1950579    4.9570156   0.12771625 
   29500    -953.4062    39.967258   -913.43894    1431.4822   -1231.7872    2.1922356    5.2154404   0.12003702 
   29600   -955.88644    40.147603   -915.73884    1437.9415    -3352.741    2.1919318    3.7196453      0.12485 
   29700   -952.74575    35.313726   -917.43202    1264.8096     1281.368    2.1999631    4.8111963   0.13350373 
   29800   -950.90697    42.119349   -908.78762    1508.5623    307.67981    2.1921874    3.0084135    0.1398277 
   29900    -951.2849    39.600576   -911.68432     1418.349    6992.0732    2.2084868    4.2146042   0.14533247 
   30000   -954.60716    40.376499   -914.23066    1446.1398    2039.3112    2.1992685    4.5138234   0.13445056 
   30100   -954.98297    37.170522   -917.81245    1331.3133   -4299.2757    2.1890767    4.4362514   0.14346565 
   30200   -952.95363    33.746748   -919.20688    1208.6861   -2706.9208    2.1930646     6.815929   0.13970133 
   30300   -947.84247    36.722064   -911.12041    1315.2512    2681.3776     2.195395    3.8295103   0.15285374 
   30400   -951.33599    38.167958   -913.16804    1367.0378     5064.949    2.2060081     5.793969   0.14815577 
   30500   -953.76547    37.821143   -915.94433    1354.6162   -2036.1954    2.1977616    6.9944399   0.12550775 
   30600   -950.42479    37.670777   -912.75402    1349.2306   -4903.7205    2.1775619    4.7121948   0.13353627 
   30700   -951.25859    42.350099   -908.90849     1516.827   -5247.9321     2.174067    3.3254743   0.13747919 
   30800   -951.53292    37.363826   -914.16909    1338.2368    6283.4694    2.2037824    3.0043369   0.13734836 
   30900   -956.44327    41.522316   -914.92095    1487.1788    7958.6416    2.2197064    4.6106027   0.13168951 
   31000    -952.2626    35.376869   -916.88573    1267.0712    4485.9174    2.2086158    5.4801544   0.13164984 
   31100   -949.46772    42.062201   -907.40551    1506.5155   -11815.283    2.1595403    5.8354764    0.1537142 
   31200   -952.30797     39.87541   -912.43256    1428.1926   -6853.3549    2.1764347    4.8612309   0.13913561 
   31300   -955.58278    40.603702   -914.97907    1454.2773    6431.1113    2.2149777    4.4892191   0.12333202 
   31400   -955.63427    39.918725   -915.71555     1429.744     11264.18    2.2236575    4.8976969   0.12242984 
   31500    -951.0215    44.095456   -906.92604    1579.3393   -3247.3863    2.1791673    4.6644634    0.1407014 
   31600   -954.92508     41.71194   -913.21314    1493.9704   -6759.1303    2.1776635    4.7727891   0.13711049 
   31700   -950.03802    35.264151   -914.77387     1263.034   -1255.6289    2.1874617    6.3905718   0.13822097 
   31800   -953.07198    39.218956   -913.85303    1404.6808    4389.5786    2.2039024     4.396438   0.12320044 
   31900   -949.93722    45.298463   -904.63876    1622.4267    4877.8459    2.1930999    5.3152446   0.13257697 
   32000   -952.00888    41.548307   -910.46057    1488.1097    1549.3709    2.1935653    5.6620908   0.12351024 
   32100    -955.4521    40.902156   -914.54995    1464.9669   -3877.8595    2.1877003    4.1252467   0.12939619 
   32200   -956.89713     41.18633    -915.7108     1475.145   -2368.5026    2.1909917     4.608862   0.11254235 
   32300   -953.31498    43.190238   -910.12474    1546.9177   -862.17341    2.1929897    5.1585556    0.1158994 
   32400   -951.96856    42.074831   -909.89373    1506.9679    1719.8636    2.1929809    4.8656061   0.12200334 
   32500   -954.70969    40.110831   -914.59886    1436.6245   -2498.5055     2.191807    3.5601445    0.1304513 
   32600    -953.1558    37.622929   -915.53287    1347.5169   -1727.2356    2.1900796    5.9198974   0.12680747 
   32700   -950.96838    41.920314   -909.04806    1501.4336    1965.6674    2.1879202     5.434903    0.1272059 
   32800   -952.37723    42.038867   -910.33837    1505.6798    3633.8181    2.2009935    4.9573943   0.12192573 
   32900   -956.40882    41.087846   -915.32098    1471.6176    -654.9334     2.197746    4.2792924   0.13337959 
   33000   -954.71617     40.03063   -914.68554     1433.752   -4772.0685    2.1883617    3.6078097   0.12847011 
   33100    -947.2247    40.665321   -906.55938    1456.4843   -3458.3684    2.1742943    8.4884772   0.12965934 
   33200   -953.43389    39.660721   -913.77317    1420.5032    3178.9044    2.2034589    4.3253657   0.12965259 
   33300   -956.23418    41.375127   -914.85905     1481.907     817.2163    2.2042625    5.0421286   0.12045101 
   33400   -954.88714    41.435767   -913.45137    1484.0789   -4514.3766    2.1867177    3.5418335   0.12474925 
   33500   -948.11523    40.614163   -907.50106     1454.652   -5408.4293     2.174834    5.8310144   0.13684727 
   33600   -949.29508    40.551307   -908.74377    1452.4008   -2450.4848    2.1818746    4.6676702   0.14772486 
   33700   -952.22063    39.086231    -913.1344     1399.927    3277.6368     2.199251    6.1012081   0.13355317 
   33800   -954.68462    40.715278   -913.96934    1458.2736    12092.047    2.2251499    3.4676502   0.13344686 
   33900   -957.62684    40.103739    -917.5231    1436.3705    7004.8314    2.2115093    4.8923087   0.11739857 
   34000   -958.40448    34.773054   -923.63143    1245.4447   -5719.1454    2.1883861    4.8531754   0.11425036 
   34100    -954.4654    39.112752   -915.35265    1400.8769   -13236.871    2.1649816    3.6471256   0.13152858 
   34200   -950.61009    36.214653   -914.39544    1297.0775    4316.1519    2.1970596    3.0738191   0.12944199 
   34300   -953.65939    40.183181   -913.47621    1439.2158    11097.094    2.2222037    4.8537406   0.14564133 
   34400   -955.78744    36.704476   -919.08296    1314.6212    1196.5363    2.2067479    3.8607479   0.12749705 
   34500   -951.71298    31.826869   -919.88611     1139.923   -7469.0197    2.1783454      6.20019   0.13864257 
   34600    -952.0744    37.176998    -914.8974    1331.5453   -6439.8699    2.1766771    5.7224065    0.1305451 
   34700   -949.57232    36.373438   -913.19888    1302.7646    5347.2441    2.1985605    5.3395679   0.13774732 
   34800   -954.88322    35.637865   -919.24536    1276.4191    9593.7209    2.2195685    6.3259728   0.13644536 
   34900   -957.98178    40.335188   -917.64659    1444.6602     1722.098    2.2113036    7.2286759   0.12895078 
   35000   -949.39851    36.504635   -912.89387    1307.4636   -1308.0939    2.1874753    1.6851392   0.13715599 
   35100   -953.51087    38.426357   -915.08451    1376.2928   -6606.7221    2.1755995    4.8525674   0.12297936 
   35200   -955.47228    35.386878    -920.0854    1267.4296   -1120.5316    2.1989278    4.0290893   0.13016773 
   35300   -953.53817    41.431149   -912.10703    1483.9135    4511.0636    2.2025214    4.8227782   0.13044396 
   35400   -955.37305    41.821823   -913.55123     1497.906    5877.4926    2.2087181     5.281116   0.13311031 
   35500   -955.23584     37.34692   -917.88892    1337.6312   -118.76807    2.1951605    5.2059344   0.12912679 
   35600   -949.31271    38.623703   -910.68901     1383.361   -7736.8867    2.1656731    7.2550194   0.14679098 
   35700   -951.12023     39.48575   -911.63448    1414.2364   -1013.8272    2.1854634    3.7941617   0.13334049 
   35800   -952.51288    37.837168   -914.67572    1355.1901    11073.892    2.2230099    4.4238175   0.11543614 
   35900   -954.68817    38.986977   -915.70119    1396.3721    10798.416    2.2241646    3.0338943   0.11010482 
   36000   -951.92684    44.875669   -907.05117    1607.2837   -11835.564    2.1591686    18.593795   0.10688015 
   36100   -953.20641    38.716254   -914.49015    1386.6758    -13387.09    2.1618124    16.672633   0.10173271 
   36200   -953.22287    37.436205   -915.78667    1340.8291    902.11892    2.1981217    21.566853  0.094366311 
   36300   -957.60556    43.379032   -914.22653    1553.6796    8363.7696     2.222381    20.057977  0.092442257 
   36400   -949.86507    43.689087   -906.17599    1564.7846    1668.3257    2.1915251    20.870321   0.10570437 
   36500   -955.27058    41.312239   -913.95834    1479.6546   -5401.2907    2.1846153    20.656223   0.10824297 
   36600   -957.83213    41.819526    -916.0126    1497.8238   -7789.4414    2.1836465    20.337217   0.11603547 
   36700   -952.20807    37.713246   -914.49482    1350.7517    1726.9929    2.1981809    20.457656   0.11311817 
   36800   -949.07902    42.908809   -906.17021    1536.8379    5635.3431    2.1967924    21.781162   0.11156315 
   36900   -954.28764    40.622076   -913.66556    1454.9354    4678.8861    2.2053338    21.005009   0.10132143 
   37000   -952.77793    36.937379   -915.84056    1322.9629    -4089.553    2.1879224    21.497008   0.10695105 
   37100   -951.87638    37.241479    -914.6349    1333.8547   -4431.6137    2.1813966    18.247975   0.10193607 
   37200   -948.39538    41.268858   -907.12652    1478.1008    1498.8478    2.1869072    19.735067    0.1059599 
   37300    -951.3255    39.196887   -912.12862    1403.8904    7407.8293    2.2093044      19.5723   0.10057188 
   37400   -954.47222    39.296539   -915.17568    1407.4595     1372.555    2.1994268    20.451193  0.099588739 
   37500    -956.8797    41.063749   -915.81595    1470.7546   -5599.8671     2.188447     21.39614   0.10774407 
   37600   -949.22018    37.639892   -911.58029    1348.1244   -1533.6218    2.1866394    21.228628   0.10784886 
   37700    -952.7843    43.489851   -909.29445    1557.6488   -801.69464    2.1860593     19.22823   0.10794954 
   37800   -953.50542    38.474006   -915.03142    1377.9994    1026.0968    2.1984719    18.813225  0.097566725 
   37900   -955.62624    39.660153   -915.96609    1420.4828    501.32992     2.198967    19.509107   0.09983618 
   38000   -953.04051    41.940426   -911.10009    1502.1539   -201.56897    2.1902178    19.418767   0.10947797 
   38100   -950.77155    40.551783   -910.21977    1452.4178   -615.28435    2.1868764    16.543912   0.10127284 
   38200   -957.54562    41.668903   -915.87672     1492.429   -4358.4596    2.1925313    19.778688  0.097394873 
   38300   -952.31215    36.746094   -915.56605    1316.1118    1925.3268    2.2007777    20.263542   0.10195376 
   38400   -950.60822    41.850634   -908.75759    1498.9379    2801.6127    2.1970371    20.299286   0.10748792 
   38500   -949.43642    36.535451   -912.90097    1308.5674    3268.0095     2.198505    20.302029   0.11097486 
   38600   -953.85886    37.780297   -916.07856    1353.1532   -5514.4174    2.1804972    22.027088   0.10639744 
   38700   -952.76528    38.091192   -914.67409    1364.2884   -5348.7463     2.182916    19.831794   0.10367428 
   38800   -950.89875    41.010607   -909.88815    1468.8512    9153.5261    2.2119701    23.022639   0.10011097 
   38900   -951.33724    44.346827   -906.99041    1588.3425    11324.972     2.217298    22.700951   0.10489006 
   39000   -952.39881    38.612996   -913.78581    1382.9775     -4990.44    2.1867989    18.272128   0.10768864 
   39100   -950.63779     35.26033   -915.37746    1262.8972   -10563.698    2.1649909    19.478139   0.11540978 
   39200   -952.82299    37.965637   -914.85735    1359.7914   -2548.2548    2.1899503    20.673351   0.10732286 
   39300   -954.89006    37.826221   -917.06384    1354.7981    10651.899    2.2276508    20.904163   0.10546218 
   39400   -959.41078    38.159196   -921.25158     1366.724    5324.2847     2.222783    21.249434   0.10632196 
   39500   -954.74043    37.927935   -916.81249    1358.4411   -1800.2199    2.1937432    19.924695   0.11104838 
   39600   -955.67268    41.082398   -914.59028    1471.4225    -7240.367    2.1828955    20.849937   0.11030565 
   39700   -952.70265    38.503362   -914.19928    1379.0508   -1731.3632    2.1943603    22.696268   0.10032214 
   39800    -958.3903    36.332456   -922.05784    1301.2968    5223.0296    2.2235956    20.769818   0.10225343 
   39900    -953.7107    37.622185   -916.08851    1347.4902    3104.7205    2.2069081    18.899236  0.098404474 
   40000   -953.93589     39.50358    -914.4323     1414.875   -3980.2327    2.1896485    19.147549    0.1044679 
   40100   -957.90913    39.984682   -917.92445    1432.1063   -6689.6566    2.1908074    17.943319   0.10692029 
   40200   -957.68975    36.678195   -921.01156    1313.6799    106.52136    2.2103666    20.832551  0.098759505 
   40300   -952.87438    38.624533   -914.24985    1383.3907    5948.5385    2.2107946    20.871615   0.12346501 
   40400   -953.94823    38.575909   -915.37232    1381.6492    2279.9473    2.2029047     19.13196   0.11574733 
   40500   -954.75823     33.61591   -921.14232         1204   -3793.0043    2.1958523    21.404384   0.11216106 
   40600   -952.03343    34.946102   -917.08733    1251.6426   -2777.1926    2.1910931    19.081718   0.12322745 
   40700   -953.55309    39.590426   -913.96266    1417.9855    5767.1333    2.2094461    22.536828   0.10344154 
   40800   -956.51479    40.984542   -915.53024    1467.9177    7025.9611    2.2202971    19.734449   0.11488853 
   40900   -956.09513    35.746232    -920.3489    1280.3004   -2951.9532     2.197147    18.219168   0.10347533 
   41000   -957.97433    35.453639   -922.52069    1269.8208   -18544.386    2.1639113    20.019793   0.10817749 
   41100   -952.28757    36.653576   -915.63399    1312.7982   -7218.0789    2.1768416    20.078714   0.11302205 
   41200   -954.22532    39.230066   -914.99525    1405.0787    12306.121     2.229487    21.788593   0.11076279 
   41300   -955.89346    41.497746   -914.39572    1486.2988    10424.291    2.2290577    21.506005   0.11984296 
   41400   -951.79967    42.523159   -909.27651    1523.0254   -3409.2604    2.1859267    18.270579   0.12114466 
   41500   -950.46793    40.120161   -910.34777    1436.9587   -10730.548    2.1645548    21.212387   0.12315653 
   41600   -955.84206    40.347934   -915.49412    1445.1167   -6407.4385    2.1852038    21.610474   0.11051284 
   41700   -955.80866    40.528149   -915.28051    1451.5713    3756.7649    2.2119763    21.138522   0.11398204 
   41800   -952.83616    38.986506   -913.84966    1396.3553    8093.6117    2.2175717    21.652077   0.10691832 
   41900   -949.91738    43.191588   -906.72579    1546.9661   -2778.6193    2.1783016    18.668262   0.11159057 
   42000   -953.15887    38.632886   -914.52599    1383.6899    -8129.573    2.1808231     18.70291    0.1062638 
   42100   -951.48226    35.673481   -915.80878    1277.6947    1731.1572    2.1980262    21.366678   0.11298884 
   42200   -952.55056    37.625395   -914.92517    1347.6052    8108.5926    2.2153933    19.279814   0.11083966 
   42300   -950.13313    43.453109   -906.68002    1556.3328     1364.749    2.1903306    20.960698   0.10284187 
   42400   -952.22944    37.982253   -914.24719    1360.3865    -2557.099    2.1886832    19.640788   0.11510537 
   42500   -953.79261    37.651616     -916.141    1348.5443   -3749.9317    2.1887915    21.432798   0.11312342 
   42600   -955.98693    42.332485   -913.65444    1516.1961   -1083.2607    2.1981462    20.741304   0.11524651 
   42700   -950.61895    43.371319   -907.24763    1553.4034    3080.6035    2.1971376    19.370384   0.11349872 
   42800   -954.95147    39.824021   -915.12745     1426.352    2125.0613    2.2076182    20.294216   0.10413932 
   42900   -951.99624    36.171266   -915.82497    1295.5236   -2211.3249    2.1907617    17.814242   0.10924062 
   43000   -950.45275    38.409116   -912.04363    1375.6753   -5486.9896    2.1723829    22.052729   0.10397963 
   43100   -954.55847    46.396247   -908.16223    1661.7453   -4194.7954    2.1855817    20.889425   0.11644745 
   43200   -953.38744    38.412801   -914.97464    1375.8072    10389.268    2.2232971     21.27876   0.11166446 
   43300   -953.06815    37.883816   -915.18434    1356.8609    7882.3642    2.2156826    21.634758   0.10453084 
   43400   -950.95612    38.016241   -912.93988    1361.6039   -4705.5725    2.1773854    21.127454   0.11472404 
   43500   -949.28126    42.736711   -906.54455     1530.674   -12824.712    2.1529012    19.402311   0.11346555 
   43600   -957.53073    41.750694   -915.78003    1495.3584    640.49108    2.2054122    21.453084    0.1070195 
   43700   -957.98072    42.890551   -915.09017     1536.184    10087.166    2.2262126    20.718715   0.10012231 
   43800   -955.14481    40.561163   -914.58365    1452.7538    2601.6345    2.2099298    19.622714   0.11356134 
   43900   -946.33374    40.852712   -905.48103     1463.196   -6751.0221    2.1662051    19.148474   0.13226783 
   44000   -953.80846    40.087772   -913.72069    1435.7986   -2772.5437    2.1902327    22.021599  0.099840278 
   44100   -954.01762    38.624116    -915.3935    1383.3758    2153.3662    2.2036917    20.664278   0.10656949 
   44200   -956.77435    41.266852    -915.5075     1478.029    2198.4174    2.2083581    23.468657   0.10574378 
   44300   -949.71417    42.205883   -907.50829    1511.6617   -102.92642    2.1882992    20.957541   0.11431825 
   44400   -950.09065    38.060471   -912.03018     1363.188   -1063.9067    2.1891189    20.753568   0.12063154 
   44500   -954.42117    38.616482   -915.80468    1383.1024   -2865.9025    2.1899919    24.461611    0.1073356 
   44600   -958.24402    42.830706   -915.41331    1534.0406    405.61843    2.2008949    20.758953  0.091780709 
   44700   -949.03587    41.399695   -907.63618     1482.787    6281.5914    2.2028581    19.461354   0.11586623 
   44800   -950.53519    37.641379   -912.89381    1348.1777    7720.0847    2.2099327    19.542484   0.10230293 
   44900   -953.79625    37.765051    -916.0312    1352.6072   -9048.8354    2.1723069    21.441295   0.10579259 
   45000    -953.1268    37.766852   -915.35994    1352.6717   -14041.875    2.1607616    21.551805   0.10958483 
   45100   -948.76703    39.754682   -909.01235    1423.8685     5612.615    2.1968946    20.893742   0.10828401 
   45200   -956.81103    46.440894   -910.37014    1663.3444    12643.136    2.2291628    21.087658   0.10534377 
   45300   -955.43408    40.238528   -915.19555    1441.1981    1634.0668    2.2024723    21.079804   0.10514254 
   45400   -951.88245     36.05403   -915.82842    1291.3246   -6499.4653    2.1772675    19.222334   0.11569314 
   45500   -951.76428    38.943295   -912.82099    1394.8076   -4749.8773    2.1799764    21.459945    0.1100178 
   45600   -948.29797    41.322105   -906.97587    1480.0079    3469.5545    2.1892385     21.90247   0.11363823 
   45700   -957.25684     42.50973   -914.74711    1522.5444    4784.5107    2.2127609    20.228011  0.095711133 
   45800   -953.80219    38.228579   -915.57361    1369.2091    3498.8342    2.2038259    18.170661   0.10331199 
   45900   -955.25948    40.332633   -914.92684    1444.5686   -4891.1873    2.1871164    17.863173   0.10207623 
   46000   -945.28513    39.620472   -905.66466    1419.0616   -2854.2294    2.1684746    19.754347   0.11644282 
   46100     -953.316      39.8733    -913.4427     1428.117    3750.9922    2.2074025    21.108324   0.11103127 
   46200   -954.63892     39.40663   -915.23229    1411.4026    6352.5204    2.2168117    21.804326  0.095666168 
   46300   -955.55723    39.244455   -916.31278    1405.5941    -706.2553    2.1987049    20.623753   0.10469711 
   46400   -946.90499    39.356694   -907.54829     1409.614   -6497.1574    2.1671305    23.646281   0.11415652 
   46500   -955.12478    42.890879    -912.2339    1536.1957   -2793.6789    2.1898547    20.483999   0.11061391 
   46600   -958.27844    42.937823   -915.34062    1537.8771    5362.1999    2.2140785    20.166025   0.10080953 
   46700   -955.01507    39.517338   -915.49773    1415.3678    7046.2527    2.2162119    21.740407   0.10563566 
   46800   -949.85562    42.704799   -907.15082     1529.531   -5485.5353    2.1707734    22.896135   0.11505254 
   46900   -950.92353    38.219612   -912.70392    1368.8879   -11985.921    2.1606753    20.253836   0.10004619 
   47000    -953.4395    37.344646   -916.09485    1337.5498   -2461.1238    2.1919047    23.000952   0.11644656 
   47100   -953.19293    39.647255   -913.54568    1420.0209    15399.561    2.2330107    18.708234   0.10730164 
   47200   -953.28741    45.337734   -907.94968    1623.8332    7348.2226     2.212109    19.914192   0.11120482 
   47300   -955.07603    40.622728    -914.4533    1454.9588   -8282.5612    2.1758594    21.031964   0.10190155 
   47400   -954.05719    37.734696    -916.3225      1351.52   -11874.631    2.1667864     19.80481   0.10559446 
   47500   -953.30328    39.288059   -914.01522    1407.1558   -343.78927    2.1920815    23.077371   0.11359395 
   47600   -950.45723    38.379275   -912.07796    1374.6065    10367.907    2.2141835     18.65203   0.10406965 
   47700   -959.46183    38.559467   -920.90236    1381.0603    3932.4923    2.2187882    19.280579  0.093688384 
   47800   -955.38662    37.294828   -918.09179    1335.7655   -5835.5512    2.1827147    20.808067  0.091804467 
   47900   -952.07162    36.785501   -915.28612    1317.5232   -6085.1092    2.1775335     24.11396   0.10807469 
   48000     -953.469    40.905729   -912.56327    1465.0949    2185.2128    2.1973962    20.991766  0.094083409 
   48100   -956.12972    35.272423    -920.8573    1263.3303    8966.1073    2.2287953    18.563256  0.099152072 
   48200   -952.52015    34.953847    -917.5663      1251.92     3127.353    2.2025487    19.350971   0.11104825 
   48300   -952.63168    38.309321   -914.32236    1372.1009   -6540.6991    2.1806385    21.633625   0.10336973 
   48400   -953.72767    38.111229   -915.61644     1365.006   -4222.0598    2.1857489    21.637754   0.10787812 
   48500   -958.96169    37.342261   -921.61943    1337.4644    4246.3001    2.2187094    18.418174    0.1003061 
   48600   -955.72988    41.561719   -914.16817      1488.59    4513.3216    2.2089183    18.620255  0.092732427 
   48700   -951.71986    36.683812   -915.03605    1313.8811    954.77945    2.1946956    21.225142   0.10753962 
   48800   -953.89517    33.585382   -920.30979    1202.9066   -4577.8405    2.1884798    22.304968  0.097143676 
   48900   -954.49905    37.815036   -916.68401    1354.3974    -2381.944    2.1915612    19.539031   0.10490719 
   49000   -956.09609    42.636604   -913.45949    1527.0885    5583.8729    2.2107102    17.242805  0.099567095 
   49100   -959.54045    43.519858   -916.02059    1558.7235    3376.2799    2.2130399    18.597061  0.091266688 
   49200   -960.31903    40.596161   -919.72287    1454.0073   -6550.9198    2.1879144    22.773729   0.10814172 
   49300   -957.03846     37.29058   -919.74788    1335.6133   -16870.309    2.1620558    21.225738   0.11046363 
   49400   -949.46514    36.049666   -913.41547    1291.1683   -1379.9884    2.1842229    22.627275    0.1284004 
   49500   -952.73126    38.612876   -914.11839    1382.9732    15540.421     2.233425    18.466597   0.12043531 
   49600   -955.80653    40.647948   -915.15859    1455.8621    8444.7424    2.2240423    18.867583   0.10547857 
   49700   -953.98994    38.924219   -915.06572    1394.1244   -6291.1959    2.1821986    21.913881   0.10850932 
   49800   -948.50535     43.38929   -905.11606     1554.047   -10060.446     2.159006    23.408208   0.12062609 
   49900   -952.70461    41.895855   -910.80875    1500.5576    2178.3285    2.1979442    18.274472    0.1008712 
   50000   -955.59137    41.189457   -914.40191     1475.257    4722.0399     2.213749    20.316023  0.097356313 
   50100   -955.30095      38.8264   -916.47455    1390.6209    1354.1236    2.2033851     19.40628   0.10686618 
   50200   -951.70174    39.303605   -912.39813    1407.7126   -2501.0104    2.1824249    21.170279   0.10590288 
   50300   -950.61022    40.448793   -910.16142    1448.7291   -5379.2185    2.1741609    21.125278   0.11199821 
   50400    -952.7566     36.77633   -915.98027    1317.1948    1769.1785    2.1937426    21.485456   0.10862048 
   50500   -957.58307    41.898909   -915.68416     1500.667    2845.3337    2.2093083    18.552397   0.10215785 
   50600   -951.62881     43.64601    -907.9828    1563.2418    2639.2591    2.1945026    20.693565   0.10525972 
   50700   -952.36551     38.61568   -913.74983    1383.0736    474.39577     2.190234    19.859909   0.10340007 
   50800   -952.17344    35.663771   -916.50967    1277.3469   -6816.8247    2.1739768    21.541918    0.0988031 
   50900   -952.93374    39.477674   -913.45607    1413.9471   -4327.8522    2.1819651    18.315933  0.088016352 
   51000   -952.25121    45.541735   -906.70948    1631.1398    5670.4991    2.2062411    20.155928   0.10066814 
   51100   -955.64823    40.523381   -915.12485    1451.4005    14399.795    2.2352008    18.853577  0.097916522 
   51200   -955.70892    39.840349   -915.86857    1426.9368   -7219.8451    2.1850947    22.225798   0.10894105 
   51300   -954.05257    39.733594   -914.31897    1423.1133   -17312.775     2.153293    19.745918   0.12179356 
   51400   -955.29907     37.80927    -917.4898    1354.1909   -4529.0874    2.1896681    20.202791     0.100774 
   51500   -960.00664     39.38468   -920.62196    1410.6164    8551.2783    2.2290604    18.401969   0.10371079 
   51600    -957.6526    42.656585   -914.99601    1527.8042    4929.3634    2.2127845     20.05068   0.11068088 
   51700   -956.10154    41.328365   -914.77317    1480.2321   -3168.8508    2.1897244    18.792064   0.10105548 
   51800   -957.16557    36.688352   -920.47721    1314.0437   -8001.8786     2.185724    19.741935  0.096691261 
   51900   -958.56107    39.286026   -919.27505     1407.083   -4586.4392    2.1955201    20.851661   0.10290928 
   52000   -956.58115    42.452509   -914.12864    1520.4949    5349.7149    2.2095891    19.237709  0.095439181 
   52100   -954.94268    39.209286    -915.7334    1404.3344    4197.9627    2.2080397    20.135221  0.094921515 
   52200   -958.32347    36.106459   -922.21701    1293.2024   -3043.4588    2.1985155    23.062668  0.087201021 
   52300   -952.64534    36.970913   -915.67443     1324.164   -5628.9222    2.1768825    19.106563  0.096756576 
   52400   -955.61114    41.009922   -914.60122    1468.8267    108.01328    2.1993218    17.381498   0.10912536 
   52500   -955.24299    39.441243   -915.80175    1412.6423    8146.2699     2.219474    20.260616   0.11383694 
   52600   -957.01538    35.070932   -921.94445    1256.1136    4041.8755    2.2136729    19.764561   0.10697507 
   52700   -953.82515    36.962274   -916.86288    1323.8546   -5541.6431    2.1818966    20.866221  0.097372913 
   52800   -952.89726    37.947855   -914.94941    1359.1545   -3030.5554    2.1844439    16.646978   0.10491469 
   52900   -953.40397    38.120591   -915.28338    1365.3413    3855.5226    2.2041727    18.558304   0.10613772 
   53000   -954.84524    36.601083   -918.24416    1310.9181     8487.595    2.2203704    19.853861   0.11155507 
   53100   -957.66047    33.843497   -923.81697    1212.1513    4741.5236    2.2168466    19.805246  0.096156899 
   53200   -952.02916    36.148838   -915.88033    1294.7203   -8376.9795    2.1702343    19.521077  0.095315042 
   53300   -954.78014    39.474554   -915.30559    1413.8354   -12488.966    2.1649581     21.31077   0.10777509 
   53400    -954.3814    40.443092   -913.93831    1448.5249     6022.606     2.210536    18.851581  0.097126445 
   53500   -957.27367    36.410391   -920.86328    1304.0882    17649.721    2.2486617    20.089365   0.11499155 
   53600     -958.336    38.144801    -920.1912    1366.2084    991.51626     2.206021    18.427664  0.099977316 
   53700   -951.85569    35.631063   -916.22462    1276.1754   -6850.7814    2.1739725    19.626133   0.10672042 
   53800   -952.75984    38.635248   -914.12459    1383.7745   -4841.1497    2.1829778    20.236455   0.11881153 
   53900   -955.64914    37.268902   -918.38023    1334.8369    4220.0789    2.2094169    20.704481   0.10855957 
   54000   -956.88299    36.520351   -920.36264    1308.0265    5941.7803    2.2168657    19.250085   0.10601238 
   54100   -950.10058     35.51187   -914.58871    1271.9064    4252.7519    2.2016282    20.526248   0.10758729 
   54200   -951.92506    36.886294   -915.03877    1321.1333   -1609.4769    2.1905748    18.078939    0.1179714 
   54300   -957.59115     35.57733   -922.01382    1274.2509   -2124.6134    2.2017452    19.260422    0.1056832 
   54400   -955.04813    39.064567   -915.98356    1399.1511    57.469617     2.200126    21.254151   0.10858453 
   54500   -955.82141    41.944927   -913.87648    1502.3152    4857.3439    2.2128461    20.277472   0.10033822 
   54600   -958.43162    40.531741   -917.89988       1451.7    1414.8894     2.209039    20.885912  0.090548045 
   54700   -957.66371    36.462544   -921.20117    1305.9561   -7110.9975    2.1890562    18.647563  0.099441493 
   54800    -951.3987    38.893951   -912.50475    1393.0403   -12846.259    2.1615416    20.371208   0.12215806 
   54900   -957.71173    42.902719   -914.80901    1536.6198    2790.0313     2.206345    19.319343   0.10573063 
   55000   -958.48357    42.977685   -915.50588    1539.3048    15229.003    2.2413413     19.55842   0.10024381 
   55100   -953.71262    41.896989   -911.81563    1500.5982    4240.9175    2.2081811    17.959852   0.11372439 
   55200   -950.15619    39.617116   -910.53908    1418.9414   -8257.8648    2.1629612    20.511814   0.12081616 
   55300   -954.32308    37.670864   -916.65221    1349.2337   -6354.3516    2.1808968    20.810159   0.11930303 
   55400   -955.05707    39.827274   -915.22979    1426.4685    1952.5659    2.2031195    22.366647   0.11161282 
   55500   -950.79682    42.711048   -908.08577    1529.7548    4364.9558    2.1988408    19.701996   0.10270611 
   55600   -957.79156    41.978537   -915.81302     1503.519    845.25637    2.2048911    18.964644  0.093976884 
   55700   -957.08133    40.884319   -916.19702     1464.328   -5892.7548    2.1884833     18.32381   0.10571604 
   55800   -950.17347    38.352717   -911.82075    1373.6552   -5135.9145    2.1785568    21.997547   0.12684111 
   55900   -953.74315    39.892783   -913.85036    1428.8148   -102.82961    2.1957636    16.786285   0.10426593 
   56000   -953.65099    35.724126   -917.92686    1279.5086    7700.1342    2.2167825    19.339268   0.10885893 
   56100   -955.06805    40.630556   -914.43749    1455.2392    4581.4398    2.2107408    18.878052   0.10749365 
   56200   -952.46407    38.463487   -914.00059    1377.6226   -1196.1208    2.1888472    21.763491   0.12592025 
   56300   -956.88638    34.807496   -922.07888    1246.6783   -5682.0084    2.1931767     21.27564   0.12848274 
   56400   -952.98383    36.383489   -916.60034    1303.1246   -916.89303    2.1927744    23.250825   0.11883067 
   56500   -953.05092    39.503472   -913.54744    1414.8711    5450.2959    2.2112602    22.361933   0.11595986 
   56600   -956.57986    38.043548   -918.53631    1362.5819    8328.2132    2.2237224    19.922045  0.097909593 
   56700   -958.21713    37.954678   -920.26245    1359.3989   -3395.7763    2.1984237    18.961157   0.10032435 
   56800   -953.43307    39.099416   -914.33365    1400.3993    -12631.22    2.1647814    20.672974   0.10720419 
   56900   -956.01911    40.489583   -915.52953      1450.19   -6491.7383    2.1860144    19.863445  0.083074593 
   57000   -957.71101    37.358342   -920.35267    1338.0403    13536.006    2.2382042    19.083585  0.093778241 
   57100   -953.93594    39.944096   -913.99185    1430.6526    13847.755    2.2299592    19.026981   0.10502595 
   57200   -953.36101    39.428268   -913.93274    1412.1776   -3203.8368    2.1899262    20.896479   0.11048922 
   57300   -954.21989    37.506371   -916.71352    1343.3422   -8366.6667    2.1765952     21.17526   0.10165853 
   57400   -955.31839    38.044055   -917.27434    1362.6001   -1074.1331    2.1962122    19.449193   0.10499414 
   57500   -951.95274     42.44617   -909.50657    1520.2679   -508.60616    2.1936397    19.818223   0.11780217 
   57600   -953.92542    39.163498   -914.76192    1402.6945    2911.6103    2.2066905    19.837145    0.1240075 
   57700   -956.26611    39.622313   -916.64379    1419.1276    541.45224    2.2039744    19.986625   0.10548579 
   57800   -955.14154    45.301436    -909.8401    1622.5331   -5148.7733     2.187081     19.81269  0.089735238 
   57900   -953.03447    40.352906   -912.68156    1445.2948   -678.74374    2.1937567    18.539617   0.10112777 
   58000   -954.53084    37.933095   -916.59775    1358.6259    145.76855    2.2005049    20.861378   0.10085378 
   58100   -955.44521    41.385036   -914.06017    1482.2619    933.54519    2.2015816    20.432365  0.094886611 
   58200   -949.03433     40.97408   -908.06025    1467.5429    984.32398    2.1909109     20.19036   0.11434984 
   58300   -956.38004    39.597148   -916.78289    1418.2263    896.87151    2.2067672    20.564895  0.087191524 
   58400   -953.23499    37.494225   -915.74077    1342.9072    753.87978    2.1961876    19.583582   0.10547851 
   58500   -952.94511    40.779608   -912.16551    1460.5777   -2610.3585    2.1865248    20.457232   0.12273788 
   58600   -953.11887    44.324277   -908.79459    1587.5349   -4.4353608    2.1892708    19.978557   0.11715423 
   58700   -955.63222    38.051905   -917.58031    1362.8812    8868.1414    2.2249412    19.696303   0.10727143 
   58800   -953.14198    37.559856   -915.58213    1345.2578    4919.8629    2.2108985    20.220894   0.10469798 
   58900   -953.29712    38.598046   -914.69908     1382.442   -6768.7511    2.1774825    20.565764   0.11506263 
   59000   -953.40727    42.399339   -911.00793    1518.5906   -11151.206     2.166344    17.372954   0.10592214 
   59100    -949.0554    42.534558   -906.52084    1523.4336   -1047.6104    2.1839188    22.981964   0.11080612 
   59200   -956.53606    43.537408   -912.99865    1559.3521    7144.0491    2.2178266    20.852503  0.090435955 
   59300   -955.65322    40.299649   -915.35357    1443.3873    4648.2135    2.2118392    21.488171  0.092655561 
   59400   -953.28887    35.618572   -917.67029    1275.7281   -3605.1333    2.1862551     20.62818   0.11206872 
   59500   -951.83775    41.838754     -909.999    1498.5125   -7838.1639    2.1701119    22.674826   0.11518381 
   59600   -952.00923    40.356646   -911.65259    1445.4287    2546.9034    2.1982996    21.216615   0.10361929 
   59700   -953.34592    37.802355   -915.54356    1353.9433     8113.355     2.216094    18.369287   0.10880207 
   59800   -955.53097    38.724453   -916.80652    1386.9695   -287.30545    2.2017331    20.691169   0.10363775 
   59900   -949.27544    41.008512   -908.26693    1468.7762   -5388.0952    2.1724303    21.219174   0.12635933 
   60000   -951.94914     37.06737   -914.88177    1327.6188    532.85677    2.1943273    20.236557   0.11301005 
   60100   -954.46572    38.168593   -916.29712    1367.0606    2971.5294    2.2045754    20.756803  0.099262793 
   60200   -954.51654    42.294505   -912.22203    1514.8358    793.00545    2.1992081    22.554481  0.099156736 
   60300    -952.4775    42.047506      -910.43    1505.9892   -3802.6171    2.1843832    19.969363   0.11618947 
   60400   -955.67653    38.315386   -917.36115    1372.3182   -1368.7544    2.1978692    20.275854   0.10955966 
   60500   -954.42504    39.505352   -914.91969    1414.9384    1017.1816    2.2005036    20.731373   0.11891403 
   60600   -953.93206    42.603265   -911.32879    1525.8944    294.34337    2.1961505    23.377001   0.10840311 
   60700   -958.01615    38.999713   -919.01644    1396.8283   -1506.1929    2.2011669    22.366775   0.10699721 
   60800    -955.7684    38.135048   -917.63335    1365.8591    -4291.192    2.1897818    19.823206   0.11156633 
   60900    -955.5988    41.407154   -914.19165    1483.0541   -2530.1974    2.1912481    18.330358   0.11132415 
   61000    -954.3642    40.641293   -913.72291    1455.6237    1022.3609    2.1992324    19.408108   0.10596288 
   61100   -958.61434    37.217175   -921.39717    1332.9842    5307.3526    2.2199906    21.487751  0.090627799 
   61200   -955.57739    40.157244   -915.42015    1438.2868   -1366.5755    2.1967594    19.056882  0.097600162 
   61300   -952.03608     37.99052   -914.04556    1360.6827   -5030.5719    2.1781183    21.451576   0.10747752 
   61400   -956.40734    36.522261   -919.88508    1308.0949   -5412.3345    2.1888284    20.645204  0.095812726 
   61500   -956.99444    38.631121   -918.36332    1383.6267     5450.217    2.2153659    23.200107  0.091638661 
   61600   -954.64004    42.052468   -912.58757    1506.1669    15031.621    2.2301813    17.462618   0.10339548 
   61700   -954.59038    38.181315   -916.40907    1367.5163    464.40021    2.1943274    21.233912  0.098192923 
   61800   -956.49041    36.735571   -919.75484    1315.7349   -15459.363    2.1595421    21.211935   0.10106267 
   61900   -955.64787    37.865145   -917.78273    1356.1922   -5885.5536    2.1837776    20.216148  0.098841731 
   62000   -953.47957    40.416289   -913.06328    1447.5649    8315.6715    2.2147304    21.177946   0.10246692 
   62100   -954.10761    39.492098   -914.61551    1414.4637    6265.9599    2.2092486    18.074756  0.095076208 
   62200   -952.16502    35.075857   -917.08917      1256.29   -1370.0703    2.1921887    23.121953    0.1084673 
   62300   -954.57059    38.687923   -915.88267    1385.6611    -4932.724    2.1845042    23.105742  0.097598926 
   62400   -948.80095    38.903614   -909.89734    1393.3864    -158.1784    2.1797776    22.877369  0.093015266 
   62500   -954.80202     40.06278   -914.73924    1434.9035    2265.9594    2.1984038    19.598259  0.093080237 
   62600   -959.29657    42.699211   -916.59736    1529.3309    1828.6255    2.2061659    21.045112  0.081151687 
   62700   -949.32958    38.875651   -910.45393    1392.3848    3496.9713    2.1894016    20.189479   0.10450122 
   62800     -952.816    41.068343   -911.74765    1470.9191   -3876.7726     2.181605    21.676894   0.10301114 
   62900   -957.48867    40.688419   -916.80025    1457.3116   -6092.9016     2.184299    20.474518   0.10282775 
   63000   -952.23402    37.676613   -914.55741    1349.4396    4132.7004    2.1995615     17.66524   0.09691597 
   63100   -949.67737     42.41321   -907.26416    1519.0874    7782.9204    2.2018251    22.312571   0.10020921 
   63200   -954.90704    39.428462   -915.47858    1412.1845    4300.0375    2.2074773    19.141205   0.10794937 
   63300   -953.34125    37.142676   -916.19858    1330.3159   -7644.2752    2.1768341    22.377236  0.096776706 
   63400   -949.29995    37.374424   -911.92552    1338.6163   -8846.6846    2.1640047    21.150513   0.10746906 
   63500    -948.2693    39.052491   -909.21681    1398.7186    3039.8539    2.1929877    22.955161   0.10222817 
   63600    -957.5247    40.298057   -917.22664    1443.3303    13000.435    2.2340929    18.422378  0.085850033 
   63700   -954.88917    39.752839   -915.13633    1423.8025    5334.0806    2.2086093    21.193765   0.10372063 
   63800   -951.19234    36.665556   -914.52678    1313.2272   -6519.9395    2.1740317    20.777373   0.10255418 
   63900   -957.92687    35.908048   -922.01882    1286.0961   -7745.0879    2.1850057    19.114919  0.094992867 
   64000   -957.19011    38.742317    -918.4478    1387.6093   -710.08294    2.2008837    19.973527   0.10122861 
   64100    -952.5025    38.337992   -914.16451    1373.1278    6941.2133    2.2098076    18.717005   0.12067169 
   64200   -954.35305    38.570986   -915.78207    1381.4728    2303.9341    2.2027599    23.593429  0.090377834 
   64300   -957.57425    34.877274   -922.69698    1249.1775   -3127.5133    2.1991582    23.995486  0.093103371 
   64400   -954.17939    38.993849   -915.18554    1396.6183   -5707.7575    2.1793238    22.669427   0.10854493 
   64500   -953.30782    38.748869   -914.55895    1387.8439    341.47079    2.1965997    20.985092  0.093403647 
   64600   -955.13682    36.326172   -918.81065    1301.0718    5308.4697    2.2147829    19.661707   0.10526064 
   64700   -956.02689    35.187816   -920.83908       1260.3    6085.9087    2.2153843     20.08173  0.090114529 
   64800    -952.5216    39.005712   -913.51588    1397.0431   -3691.3551    2.1840293    19.868851   0.10077527 
   64900   -954.46772    38.794141   -915.67358    1389.4654   -7126.4344    2.1829121    20.412144   0.10548782 
   65000   -954.75979    37.399351   -917.36044    1339.5091    1253.7122    2.2017834    18.938265  0.096535877 
   65100   -956.17611    34.963548   -921.21256    1252.2675    6980.1816    2.2199908    20.852174  0.098176721 
   65200   -959.37181    35.015268   -924.35654    1254.1199    4501.7037    2.2208559    20.022109  0.091440039 
   65300   -954.65764    36.131921   -918.52572    1294.1144   -2078.8648    2.1956438    20.568102  0.099196206 
   65400   -953.36436    37.578206   -915.78615    1345.9151   -5262.3829    2.1832976    21.937684  0.098258692 
   65500   -955.12373    41.494702   -913.62903    1486.1897    -2357.546     2.190674    17.370964    0.1018331 
   65600   -957.24097    36.598815   -920.64216    1310.8368    8615.9441    2.2266831    22.749455  0.091634061 
   65700   -956.54138    37.800115   -918.74127     1353.863    5790.4287    2.2167319    20.640668  0.094646548 
   65800   -954.93126    40.188823   -914.74244    1439.4179   -13193.302    2.1682188    19.982085   0.09406237 
   65900   -951.80815    36.995278   -914.81287    1325.0367   -14317.923    2.1564469     20.80564   0.11146928 
   66000   -959.14941     37.13814   -922.01127    1330.1535    2790.2626    2.2129799    20.456775   0.09331309 
   66100   -953.81301    37.941511    -915.8715    1358.9273    14560.233    2.2321442    18.254294   0.10056317 
   66200   -951.14267    37.121714   -914.02096    1329.5652    8193.6766    2.2100181    20.569982   0.10384399 
   66300   -953.48607    36.115837   -917.37024    1293.5383   -5955.2795    2.1789172    22.004009   0.10313107 
   66400    -958.5679    36.316933   -922.25097    1300.7408   -9806.2432    2.1818045    20.271204  0.098992812 
   66500   -954.63415    39.882916   -914.75123    1428.4614   -893.82555    2.1958357     19.44404  0.098558008 
   66600    -956.1293    41.784494   -914.34481     1496.569    7474.8188    2.2229171    20.270799    0.1004738 
   66700   -955.05173    38.601723   -916.45001    1382.5737    5124.6291    2.2119324    24.351334   0.10262646 
   66800   -952.47957    39.637494   -912.84208    1419.6713   -4874.4185    2.1788897    19.645807   0.10258554 
   66900   -949.58671    39.455309    -910.1314    1413.1461   -7753.1013    2.1660585     20.72058   0.10896126 
   67000    -954.4103    38.750646   -915.65965    1387.9076    -679.3712    2.1935845    21.080105  0.094430985 
   67100   -955.90751    40.198906    -915.7086     1439.779    5612.1443    2.2141594    20.651763   0.10484769 
   67200   -949.57359    41.394116   -908.17948    1482.5871    5323.8247    2.1971837    22.672139   0.11432889 
   67300    -953.7482    39.493112   -914.25509       1414.5   -1275.7023    2.1896333    20.798717   0.10551977 
   67400   -955.71419    39.015113   -916.69908    1397.3798   -6874.5381    2.1794924    20.214401  0.099249421 
   67500   -950.14903    37.284313   -912.86472    1335.3889    694.92682    2.1868274    21.061353   0.10048484 
   67600    -947.3393    39.655743   -907.68355    1420.3249    7940.5985    2.1988708    20.508239   0.11249172 
   67700   -956.18954    39.871497   -916.31805    1428.0524    6918.3324    2.2188082    19.957695    0.1048664 
   67800    -955.7467    40.232189   -915.51451    1440.9711   -2086.0602    2.1929086    21.466292  0.098074209 
   67900   -951.66837    38.666242   -913.00213    1384.8846   -9363.6078    2.1646554    18.241337     0.101139 
   68000   -954.06088    41.216221   -912.84466    1476.2156   -7004.0033    2.1755295    20.599051   0.10354337 
   68100   -959.76514    40.168353   -919.59678    1438.6847    16442.537    2.2468644    19.490404  0.094055881 
   68200   -954.25198    39.389352   -914.86263    1410.7837    19416.602    2.2448252     20.25617   0.10845272 
   68300   -951.99957      37.5117   -914.48787     1343.533   -5056.0452    2.1793607    22.929036   0.11791159 
   68400   -951.44084    39.940957   -911.49989    1430.5402   -10292.229    2.1605434    20.388651   0.11257644 
   68500    -956.9161     36.43025   -920.48585    1304.7994    1108.8192    2.2059977    21.159369    0.1021369 
   68600   -955.79329     39.54385   -916.24944    1416.3173    5076.0105    2.2130493    18.160175  0.090784412 
   68700   -952.78152    39.339344   -913.44218    1408.9926    3955.9231    2.2007511    19.861484   0.10736962 
   68800   -955.73159    37.968614   -917.76297    1359.8981   -4270.4139    2.1878312    19.316274  0.092902986 
   68900   -955.75295    35.837469   -919.91548    1283.5682   -5399.5496    2.1874698    19.297362  0.092114288 
   69000   -951.89967    37.681346   -914.21833    1349.6091    2607.8997    2.1966626    21.590426   0.10272091 
   69100   -955.29206    40.838851   -914.45321    1462.6995    4720.5815    2.2113387    18.963283   0.09193974 
   69200   -958.80292    36.981391   -921.82153    1324.5393    2007.0753    2.2109126    19.277893  0.095022558 
   69300   -952.21213      37.1448   -915.06733     1330.392   -5824.6963    2.1762027    17.655671   0.10295651 
   69400   -954.37315    39.928562   -914.44459    1430.0963   -6108.2486    2.1791723    21.980379  0.099289787 
   69500   -954.26951    36.732078   -917.53744    1315.6098    5735.9891    2.2112666    18.535258   0.10443404 
   69600   -958.26883     36.68419   -921.58464    1313.8947    10445.304    2.2308872    19.481546   0.10353793 
   69700   -955.88689    42.855435   -913.03146    1534.9263   -4917.4845    2.1858415    19.947459   0.10894277 
   69800   -954.45949     39.26605   -915.19344    1406.3675   -9845.4117    2.1709667    20.490039  0.098406345 
   69900   -955.08975     38.11207   -916.97768    1365.0361   -2532.8243    2.1916145    23.228177   0.10205796 
   70000   -958.01775    34.883515   -923.13424     1249.401    7618.4296    2.2258848    19.752056  0.092399575 
   70100   -954.54265    34.632886   -919.90977    1240.4244    8657.0221    2.2213561    20.619847   0.10211713 
   70200   -955.23942    38.933054   -916.30637    1394.4408   -979.96781    2.1971697    19.739158  0.093767382 
   70300    -952.7606    37.580019   -915.18058      1345.98   -5082.9869    2.1827859    20.275602  0.092036122 
[...]
  186800   -954.75062    42.117123    -912.6335    1508.4826    -4874.973    2.1850497    19.162248   0.10735289 
  186900   -954.31802    38.797704   -915.52031     1389.593     928.4499    2.1988798    21.204881  0.097127342 
  187000   -954.82879    35.780492    -919.0483    1281.5274    6060.1739    2.2155239    18.321771  0.095048022 
  187100   -953.82388    42.765132   -911.05875    1531.6919   -268.46359    2.1931581    18.765198    0.1062407 
  187200    -953.0483    37.537685   -915.51061    1344.4637   -4551.8771    2.1859217    18.919735   0.10795242 
  187300   -956.82781     38.45418   -918.37363    1377.2893   -5812.5843    2.1874048     20.05731   0.10700852 
  187400   -951.76784     40.99188   -910.77596    1468.1805    3741.3732    2.2016506    21.433591   0.11058612 
  187500   -954.91096    40.065407   -914.84555    1434.9976    12569.053    2.2292145    19.779376   0.10224334 
  187600   -959.12885    41.058454    -918.0704    1470.5649    835.84255    2.2090871    18.462457   0.09217276 
  187700   -951.63922    39.684077   -911.95514    1421.3397   -11285.264    2.1650453     22.43902   0.10658182 
  187800   -956.04273    41.478022   -914.56471    1485.5923   -10490.545    2.1737578    22.699855  0.085388877 
  187900   -956.49953    38.384455   -918.11508     1374.792    3474.2222      2.21195    19.931669  0.093744142 
  188000   -954.38034    42.685806   -911.69453    1528.8508    9770.0535    2.2181998    21.493739  0.095101522 
  188100   -956.20617    40.662477   -915.54369    1456.3825    1543.4948     2.203956    21.251691   0.10298007 
  188200   -958.94511    39.467701   -919.47741    1413.5899   -7131.6939    2.1880255    18.791411   0.10746651 
  188300    -948.9191     36.09801   -912.82109    1292.8998   -1780.3039    2.1779508    20.325807   0.10301315 
  188400    -953.9222    38.518754   -915.40344    1379.6021    2361.9174    2.2014253    19.531987   0.10400098 
  188500   -956.26617    37.154361   -919.11181    1330.7345    7379.4208    2.2197153    19.045884   0.10256846 
  188600   -952.80021    40.829911    -911.9703    1462.3793    1369.6745    2.1977779    20.246583    0.1093132 
  188700   -956.73071    40.615993   -916.11472    1454.7176    -5151.504    2.1890611    20.681142   0.10663599 
  188800   -956.82285    38.008078   -918.81477    1361.3115    -2558.542    2.1952582    22.872076  0.086463747 
  188900   -952.43851    41.122711    -911.3158    1472.8664   -1139.2279    2.1920048    19.325161   0.10149273 
  189000   -954.71518    38.767769   -915.94741    1388.5209    3473.5472    2.2078797    18.554726  0.093452057 
  189100   -955.91575    37.733909   -918.18184    1351.4918    1847.3306    2.2053659    18.203844  0.092291888 
  189200   -949.76597    38.986848   -910.77912    1396.3675   -2542.1246    2.1821067    22.330502   0.10596915 
  189300   -956.92448    40.369973   -916.55451     1445.906   -2803.3945    2.1945694    19.880458  0.091144911 
  189400   -956.97116    39.759775   -917.21139    1424.0509    1407.9249    2.2044234     20.43903   0.10155956 
  189500   -950.99442    40.596225   -910.39819    1454.0095    2573.7538    2.1954359    19.961112   0.11899292 
  189600   -953.37605    36.456685   -916.91936    1305.7463    1165.1251     2.200746    20.710163    0.1111982 
  189700   -954.70799    37.524537   -917.18346    1343.9928   -6607.6558    2.1801409    23.071862   0.10291245 
  189800    -952.8803    41.142821   -911.73748    1473.5866   -6827.2174    2.1732477     20.88863  0.098356958 
  189900    -957.9292    39.412019   -918.51718    1411.5956     8300.726    2.2233366    18.530789  0.093903312 
  190000   -955.78424    38.786022   -916.99822    1389.1746    11492.487    2.2274321    20.324653  0.099925094 
  190100   -949.80575    37.163187   -912.64257    1331.0506    1351.0141    2.1907517    19.249556  0.094257262 
  190200   -951.91208    34.780798   -917.13129     1245.722   -9410.2002    2.1688913    21.143778  0.095573942 
  190300   -953.61091    34.879896   -918.73101    1249.2714   -4522.0099    2.1845984    20.570345  0.094944078 
  190400   -951.79305    39.598974   -912.19408    1418.2916     7079.337     2.207596    20.926305   0.09701922 
  190500    -956.9528    41.125009   -915.82779    1472.9487    6613.6812    2.2203953     20.15948   0.10695148 
  190600   -957.54982    37.550907   -919.99892    1344.9373   -150.41668    2.2027144    20.240269   0.10028085 
  190700   -951.63223    39.936435   -911.69579    1430.3783   -10153.517    2.1662383    19.866006    0.1180145 
  190800   -952.58885    37.019773   -915.56908     1325.914   -4028.6501     2.185655    21.767041    0.1020024 
  190900   -956.80373    39.088889   -917.71484    1400.0222    4923.3206    2.2170266     20.57292  0.095576979 
  191000   -952.16994    42.468088   -909.70185    1521.0529    5614.7656    2.2035973    21.045019  0.096652579 
  191100   -953.72544    38.811143    -914.9143    1390.0744    -418.8119     2.194773    21.439914   0.08968793 
  191200   -956.53064    38.628553   -917.90209    1383.5347    -7882.218    2.1822614    21.072663   0.09467786 
  191300    -956.0889      44.9997    -911.0892    1611.7261   -7313.3762    2.1789023    23.723255   0.08702898 
  191400   -953.89116    38.389052   -915.50211    1374.9566    5882.3289     2.209669    21.456567  0.092640598 
  191500   -954.99175    37.673933   -917.31781    1349.3437    5116.4952    2.2147027    19.726266  0.098140394 
  191600   -952.41391    39.847142   -912.56676    1427.1801   -630.24133    2.1890224    18.745218  0.095711115 
  191700   -951.85856    37.418797   -914.43976    1340.2056   -5742.8456    2.1783689    20.629965   0.10775247 
  191800   -954.98538    35.976724   -919.00866    1288.5558   -1532.0586    2.1982018    21.578556   0.10510971 
  191900   -953.30656    40.316853   -912.98971    1444.0035    6137.8059    2.2131856    20.249835      0.10962 
  192000   -953.85829    38.902445   -914.95585    1393.3445    7623.3385    2.2139258    20.776287  0.098725382 
  192100   -956.18492    35.736728    -920.4482      1279.96   -2591.9251    2.1984939    19.744592  0.088726848 
  192200   -954.18038    40.780682   -913.39969    1460.6161    -19020.98    2.1502867    21.608712  0.095943855 
  192300   -954.81781    40.315317   -914.50249    1443.9484   -6285.1626    2.1820667    21.104068  0.094397984 
  192400   -953.33831    36.409303   -916.92901    1304.0492    21960.245     2.253615    20.510391   0.10551217 
  192500    -952.2114    41.322572   -910.88883    1480.0247    14276.434    2.2299296    17.961419   0.10188186 
  192600   -952.89072    40.179248   -912.71147    1439.0749   -5516.1675    2.1813274     22.56534   0.10086493 
  192700   -953.51073    35.584504   -917.92622    1274.5079   -9731.5602    2.1724484    18.684948  0.098295465 
  192800   -953.37109     39.62443   -913.74666    1419.2034   -2200.5654    2.1871698    20.400038   0.10496693 
  192900   -953.64188     43.21181   -910.43006    1547.6903    7465.0596    2.2110719    19.777357   0.11397148 
  193000   -955.74924    38.814203   -916.93504     1390.184    8267.7283    2.2197041    19.718353   0.10493333 
  193100   -951.37877     36.54972   -914.82905    1309.0784    123.45968    2.1932196    22.405154   0.10856924 
  193200   -950.53425    39.836523   -910.69772    1426.7998   -10232.511    2.1665419    20.359042   0.10999048 
  193300   -959.26438    40.103608   -919.16077    1436.3658   -3071.1466    2.2001403    21.994158  0.093176182 
  193400   -954.02485    38.764641   -915.26021    1388.4089    7601.0603    2.2158219    21.003694   0.10107099 
  193500   -955.09136    43.238892   -911.85246    1548.6603    4870.7791    2.2088474    17.033236  0.096968794 
  193600   -957.81723    38.220879   -919.59635    1368.9333   -2832.1891    2.1995294    17.177442  0.096772005 
  193700   -955.34448    38.528063   -916.81642    1379.9355   -10065.026    2.1770286    20.635249   0.09766974 
  193800   -952.92338    39.864432   -913.05895    1427.7994   -2853.6654    2.1857917     20.59804   0.10000415 
  193900   -956.49725     37.80292   -918.69433    1353.9635    6680.0874     2.221867    19.940406  0.094672127 
  194000   -958.23593    40.164449   -918.07148    1438.5449    6842.2685    2.2217392    18.122733   0.10371988 
  194100   -955.24008    42.206883    -913.0332    1511.6975   -2108.0572    2.1898561    20.118687   0.10174952 
  194200   -952.13257    34.779496   -917.35307    1245.6754   -5649.1982    2.1787475    23.656257   0.10524891 
  194300   -954.72688    35.727053   -918.99983    1279.6135   -2962.9821    2.1948585    17.858959   0.10785167 
  194400    -949.8066    38.093023   -911.71358    1364.3539    3471.2254    2.1989415    20.188435   0.10863502 
  194500   -950.22871    34.616926   -915.61179    1239.8527    6337.8687    2.2059297    19.106428   0.11507957 
  194600   -957.95685    39.473873   -918.48298     1413.811   -470.55867     2.202759    18.964158   0.10482789 
  194700    -951.5051    41.467757   -910.03734    1485.2247   -1730.6305    2.1829545    19.103896   0.11071342 
  194800   -956.13141     41.14556   -914.98585    1473.6847   -1025.3919    2.1974993    19.140817  0.097001158 
  194900    -955.9924    38.746656   -917.24575    1387.7647     1515.751    2.2034329    20.589183  0.091518616 
  195000   -951.15302    41.005141   -910.14788    1468.6554   -186.18655    2.1900952     21.30052   0.10708724 
  195100   -953.88092    39.215515    -914.6654    1404.5575   -535.84199     2.195915    21.689928   0.10895889 
  195200   -955.32023    37.894527    -917.4257    1357.2445   -1560.7843    2.1971963    19.544781   0.12836983 
  195300   -951.85107    39.833454   -912.01762    1426.6899    221.35217    2.1899395    21.864708   0.11261965 
  195400    -951.0695    37.571514   -913.49799    1345.6754    2375.2764    2.1962101    21.473245   0.11619979 
  195500   -955.36375    37.276932   -918.08682    1335.1245    1402.1752    2.2033405    21.515997  0.099183841 
  195600   -951.66588    38.145583   -913.52029    1366.2364    1548.2149    2.1958387    19.386475   0.11313426 
  195700   -952.45274     38.55925   -913.89349    1381.0525   -3128.1349    2.1906922    18.279974   0.11741868 
  195800   -956.25602    36.107811   -920.14821    1293.2509    1203.1742    2.2059022    20.239286   0.10074451 
  195900    -950.3967    36.382996   -914.01371     1303.107    4405.6357    2.2033402    20.799497    0.1147578 
  196000   -954.92047    40.467863    -914.4526    1449.4121    580.04647    2.1975526    20.148507  0.099010279 
  196100   -958.98681    37.724554   -921.26226    1351.1567   -1577.1293    2.2009221    21.470596   0.10299648 
  196200   -954.22011    39.897408    -914.3227    1428.9805   -2426.6808    2.1881612     19.83624  0.096738397 
  196300   -953.13067    38.916162    -914.2145    1393.8358    2395.3275    2.2005206    19.862983   0.11005163 
  196400   -958.47807     39.06545   -919.41262    1399.1827    3767.5869     2.213644    21.164168   0.10955994 
  196500   -951.07286     37.93942   -913.13344    1358.8524    214.07404    2.1922413    20.021568   0.12126255 
  196600   -954.40242    41.145989   -913.25643    1473.7001   -5606.0843    2.1826522    23.054109   0.11151069 
  196700   -955.76053    38.054388   -917.70614    1362.9702   -2389.7841    2.1926697    18.395083  0.095327995 
  196800   -954.54139    39.660941   -914.88044    1420.5111    4265.0864    2.2048847    22.132516   0.10087128 
  196900   -950.61835    39.931506   -910.68684    1430.2017     6501.172    2.2033666    18.743302  0.099237011 
  197000   -954.97222    38.236633   -916.73559    1369.4975   -2615.6642    2.1930044    20.551723    0.1098545 
  197100   -956.21386    40.710231   -915.50363    1458.0928   -9364.3118    2.1763221    18.434234  0.099299211 
  197200   -948.99533    39.899034   -909.09629    1429.0387    -2332.466    2.1776763    21.189446   0.10691152 
  197300    -957.6186    40.662231   -916.95637    1456.3736    9772.8388    2.2277259    21.034368   0.09474467 
  197400   -953.52112    37.855483   -915.66564    1355.8461    9287.8973    2.2215144    17.820686   0.10210392 
  197500   -950.27548    38.703768   -911.57171    1386.2286   -4123.6784    2.1774563    21.036747   0.12114625 
  197600    -952.7267    35.829733   -916.89697    1283.2911   -11864.713    2.1675097    20.049603   0.10801607 
  197700   -955.31733    37.476024   -917.84131    1342.2553   -2036.7523    2.1958744    20.886454     0.105583 
  197800   -953.29308    40.495448   -912.79763    1450.4001    8468.8528    2.2162947    18.449749  0.099132419 
  197900   -955.27116    38.440736   -916.83042    1376.8078    3504.8867    2.2101302    19.440571   0.10712545 
  198000   -958.57447    38.450132   -920.12434    1377.1443   -3177.8901    2.1988957    20.143477   0.09234409 
  198100   -953.15179    39.353909   -913.79788    1409.5143   -3056.3378    2.1849749    19.344427  0.097003127 
  198200   -954.60292    39.048822   -915.55409    1398.5872   -130.38716    2.1983879     21.26891   0.11230269 
  198300   -957.58717    36.911943   -920.67522     1322.052    4679.3665    2.2182209    20.629621  0.093726616 
  198400    -954.5219    41.981178   -912.54072    1503.6135      31.0663     2.196457    22.831552   0.10461197 
  198500   -953.54192    38.652064   -914.88986    1384.3768   -2213.0051    2.1967344    20.833895  0.091958677 
  198600    -955.8198    36.970685   -918.84911    1324.1559   -1104.7302    2.1998131    19.102908  0.097051821 
  198700   -953.00945    41.696209   -911.31324     1493.407   -1238.8564    2.1906978    20.646849   0.11449878 
  198800    -952.3567    38.889618   -913.46708    1392.8851    5170.2546     2.207175     17.88475   0.10110188 
  198900   -958.23169    40.670009   -917.56168    1456.6522    41.312713    2.2087621    18.961925   0.10538685 
  199000   -952.56058    40.658959   -911.90162    1456.2565   -4023.4899    2.1823399    17.935752  0.099572743 
  199100   -952.09314    39.870745    -912.2224    1428.0255   -6433.4042    2.1778568    19.438956  0.093743633 
  199200   -953.67303    36.293445   -917.37958    1299.8996    1955.4025     2.204373    20.235814  0.095003567 
  199300   -953.31024     40.32622   -912.98402    1444.3389    11024.454     2.222748    20.121689   0.10015371 
  199400   -954.98974    43.704533   -911.28521    1565.3379    1213.5875    2.2014781    20.171194   0.10370761 
  199500   -955.99982    37.548931   -918.45089    1344.8665   -7456.8624    2.1837118    18.966328   0.10172959 
  199600   -952.44967    37.144106   -915.30557    1330.3672   -7790.6594     2.176488    19.461378  0.096422668 
  199700   -952.00795    40.448772   -911.55918    1448.7283    2576.1091     2.197973    18.324095   0.10360181 
  199800    -957.7273    38.033113   -919.69418    1362.2082     12418.91    2.2342664    17.774879  0.097192537 
  199900   -952.26983    36.146421   -916.12341    1294.6337     3998.184    2.2029764    17.339012   0.10174654 
  200000   -953.11191    39.400147   -913.71176    1411.1704   -7563.7176    2.1748835    21.022361  0.098704724 
  200100   -956.73139    37.474808   -919.25658    1342.2117   -5432.5133    2.1863608    18.687608  0.091058175 
  200200   -955.10503    37.132918   -917.97211    1329.9665    3051.2008    2.2068431    19.367189  0.094248944 
  200300   -951.92847      39.1617   -912.76677    1402.6301    5327.7841    2.2055634    18.789641  0.096923635 
  200400   -955.21174    37.670701   -917.54104    1349.2279    746.49155    2.2005736    18.101202  0.094458314 
  200500      -955.22    36.115142   -919.10485    1293.5134   -2143.1764    2.1946661    22.112761  0.095968964 
  200600   -948.83116    36.940131   -911.89103    1323.0615   -3582.4396     2.178978    22.965556  0.096723562 
  200700   -952.51921    36.223575   -916.29563    1297.3971    2285.9933    2.1994647    18.739158   0.10204684 
  200800   -958.44376    40.691316   -917.75245    1457.4154    1704.8357    2.2100062    17.796157  0.095377865 
  200900   -949.52676    39.757203   -909.76956    1423.9588    1981.6101    2.1874904    19.826782  0.095518473 
  201000   -952.88583    36.875684   -916.01015    1320.7533   -2437.1642    2.1901146    19.306346   0.10027839 
  201100   -955.38793    38.517281   -916.87065    1379.5493   -1419.2506    2.1942565    20.838122  0.088254959 
  201200   -952.07065    42.305285   -909.76536    1515.2219   -903.42345     2.187316    21.068242   0.10677638 
  201300   -955.36818    38.992502   -916.37568      1396.57    1430.8034    2.2035586    18.958903  0.094523754 
  201400    -956.4738    39.421883   -917.05191    1411.9489   -1036.7745    2.1992981    21.684035   0.09222076 
  201500   -950.77029    39.560358   -911.20993    1416.9086   -1411.9766    2.1846189    19.013965  0.094783776 
  201600   -955.20545    38.938586   -916.26686    1394.6389   -3543.5076      2.19146    19.695754  0.092012959 
  201700   -953.59008    35.801683    -917.7884    1282.2864    782.83215     2.199273    19.629755   0.09617305 
  201800   -953.98871     41.26956   -912.71915     1478.126     1753.342     2.200424    18.490173  0.089794047 
  201900    -954.0279    37.926813   -916.10108    1358.4009    3500.7767    2.2046318    19.895712   0.10352457 
  202000   -957.19252    37.765985   -919.42653    1352.6406   -7018.9883    2.1887588    20.938158  0.095885065 
  202100    -952.3224     38.31061   -914.01179    1372.1471   -6966.4837    2.1766266    20.026066   0.10001478 
  202200    -952.5737    38.107951   -914.46575    1364.8886    5292.6887    2.2044561    20.062296  0.094552417 
  202300   -958.81079    38.561967   -920.24883    1381.1498     11613.78    2.2339523    19.556293  0.097674239 
  202400   -953.77825    41.078117   -912.70014    1471.2692    1778.2715    2.1984462    20.093826    0.1051734 
  202500   -954.62884    39.932417   -914.69643    1430.2343   -8840.8629    2.1759123    21.756908  0.098947668 
  202600   -954.40017    34.796548   -919.60362    1246.2861    -6239.613    2.1854851    16.656568     0.097903 
  202700   -954.87339    40.438977   -914.43441    1448.3775    2152.4797    2.2032216    20.466501  0.092517508 
  202800    -953.1415    40.806736   -912.33477    1461.5493    11153.124    2.2176829    17.279819   0.10463421 
  202900   -953.43407    36.038601   -917.39547     1290.772    3089.2296     2.205247    20.859606   0.10269753 
  203000   -952.87579    39.229557   -913.64623    1405.0605   -7406.6404    2.1731939    19.572903  0.096268073 
  203100   -953.33795    42.222214   -911.11574    1512.2466   -7873.5019    2.1717354    19.965422   0.10380038 
  203200   -956.18875    39.080964   -917.10779    1399.7384    3372.9626    2.2071056    19.513337  0.095849647 
Loop time of 144.656 on 1 procs for 200000 steps with 217 atoms

Performance: 358.368 ns/day, 0.067 hours/ns, 1382.593 timesteps/s
100.0% CPU use with 1 MPI tasks x no OpenMP threads

MPI task timing breakdown:
Section |  min time  |  avg time  |  max time  |%varavg| %total
---------------------------------------------------------------
Pair    | 141.23     | 141.23     | 141.23     |   0.0 | 97.63
Neigh   | 0.36726    | 0.36726    | 0.36726    |   0.0 |  0.25
Comm    | 0.8545     | 0.8545     | 0.8545     |   0.0 |  0.59
Output  | 0.069113   | 0.069113   | 0.069113   |   0.0 |  0.05
Modify  | 1.8422     | 1.8422     | 1.8422     |   0.0 |  1.27
Other   |            | 0.2944     |            |       |  0.20

Nlocal:    217 ave 217 max 217 min
Histogram: 1 0 0 0 0 0 0 0 0 0
Nghost:    957 ave 957 max 957 min
Histogram: 1 0 0 0 0 0 0 0 0 0
Neighs:    4228 ave 4228 max 4228 min
Histogram: 1 0 0 0 0 0 0 0 0 0
FullNghs:  8456 ave 8456 max 8456 min
Histogram: 1 0 0 0 0 0 0 0 0 0

Total # of neighbors = 8456
Ave neighs/atom = 38.9677
Neighbor list builds = 618
Dangerous builds = 4
Total wall time: 0:02:26
