LAMMPS (3 Mar 2020)
Reading data file ...
  orthogonal box = (0 0 0) to (16.36 16.36 16.36)
  1 by 1 by 1 MPI processor grid
  reading atoms ...
  256 atoms
  read_data CPU = 0.00103828 secs
Reading potential file /usr/share/lammps-stable/potentials/Ag_u3.eam with DATE: 2007-06-11
Neighbor list info ...
  update every 1 steps, delay 10 steps, check yes
  max neighbors/atom: 2000, page size: 100000
  master list distance cutoff = 7.55
  ghost atom cutoff = 7.55
  binsize = 3.775, bins = 5 5 5
  2 neighbor lists, perpetual/occasional/extra = 1 1 0
  (1) pair eam, perpetual
      attributes: half, newton on
      pair build: half/bin/atomonly/newton
      stencil: half/bin/3d/newton
      bin: standard
  (2) compute rdf, occasional, copy from (1)
      attributes: half, newton on
      pair build: copy
      stencil: none
      bin: none
Setting up Verlet run ...
  Unit style    : metal
  Current step  : 0
  Time step     : 0.001
Per MPI rank memory allocation (min/avg/max) = 3.744 | 3.744 | 3.744 Mbytes
Step PotEng KinEng TotEng Temp Press Density c_msdall[4] 
       0       -729.6    36.257471   -693.34253         1100    8844.3078    10.472245            0 
     100   -707.87724    22.412489   -685.46475    679.96298    36693.254    10.472245  0.063144016 
     200   -700.10735    33.300865   -666.80649    1010.3008     51147.28    10.472245  0.080073591 
     300   -689.72935    38.565207   -651.16414    1170.0134     65250.68    10.472245   0.10572288 
     400   -688.78096    37.855133   -650.92582    1148.4708    67463.049    10.472245  0.099907127 
     500   -697.34051    35.089481   -662.25103    1064.5649    54819.453    10.472245  0.073540678 
     600   -696.44429    34.460638   -661.98366    1045.4866    56271.269    10.472245  0.072341457 
     700   -693.77692    39.860178   -653.91675     1209.301    61467.934    10.472245  0.081955562 
     800   -693.18486    35.633689   -657.55117    1081.0753    60830.905    10.472245  0.098784296 
     900   -693.77715    37.978632   -655.79852    1152.2176    60230.215    10.472245   0.10095906 
    1000   -692.50908    39.079599   -653.42948    1185.6193    63701.471    10.472245  0.092900409 
    1100   -696.49695    37.408513   -659.08844     1134.921    56950.362    10.472245  0.074451201 
    1200   -694.85554    34.613927   -660.24161    1050.1372    58564.779    10.472245  0.083348227 
    1300   -691.79999     36.08063   -655.71936    1094.6349    63338.013    10.472245  0.092421029 
    1400   -693.33154    36.501797   -656.82975    1107.4125    61130.096    10.472245  0.090954635 
    1500   -697.23671    36.657373   -660.57934    1112.1325    55843.008    10.472245  0.073751442 
    1600    -696.0843    36.984294       -659.1    1122.0508    57429.047    10.472245  0.074161723 
    1700   -692.26103    38.921357   -653.33967    1180.8185    63368.447    10.472245  0.090217881 
    1800   -693.59412    34.788816    -658.8053    1055.4431    60862.989    10.472245    0.0937192 
    1900   -697.75708    36.886542   -660.87054    1119.0851    55048.019    10.472245  0.075473733 
    2000    -693.5866    35.605807   -657.98079    1080.2295    61293.595    10.472245  0.080194525 
    2100   -691.76416    36.286808   -655.47735    1100.8901    63773.916    10.472245  0.086523367 
    2200   -693.31367    33.412679   -659.90099    1013.6931    60143.773    10.472245  0.094060727 
    2300   -692.14368    34.565355   -657.57833    1048.6636    62526.626    10.472245  0.094789004 
    2400   -692.83186    35.676666    -657.1552    1082.3792    61580.712    10.472245  0.086349241 
    2500   -694.65845    33.881205   -660.77725    1027.9075    58900.009    10.472245  0.080519918 
    2600   -694.68941    37.077029   -657.61238    1124.8642    59447.127    10.472245  0.080869364 
    2700   -691.11631      38.7924   -652.32391    1176.9061    64450.127    10.472245  0.098573771 
    2800    -690.3371    34.105542   -656.23156    1034.7135    64347.673    10.472245  0.099426738 
    2900   -694.93524    35.053176   -659.88206    1063.4634    59258.131    10.472245  0.081956308 
    3000   -692.64309    35.853422   -656.78967    1087.7417    62511.897    10.472245  0.087636355 
    3100    -691.3463    36.793517   -654.55279    1116.2629    64626.193    10.472245  0.097314974 
    3200   -692.50734    36.600155   -655.90718    1110.3966    62586.277    10.472245  0.094094447 
    3300    -696.1603    33.873941   -662.28635    1027.6871    56443.796    10.472245  0.088550542 
    3400   -694.51866    35.780248   -658.73841    1085.5218    59498.883    10.472245  0.083571061 
    3500   -693.56258    39.409672    -654.1529    1195.6333    62133.835    10.472245  0.081436465 
    3600    -692.4302    34.803285   -657.62691    1055.8821    62179.305    10.472245  0.090154904 
    3700     -691.341    34.729001     -656.612    1053.6284    63738.041    10.472245  0.098969987 
    3800   -691.72597    40.244663   -651.48131    1220.9657    65388.861    10.472245  0.096259266 
    3900   -692.61449    36.648127   -655.96636    1111.8519     62785.43    10.472245   0.08915883 
    4000   -694.60795    34.541396   -660.06655    1047.9367    59410.215    10.472245  0.077417052 
    4100   -695.49274    36.433088   -659.05966     1105.328    58735.241    10.472245  0.070723032 
    4200   -692.56424    37.011418   -655.55282    1122.8737     62765.61    10.472245  0.084419086 
    4300   -691.71329    34.682822   -657.03047    1052.2274    63629.375    10.472245   0.09175781 
    4400   -695.38674    36.041129   -659.34561    1093.4365    58639.569    10.472245    0.0786213 
    4500   -692.86916    33.797423   -659.07173    1025.3656    61360.307    10.472245  0.081188493 
    4600   -692.40186    36.782603   -655.61926    1115.9318    63169.348    10.472245  0.094264202 
    4700   -689.95328    36.162444   -653.79084     1097.117    66406.191    10.472245   0.10267566 
    4800   -694.89343    34.478987   -660.41444    1046.0433    58217.313    10.472245  0.089768481 
    4900    -694.4549    36.274668   -658.18023    1100.5217    59801.337    10.472245  0.080473052 
    5000    -691.5324    32.072625   -659.45977    973.03774     63445.51    10.472245  0.086994603 
    5100   -693.65429    33.778353   -659.87593    1024.7871    60977.599    10.472245  0.082962878 
    5200   -690.81008    34.823411   -655.98667    1056.4927      64453.9    10.472245  0.094734585 
    5300   -689.84404    38.035689   -651.80835    1153.9486    66228.012    10.472245  0.088695292 
    5400   -693.98653    35.726345   -658.26018    1083.8864    60880.882    10.472245  0.080970035 
    5500   -693.37687    35.645033   -657.73183    1081.4195      60938.9    10.472245  0.086240441 
    5600   -691.87242    37.462744   -654.40968    1136.5663    63672.029    10.472245  0.090590649 
    5700   -693.62433     34.85252   -658.77181    1057.3758     60269.24    10.472245  0.094241725 
    5800   -693.26359    36.049056   -657.21454     1093.677    61113.614    10.472245  0.092173713 
    5900   -691.17985    36.603592   -654.57626    1110.5008    64738.753    10.472245  0.092351915 
    6000   -691.55878    36.819611   -654.73917    1117.0545    64132.942    10.472245  0.086843728 
    6100   -695.49459    35.597037   -659.89755    1079.9634    58111.998    10.472245  0.079583536 
    6200   -693.72301    39.385895   -654.33711    1194.9119    61853.392    10.472245  0.075968545 
    6300   -692.27116    35.778516   -656.49265    1085.4692    63404.456    10.472245  0.078807079 
    6400   -695.45059    35.943417   -659.50717    1090.4721    58527.748    10.472245  0.067200018 
    6500    -694.7611    30.476875   -664.28422    924.62495    58260.364    10.472245  0.079236531 
    6600   -693.29071    36.004997   -657.28571    1092.3403    61843.634    10.472245  0.086191806 
    6700   -690.65235    34.051662   -656.60068    1033.0789    64210.162    10.472245  0.094210378 
    6800   -691.95982    36.237791   -655.72203     1099.403    63363.275    10.472245  0.085535998 
    6900   -697.10044    37.125107   -659.97533    1126.3229    56389.369    10.472245   0.08339337 
    7000   -693.47992    37.913368   -655.56655    1150.2376     61517.83    10.472245  0.095828249 
    7100   -692.47353    36.667439   -655.80609    1112.4379    62420.498    10.472245   0.10516149 
    7200   -694.42298    37.389626   -657.03335     1134.348    59258.586    10.472245   0.10167429 
    7300   -691.82127    37.818946   -654.00233     1147.373    63234.611    10.472245  0.089049361 
    7400   -695.49485    36.303361   -659.19149    1101.3923     57661.43    10.472245  0.080214065 
    7500   -695.99439    37.952328   -658.04206    1151.4195    58387.423    10.472245  0.079455779 
    7600   -692.37751    40.223296   -652.15422    1220.3175    62832.569    10.472245  0.080495324 
    7700    -694.0158    35.916765   -658.09903    1089.6635    60007.806    10.472245  0.084004056 
    7800   -694.29139    37.130438   -657.16096    1126.4846    59713.807    10.472245  0.085074826 
    7900   -694.20294    39.525903   -654.67704    1199.1596    61198.451    10.472245  0.083545011 
    8000   -694.82256    34.948465    -659.8741    1060.2866    58509.452    10.472245  0.083073064 
    8100   -697.42831    37.634467   -659.79384    1141.7761    55267.654    10.472245  0.077526751 
    8200   -693.57305    36.338632   -657.23442    1102.4623    60584.044    10.472245  0.089605998 
    8300   -692.90255    35.689415   -657.21314     1082.766    61149.521    10.472245  0.094100566 
    8400    -691.6456    39.754956   -651.89064    1206.1087    63904.262    10.472245   0.08850857 
    8500   -693.60655    36.781556   -656.82499       1115.9    60658.608    10.472245  0.084935942 
    8600   -693.00241    35.195067   -657.80734    1067.7682    61283.475    10.472245  0.088870098 
    8700   -690.46055    37.524573   -652.93598    1138.4421    65673.439    10.472245  0.090873127 
    8800   -694.42179     34.25442   -660.16737    1039.2303    59181.287    10.472245  0.085434538 
    8900   -695.52052    38.405924    -657.1146     1165.181    58381.869    10.472245  0.078773041 
    9000   -692.52978     36.33325   -656.19653     1102.299    61627.354    10.472245  0.085938655 
    9100   -694.04357    40.613975    -653.4296    1232.1701    61136.397    10.472245  0.075766092 
    9200   -696.85254    37.583408   -659.26914     1140.227    56404.973    10.472245  0.073413339 
    9300   -695.30819     38.55473   -656.75346    1169.6956    58860.893    10.472245  0.077646946 
    9400   -692.46363    36.902249   -655.56138    1119.5617    63038.203    10.472245  0.090377678 
    9500    -696.7045    38.185049   -658.51945      1158.48    56299.562    10.472245  0.079877622 
    9600   -696.81452    36.249959   -660.56456    1099.7721    56065.352    10.472245  0.074484976 
    9700   -693.18308    36.104332   -657.07875     1095.354    61356.397    10.472245  0.084529123 
    9800   -691.84081    36.716367   -655.12444    1113.9223    62820.599    10.472245  0.087536514 
    9900   -695.07031    35.277345   -659.79297    1070.2644    58545.494    10.472245  0.083414779 
   10000   -697.50731    34.969038   -662.53827    1060.9108    54186.157    10.472245  0.079407184 
Loop time of 4.96545 on 1 procs for 10000 steps with 256 atoms

Performance: 174.002 ns/day, 0.138 hours/ns, 2013.917 timesteps/s
100.0% CPU use with 1 MPI tasks x no OpenMP threads

MPI task timing breakdown:
Section |  min time  |  avg time  |  max time  |%varavg| %total
---------------------------------------------------------------
Pair    | 3.3333     | 3.3333     | 3.3333     |   0.0 | 67.13
Neigh   | 0          | 0          | 0          |   0.0 |  0.00
Comm    | 0.064418   | 0.064418   | 0.064418   |   0.0 |  1.30
Output  | 0.0029204  | 0.0029204  | 0.0029204  |   0.0 |  0.06
Modify  | 1.5478     | 1.5478     | 1.5478     |   0.0 | 31.17
Other   |            | 0.01698    |            |       |  0.34

Nlocal:    256 ave 256 max 256 min
Histogram: 1 0 0 0 0 0 0 0 0 0
Nghost:    1431 ave 1431 max 1431 min
Histogram: 1 0 0 0 0 0 0 0 0 0
Neighs:    11008 ave 11008 max 11008 min
Histogram: 1 0 0 0 0 0 0 0 0 0

Total # of neighbors = 11008
Ave neighs/atom = 43
Neighbor list builds = 0
Dangerous builds = 0
Total wall time: 0:00:04
