LAMMPS (3 Mar 2020)

# ---------- 1. Initialize simulation ----------
units metal
atom_style atomic
dimension 3
boundary p p p
read_data /home/modeler/RemLabs/Project/arrhenius_3/T1675.0/n3_T1675.0_timestep3.000000e-03_eqsteps3200_time600_rseed3326/20201205-093916/lammps.data
  orthogonal box = (0 0 0) to (17.469 17.469 17.469)
  1 by 1 by 1 MPI processor grid
  reading atoms ...
  217 atoms
  read_data CPU = 0.000989973 secs

pair_style meam/c
pair_coeff * * library.meam Li Si LiSi.meam Li Si
Reading potential file library.meam with DATE: 2012-06-29
Reading potential file LiSi.meam with DATE: 2020-11-07

group Li type 1
1 atoms in group Li
group Si type 2
216 atoms in group Si

velocity all create 1675.0 3326 dist gaussian

# ---------- 2. Specify equilibration ensemble  ----------
fix 1 all npt temp 1675.0 1675.0 0.15 tchain 2 iso 1.0 1.0 1.0 pchain 2
# fix 1 all nvt temp 1675.0 1675.0 0.15

# ---------- 3. Run equilibration -------------
timestep 0.003
run 3200
Neighbor list info ...
  update every 1 steps, delay 10 steps, check yes
  max neighbors/atom: 2000, page size: 100000
  master list distance cutoff = 6
  ghost atom cutoff = 6
  binsize = 3, bins = 6 6 6
  2 neighbor lists, perpetual/occasional/extra = 2 0 0
  (1) pair meam/c, perpetual
      attributes: full, newton on
      pair build: full/bin/atomonly
      stencil: full/bin/3d
      bin: standard
  (2) pair meam/c, perpetual, half/full from (1)
      attributes: half, newton on
      pair build: halffull/newton
      stencil: none
      bin: none
Per MPI rank memory allocation (min/avg/max) = 8.895 | 8.895 | 8.895 Mbytes
Step Temp E_pair E_mol TotEng Press Volume 
       0         1675   -951.04357            0   -904.27725   -114861.02    5330.9442 
    3200    1660.1265   -946.45493            0   -900.10388   -4350.1457    4663.1271 
Loop time of 2.3005 on 1 procs for 3200 steps with 217 atoms

Performance: 360.548 ns/day, 0.067 hours/ns, 1391.004 timesteps/s
100.0% CPU use with 1 MPI tasks x no OpenMP threads

MPI task timing breakdown:
Section |  min time  |  avg time  |  max time  |%varavg| %total
---------------------------------------------------------------
Pair    | 2.1914     | 2.1914     | 2.1914     |   0.0 | 95.26
Neigh   | 0.059172   | 0.059172   | 0.059172   |   0.0 |  2.57
Comm    | 0.015202   | 0.015202   | 0.015202   |   0.0 |  0.66
Output  | 2.3434e-05 | 2.3434e-05 | 2.3434e-05 |   0.0 |  0.00
Modify  | 0.029746   | 0.029746   | 0.029746   |   0.0 |  1.29
Other   |            | 0.004907   |            |       |  0.21

Nlocal:    217 ave 217 max 217 min
Histogram: 1 0 0 0 0 0 0 0 0 0
Nghost:    939 ave 939 max 939 min
Histogram: 1 0 0 0 0 0 0 0 0 0
Neighs:    4122 ave 4122 max 4122 min
Histogram: 1 0 0 0 0 0 0 0 0 0
FullNghs:  8244 ave 8244 max 8244 min
Histogram: 1 0 0 0 0 0 0 0 0 0

Total # of neighbors = 8244
Ave neighs/atom = 37.9908
Neighbor list builds = 100
Dangerous builds = 2

# ---------- 4. Describe computed properties----------
compute msdli Li msd
compute msdsi Si msd
thermo_style custom step pe ke etotal temp press density c_msdli[4] c_msdsi[4]
thermo 100

# ---------- 3. Run production -------------
timestep 0.003
run 200000
Per MPI rank memory allocation (min/avg/max) = 9.663 | 9.663 | 9.663 Mbytes
Step PotEng KinEng TotEng Temp Press Density c_msdli[4] c_msdsi[4] 
    3200   -946.45493     46.35105   -900.10388    1660.1265   -4350.1457    2.1627779            0 6.7036628e-32 
    3300   -947.68688    46.996186   -900.69069     1683.233   -10471.958    2.1520147    2.3915538   0.11601955 
    3400   -939.43926    46.968645   -892.47062    1682.2465    5036.0121    2.1733865    2.6555575   0.13430324 
    3500   -944.98581    48.124393   -896.86142    1723.6412    7520.3182    2.1917487    3.8029024   0.14714264 
    3600   -945.51442    44.685141   -900.82928    1600.4597   -4481.8129    2.1627379    1.3168154   0.14616747 
    3700   -941.77923    50.787304   -890.99193     1819.017   -6427.7214    2.1424975    3.2209402    0.1363817 
    3800   -944.61295    49.166888   -895.44606    1760.9796    8113.5286    2.1921916    2.6352893    0.1434177 
    3900   -944.16718    45.440263   -898.72691    1627.5054    3024.1324    2.1790524    5.4995887   0.13735405 
    4000   -943.95544    49.193958   -894.76148    1761.9492   -8565.6101    2.1435283    9.9740976    0.1399663 
    4100   -935.61629    46.093368   -889.52292    1650.8973    714.33661     2.150181    2.2296047   0.12270302 
    4200   -945.80684    47.101658   -898.70518    1687.0106    10053.935    2.1993297    1.5843589   0.12548474 
    4300   -942.34304    45.876704   -896.46634    1643.1371    1249.1272    2.1684337    3.8855545   0.13311266 
    4400   -938.82891    45.011125   -893.81778    1612.1353    -9298.338    2.1364755    2.7511866   0.15981722 
    4500    -947.8661    44.034142   -903.83196    1577.1433    7060.4316    2.1965823     7.252395   0.15220475 
    4600   -945.95969    48.892372   -897.06732    1751.1474    6929.3585    2.1871053    2.2045088   0.14344022 
    4700   -943.50386    47.629607   -895.87426    1705.9198   -6550.0804    2.1496602    1.7995188   0.13753669 
    4800   -946.66414    45.043284   -901.62085    1613.2871   -4658.1159    2.1623609    2.6293968    0.1304682 
    4900   -946.94955    45.969851    -900.9797    1646.4734    9486.6411    2.2012651    2.3541385   0.12910875 
    5000   -939.61922     46.05449   -893.56473    1649.5048    3926.9751    2.1743124    8.9362396   0.13658318 
    5100   -944.50654    45.570535   -898.93601    1632.1713   -10649.616    2.1467231    3.5243418    0.1424102 
    5200   -948.92386    47.944811   -900.97905    1717.2093   -2324.7947     2.172864    2.4438854   0.12645267 
    5300    -944.5544    53.986863   -890.56754    1933.6136    4829.6846    2.1809497    2.9889662    0.1306521 
    5400   -943.35667    46.962617   -896.39406    1682.0306     298.0526    2.1698354    3.1038916   0.14589718 
    5500   -946.10305    45.422326   -900.68072     1626.863   -5882.2636     2.154391      2.64029   0.14562618 
    5600   -941.29245    49.121651    -892.1708    1759.3594    3350.3987    2.1714904    4.0819943   0.14914309 
    5700   -947.24696    53.050092   -894.19686    1900.0619    4343.8719    2.1838956    3.3488241   0.14459015 
    5800   -945.48943    45.662114   -899.82732    1635.4513   -4931.0548     2.158539    3.5778239   0.11636554 
    5900   -943.08356    47.695141   -895.38842     1708.267   -7754.4314    2.1551326    3.3720317   0.14888404 
    6000    -941.8856    50.534038   -891.35156     1809.946    4997.0461    2.1768143    4.4383296   0.14837321 
    6100    -945.1728    44.075457   -901.09735     1578.623    6680.2086    2.1913109    4.6477076   0.14299872 
    6200   -944.83772     47.69176   -897.14596    1708.1459   -9001.3818    2.1493284    4.2899114   0.15859056 
    6300   -941.68215    48.026344   -893.65581    1720.1295   -2316.4246    2.1568336    2.3304891   0.15883992 
    6400   -946.08545    43.867935   -902.21752    1571.1903    11217.225    2.2070332    2.4911212   0.14140932 
    6500   -943.49089    46.733761   -896.75713    1673.8338   -1738.4739    2.1668084    6.0487494   0.15875403 
    6600   -943.92971    49.007355   -894.92236    1755.2657   -10524.591     2.140773    14.348365   0.13136895 
    6700   -949.04108     48.21293   -900.82815    1726.8123     2094.132    2.1883082    11.977019   0.13604073 
    6800   -948.61164    48.485659   -900.12598    1736.5805     6676.303    2.2000833    10.394995    0.1586462 
    6900   -943.15753     49.71849   -893.43904     1780.736    -10113.75    2.1433572    11.690984   0.15036113 
    7000   -947.46569    48.485047   -898.98065    1736.5585   -8421.3568    2.1561315    11.367057   0.15572834 
    7100   -947.24748    48.736936   -898.51054    1745.5803    7532.5843    2.1933525    7.8928155   0.15536528 
    7200   -941.80524    51.393823   -890.41142    1840.7404    2221.3361    2.1690753    11.340634   0.16735833 
    7300   -946.68818    47.787078    -898.9011    1711.5598   -4943.4204    2.1636402     11.14601   0.15496567 
    7400   -946.83511    47.793211    -899.0419    1711.7795   -4904.6465    2.1666151    11.812902   0.16076265 
    7500   -939.53859    47.990234   -891.54836    1718.8361    1632.2457    2.1652834    9.7839671   0.16663894 
    7600   -946.28908    47.399742   -898.88933    1697.6868     1709.454    2.1737399    9.7381981   0.15740016 
    7700    -947.1032    47.142278   -899.96092    1688.4654   -7464.1201     2.161049    9.4366805   0.16080333 
    7800   -937.51776    43.984332   -893.53343    1575.3593    3046.8865    2.1600426     9.940304   0.15941946 
    7900   -944.43431    44.807962   -899.62635    1604.8587    4274.0701    2.1847816    10.020233   0.15188879 
    8000   -943.75146    43.561727   -900.18973    1560.2231    840.48951    2.1705767    10.896275   0.15199361 
    8100   -944.95446    50.743738   -894.21072    1817.4567   -3984.7135    2.1569353    11.863857   0.14911578 
    8200   -946.30952    45.624131   -900.68539    1634.0909   -2511.4782    2.1772171    11.819635   0.16767728 
    8300   -946.96118    45.480878    -901.4803    1628.9601    1719.4704    2.1839132    11.126719   0.15384471 
    8400   -941.31902    47.217547   -894.10148    1691.1613   -1119.2653    2.1556086    13.578087   0.15147147 
    8500   -944.33105    46.588646   -897.74241    1668.6363   -2203.1682    2.1654982     7.100769     0.139986 
    8600   -947.63019    45.158765   -902.47143    1617.4232    5574.5294    2.1963516    12.549963    0.1436051 
    8700   -943.14664    50.693039   -892.45361    1815.6408   -3020.9498     2.153878    12.087553    0.1479535 
    8800   -942.97188    47.214427   -895.75745    1691.0496   -7560.1756    2.1498838    19.027426   0.16273316 
    8900   -947.89535    47.731457   -900.16389    1709.5677    3757.9579    2.1896436    18.346034    0.1435263 
    9000   -942.87146    46.040376   -896.83108    1648.9993    7590.2736    2.1816008    26.660759   0.14711445 
    9100    -944.5036    50.786702    -893.7169    1818.9955   -13339.194    2.1328878    27.291875   0.14044958 
    9200   -945.32627    44.370819   -900.95545    1589.2018    -3658.188     2.160427    25.593779   0.14481931 
    9300   -944.82744    47.259572   -897.56787    1692.6665    14220.964    2.2019588     27.39017   0.13772733 
    9400   -942.78947    51.472976    -891.3165    1843.5753   -402.57344    2.1587684    27.098971   0.13439592 
    9500    -944.1059    44.174764   -899.93114    1582.1799    -9349.568    2.1427205    26.919058   0.14031681 
    9600   -946.01565    46.100466   -899.91519    1651.1515    -140.2199      2.17381    23.402131   0.13738962 
    9700   -941.42381    47.514727   -893.90909    1701.8052    9788.9318    2.1861511    23.994349   0.14387638 
    9800   -943.59167    45.262479   -898.32919    1621.1379    -3193.264    2.1597029    24.366016   0.13627615 
    9900   -947.55318    44.629738   -902.92344    1598.4754   -3564.6438    2.1674665     25.86158   0.13116213 
   10000   -938.52508    43.107038   -895.41804    1543.9378    9463.6089    2.1779071    27.326144   0.13608687 
   10100   -945.38595    46.855378   -898.53057    1678.1897    1717.1983    2.1762533    27.642143   0.13921466 
   10200   -948.60039     43.71415   -904.88624    1565.6823   -2528.5855    2.1743007    28.823739   0.13037012 
   10300   -941.97088    45.639726   -896.33116    1634.6495    26.457644    2.1637626    24.911295    0.1302244 
   10400   -942.80271    45.763693   -897.03902    1639.0895    5704.1199    2.1798411     28.26947   0.13131586 
   10500   -948.77786    44.110535   -904.66733    1579.8794    -139.8356    2.1825543    24.602484   0.13676219 
   10600   -940.31779    44.447462   -895.87032    1591.9469    -3595.551    2.1530428     27.30199    0.1383499 
   10700   -940.18014    43.903105   -896.27703      1572.45    5802.5381     2.178395     24.17189   0.14464973 
   10800   -946.96088    44.569526   -902.39135    1596.3188    5472.3995    2.1883096     26.54524   0.12774678 
   10900   -945.13281    51.041905    -894.0909    1828.1359   -10308.327    2.1447359    28.086251   0.13229733 
   11000   -942.59985     46.84821   -895.75164     1677.933   -192.88078    2.1627837    29.441913   0.14036457 
   11100   -947.70325     47.75468   -899.94857    1710.3994     10273.03    2.2010402      27.9798   0.14671294 
   11200    -945.8222    47.487645   -898.33456    1700.8352   -2749.6652    2.1653147     29.61757   0.14274934 
   11300   -940.90582    47.833317    -893.0725    1713.2159   -15624.492    2.1212601    27.543755   0.13226637 
   11400   -950.10811    48.750175   -901.35794    1746.0545    3792.9487    2.1929498    26.018022   0.13895347 
   11500    -945.1763    46.642411   -898.53389     1670.562    12623.147     2.201667    27.334645   0.13750988 
   11600   -940.70896    46.185266    -894.5237    1654.1888   -7653.0529    2.1400793    26.875694   0.14886874 
   11700   -945.65837    44.144392   -901.51397     1581.092   -9229.2207    2.1544717    26.370698   0.13596312 
   11800   -946.66775    45.444565   -901.22319    1627.6595    6465.8387    2.1944791    26.932763   0.13182455 
   11900   -944.89796    50.039914   -894.85804    1792.2482    3937.4862    2.1773854    29.599517   0.12924742 
   12000   -946.82952     47.82242    -899.0071    1712.8256   -10521.761    2.1468932    26.839646   0.13309767 
   12100   -949.89088    46.185363   -903.70552    1654.1922   -1765.4277    2.1766952    28.778392    0.1357113 
   12200   -942.94772    48.736235   -894.21148    1745.5552    6387.5045    2.1790356    23.984154    0.1447752 
   12300    -945.1997    47.174744   -898.02496    1689.6283   -53.821181    2.1700386    25.189209   0.14576247 
   12400   -946.83367    43.137878   -903.69579    1545.0423    -5138.249    2.1627108    23.090476   0.14865136 
   12500   -942.14315    47.518072   -894.62508     1701.925    1904.3245    2.1680817    26.205838   0.14231297 
   12600   -944.79772    48.713784   -896.08393    1744.7511    8766.0394    2.1870784     29.44056   0.13262175 
   12700   -947.75049    45.245041   -902.50545    1620.5133   -3472.6926    2.1678847    28.993683   0.13914605 
   12800   -939.83274     45.46506   -894.36768    1628.3936   -5169.0075    2.1494568    27.363138   0.14269363 
   12900   -941.97842    48.872209   -893.10621    1750.4253    5254.1864    2.1728641    24.651055   0.15674181 
   13000   -945.94609    45.255955   -900.69014    1620.9042    6631.3759    2.1878718    22.106564   0.16868775 
   13100   -941.90614    46.588846    -895.3173    1668.6435   -2828.4232    2.1546394    24.680321   0.17558596 
   13200   -937.68839    44.337762   -893.35063    1588.0179   -2397.9157    2.1531119    24.423964   0.18270691 
   13300   -946.17308    44.998557   -901.17452    1611.6851    3689.3448    2.1838629    22.407214   0.15280738 
   13400   -941.63901    46.822316   -894.81669    1677.0055    3764.9023    2.1701874    21.737779    0.1685137 
   13500   -940.08438    45.725392   -894.35899    1637.7177   -1786.5678     2.158965    23.839936   0.16204572 
   13600    -943.7608    41.480126   -902.28067    1485.6677    5235.1971    2.1804413    23.077814   0.15192018 
   13700   -942.70297    47.690274    -895.0127    1708.0927    3738.8201    2.1737589     25.33464   0.14186748 
   13800   -943.14779    48.240559   -894.90723    1727.8019   -464.39161    2.1631622    24.953008   0.15851039 
   13900   -945.36131    42.370886   -902.99042    1517.5715    469.00258    2.1734624    27.764128   0.15083895 
   14000   -939.47338    44.820974    -894.6524    1605.3247    2336.2897    2.1629362    22.231546   0.16946253 
   14100   -941.30473    45.675998   -895.62873    1635.9486    968.84516     2.167852    28.358819   0.16922488 
   14200   -947.82453    45.414273   -902.41025    1626.5746    -1147.782    2.1787319    23.736489    0.1617688 
   14300   -943.73996    50.114027   -893.62593    1794.9027   -4075.8699    2.1579033    25.373535   0.17576438 
   14400   -943.43627    47.602165    -895.8341    1704.9369    1583.9423    2.1711941    24.521881   0.15547567 
   14500   -945.97537    45.204148   -900.77122    1619.0487    802.78789    2.1820484    30.287795   0.16742209 
   14600   -945.68207    53.111808   -892.57026    1902.2723   -6450.8793    2.1519867    31.045512   0.13435314 
   14700   -944.50236    45.942642   -898.55972    1645.4988    3559.4483    2.1803566    32.136823   0.14229795 
   14800   -944.01045    43.369894   -900.64056    1553.3523    4643.9644    2.1869687    29.669527   0.16223582 
   14900   -945.06243    51.210906   -893.85152    1834.1889   -6274.9455    2.1601845    32.098461   0.13615814 
   15000   -943.47546       46.363   -897.11246    1660.5545   -3842.5604    2.1641224    32.805544   0.16141441 
   15100   -945.81086    44.306616   -901.50425    1586.9023    5766.6063     2.190884    33.083457   0.15698137 
   15200    -942.1904    47.810962   -894.37944    1712.4153    3804.4803     2.181196    30.496117   0.15053463 
   15300    -947.7508    49.941471   -897.80933    1788.7224   -9117.8459     2.152683    44.049965   0.18448658 
   15400   -948.42664    45.988568   -902.43807    1647.1437   -3166.4705    2.1740218    41.519049   0.17997056 
   15500   -944.69773    51.894305   -892.80343    1858.6658    1225.7015    2.1772129    52.242481   0.18719116 
   15600   -943.35829    46.869307   -896.48898    1678.6886   -88.361867    2.1692081    49.669832   0.18024416 
   15700   -944.94203    42.952999   -901.98903    1538.4206   -6959.3162    2.1585479    57.956599   0.16392945 
   15800   -940.54627    47.012135   -893.53413    1683.8042    2685.0348    2.1668978    55.874315   0.19527994 
   15900   -943.13716    48.047004   -895.09015    1720.8694    11782.482    2.1916347    51.299028   0.18720845 
   16000   -947.66849    47.043655   -900.62483    1684.9331   -3637.8026    2.1620086     56.96807   0.15593637 
   16100   -940.04707    46.019416   -894.02765    1648.2486   -5387.2766    2.1441614    52.854827   0.17581148 
   16200    -944.7814    52.368553   -892.41285    1875.6516    6081.0889    2.1792701    51.341117   0.15490247 
   16300   -947.77937    47.526518   -900.25286    1702.2275    5420.2416    2.1891293    53.828898   0.15497961 
   16400   -945.13212    47.997136   -897.13499    1719.0833   -12092.052    2.1432565    51.827873   0.17090882 
   16500   -940.98146    46.864522   -894.11694    1678.5172   -5452.1261    2.1531668     51.64105   0.17572128 
   16600   -948.08916    46.565083   -901.52408    1667.7924    15600.111    2.2229801     56.69026   0.16887947 
   16700   -941.03676    44.404466   -896.63229    1590.4069    1488.9244    2.1739934    55.094986   0.15637649 
   16800   -941.20115    46.043078   -895.15807    1649.0961    -12397.84     2.132862    55.634248   0.16619378 
   16900    -942.1566    42.328394    -899.8282    1516.0496     5454.702    2.1815629    56.516458   0.16620164 
   17000   -947.53917    46.015507   -901.52366    1648.1086    8683.4431    2.1968422    55.433912   0.17010761 
   17100   -940.41402    47.543882   -892.87014    1702.8494   -4086.1946    2.1498799    56.710701   0.16968428 
   17200     -944.196    45.518882   -898.67711    1630.3213   -4783.7384    2.1594997    67.510146   0.16071321 
   17300   -945.31724    45.615822   -899.70141    1633.7933    3317.9878    2.1824543    52.662158   0.14884178 
   17400   -941.17547    51.147659   -890.02781    1831.9236   -636.97632    2.1602253    54.732192   0.16407936 
   17500   -944.68096    47.698502   -896.98245    1708.3873   -3496.5731    2.1625399    44.335772   0.16288765 
   17600   -947.20022    48.095241   -899.10498    1722.5971   -3843.8431     2.170463    54.243833   0.16884959 
   17700   -942.69391    50.795436   -891.89847    1819.3083    2638.3945    2.1713498    51.005272   0.15490544 
   17800   -944.76115     50.30478   -894.45637    1801.7348   -2921.3356     2.162353    41.269535   0.15463425 
   17900   -943.52359     43.47188   -900.05171    1557.0051   -302.19747    2.1706828    35.473524   0.14379291 
   18000    -938.3322    44.101192   -894.23101    1579.5448    4202.0326    2.1701057    37.176513   0.15646798 
   18100   -940.12533    46.675342   -893.44999    1671.7415   -1443.9731    2.1557386    63.066252   0.17711583 
   18200   -946.67413    44.001246   -902.67289    1575.9651    2005.3753    2.1813047    78.834573   0.14076119 
   18300   -942.52975    45.248956    -897.2808    1620.6535    6399.8322    2.1824164    67.614172   0.15585681 
   18400    -940.9379    46.083063   -894.85484    1650.5282   -1759.1993     2.161543    81.990471   0.14802203 
   18500   -948.21736    43.840886   -904.37647    1570.2216   -5695.1873    2.1658542    76.585678   0.13344938 
   18600   -944.59272     45.67815   -898.91457    1636.0257    3705.9909    2.1791311    78.274343   0.14532357 
   18700   -945.97191    51.589008   -894.38291    1847.7312    3848.4086    2.1818035     73.44147   0.13990403 
   18800    -950.6349    47.891346   -902.74356    1715.2943   -9108.9589    2.1637542    76.589587    0.1457994 
   18900   -944.69263     43.84448   -900.84815    1570.3503     -6071.61    2.1585297     77.36426   0.14969189 
   19000   -943.61229    49.377483   -894.23481    1768.5224    7619.2396    2.1841778     78.27891   0.14840818 
   19100   -947.33288    47.212077    -900.1208    1690.9654     2456.695    2.1843764    79.021063   0.14459077 
   19200   -946.71828     42.78651   -903.93177    1532.4576   -8290.2737    2.1568375    77.821501    0.1541915 
   19300   -938.69268    44.374963   -894.31771    1589.3503   -1693.9899    2.1573478    81.213724   0.15840934 
   19400   -947.66157    50.641663   -897.01991    1813.8007    9336.0589    2.2008106    76.421877    0.1325894 
   19500   -949.57479    47.640658   -901.93413    1706.3156   -505.52416    2.1796091    74.395662   0.13640505 
   19600   -939.81004    46.515906   -893.29413    1666.0311   -10121.112     2.133779    71.655816   0.16200503 
   19700   -947.43867    51.379271   -896.05939    1840.2192     1316.136    2.1782822    79.105315   0.14585485 
   19800   -946.84691    46.648135   -900.19877     1670.767      7141.98     2.196519    83.012208   0.15728499 
   19900   -944.73713    48.530257   -896.20687    1738.1778   -6362.7428    2.1573855    77.536044   0.14462063 
   20000   -942.99054    49.920076   -893.07047    1787.9561   -6342.0127    2.1504898    78.055813   0.14844233 
   20100   -946.88489     45.14418   -901.74071    1616.9008    6428.7807     2.191517    78.710428   0.13865958 
   20200    -942.0656    44.968401    -897.0972    1610.6051    2129.1996    2.1744674    76.665659   0.15321121 
   20300    -941.9426    47.338888   -894.60371    1695.5073   -3281.5105    2.1581319     78.44433   0.17245564 
   20400   -947.19195    43.320474   -903.87147    1551.5823    2425.1749    2.1828099    74.836766   0.13750993 
   20500   -945.49776    47.965586   -897.53218    1717.9533    2749.9407    2.1762164    80.503581   0.15082289 
   20600   -947.27917    51.432742   -895.84643    1842.1343   -3755.5631    2.1650871    78.083966   0.13044521 
   20700   -948.53087    43.849611   -904.68126    1570.5341   -315.01836    2.1778093    80.850109   0.13649953 
   20800   -946.42758      48.5928   -897.83478    1740.4179   -659.84291    2.1707792    78.833059   0.15097551 
   20900    -942.4562    46.723955   -895.73224    1673.4826    2720.0564    2.1724642    84.200745   0.14822511 
   21000   -948.50837     45.19534   -903.31303    1618.7332    -1638.111    2.1755526    79.908067   0.14047506 
   21100   -949.78744    52.365336    -897.4221    1875.5364   -7151.4851    2.1613212    80.824342   0.13501673 
   21200   -941.88311    47.046857   -894.83625    1685.0478    5187.0871    2.1766105    82.897398   0.15906685 
   21300   -941.76094    40.711556   -901.04938    1458.1403    3568.4899    2.1789963    80.212277    0.1693393 
   21400   -944.07549    46.393385   -897.68211    1661.6428   -3075.0974    2.1572708    82.259131   0.14475944 
   21500   -942.31623    49.399316   -892.91691    1769.3044    723.49365    2.1628237    76.244213   0.14954021 
   21600   -947.69357     47.99004   -899.70353    1718.8292    4139.4338    2.1904289    82.353218   0.14314684 
   21700   -943.56342    43.990482   -899.57294    1575.5795    792.79062    2.1740503    81.509491   0.13813754 
   21800   -942.47629      50.8524   -891.62389    1821.3486   -11139.134    2.1409912    81.598405   0.16246744 
   21900   -947.01698    46.370617   -900.64637    1660.8274    3360.1947    2.1882585    78.944229   0.14841002 
   22000   -943.32063    44.327505   -898.99312    1587.6505    7229.9331    2.1899506    80.477811   0.15372148 
   22100   -939.95226    46.066191   -893.88607    1649.9239   -8187.5388    2.1470573    83.308316    0.1547606 
   22200   -941.26741    43.386533   -897.88087    1553.9483   -2490.0418    2.1614844     80.60319   0.15368996 
   22300   -949.51272    48.487009   -901.02572    1736.6288    7915.1724    2.2013511    81.190313   0.13193668 
   22400   -940.92274    45.165665   -895.75708    1617.6703    5969.4225    2.1769838    76.161253   0.15259233 
   22500   -946.39829    48.788771   -897.60952    1747.4368   -15420.551      2.13921    74.671804   0.15367223 
   22600   -947.93733    42.963366   -904.97396     1538.792    794.78875    2.1827884     76.87162   0.13601897 
   22700   -946.82346    50.840999   -895.98246    1820.9402    10502.926    2.1990696    77.609002    0.1395083 
   22800   -945.64351    48.615662   -897.02785    1741.2367   -3288.3919    2.1604424    77.042731   0.12795947 
   22900   -947.36182    43.871152   -903.49067    1571.3056   -9049.9734    2.1548725    74.331084   0.14369201 
   23000   -945.94572     46.11186   -899.83386    1651.5596    4816.3508    2.1885467     78.44299   0.14228531 
   23100   -943.27507    48.893774    -894.3813    1751.1977    5082.0739     2.177881     77.98253   0.14055076 
   23200   -947.58812    46.409576   -901.17854    1662.2227   -4289.5308    2.1652703    79.864551   0.14220158 
   23300   -946.32319    47.510713   -898.81248    1701.6614   -250.77937    2.1722283    82.203952   0.13259151 
   23400   -941.89258    49.591088   -892.30149    1776.1729    20.996172    2.1658722    76.634405   0.16215248 
   23500   -946.88891    46.668091   -900.22082    1671.4818     1170.996    2.1762624    77.100521   0.13582567 
   23600   -945.22768    46.160247   -899.06744    1653.2927   -75.256144    2.1700469    71.528414   0.13575573 
   23700   -939.87937    48.220728   -891.65864    1727.0916    142.76207    2.1589333    81.670337   0.15589122 
   23800   -950.58816    49.808976   -900.77918    1783.9769   -285.06995     2.181212    66.354811   0.13971326 
   23900   -945.57401    48.256667   -897.31734    1728.3788   -2104.3146    2.1623897    65.301013   0.15358201 
   24000    -942.2464     49.16235   -893.08405    1760.8171   -4944.7974    2.1557196    73.731001   0.15621844 
   24100   -948.01154    46.070516   -901.94103    1650.0788    6570.0513    2.1907086    73.620368   0.12587325 
   24200   -946.51471    48.698191   -897.81652    1744.1926   -450.49381    2.1748271     77.44697   0.14845175 
   24300   -941.96287    47.078288   -894.88458    1686.1735   -7419.1486    2.1452744    85.498714   0.13305757 
   24400   -948.90995    44.937106   -903.97285    1609.4842    4707.6923    2.1873337     77.96176   0.14051885 
   24500   -941.73958    43.589224   -898.15035    1561.2079    10720.912    2.1967304    76.866703   0.15946204 
   24600   -944.30456    48.414809   -895.88975    1734.0429   -5620.5271    2.1530274    77.767074   0.14844831 
   24700   -949.46675    46.841273   -902.62547    1677.6845   -12269.614     2.151042    78.036461   0.13728397 
   24800   -946.33458    45.053622   -901.28096    1613.6573    8302.1886    2.1963485    79.243274   0.14778427 
   24900   -941.44421    47.875256   -893.56895     1714.718    9787.0168    2.1861961    77.775141   0.14919042 
   25000   -944.62223    44.875277   -899.74696    1607.2697   -12152.503    2.1462944    83.009373   0.12693045 
   25100   -946.62994    45.125176   -901.50476    1616.2202   -4040.2427     2.167198     75.13084   0.15356035 
   25200   -940.58097    48.952376   -891.62859    1753.2966    8093.2506     2.182076    59.595606   0.16953639 
   25300   -941.53233    45.304007   -896.22832    1622.6252    1729.7502    2.1754038    51.885729   0.16804032 
   25400   -948.18629    47.267441   -900.91884    1692.9483   -7029.1092    2.1604709    61.412833   0.15758227 
   25500   -941.79901    48.840006     -892.959    1749.2719   -84.983914    2.1638903    53.298727   0.17500952 
   25600   -944.22314    50.392777   -893.83036    1804.8865    2115.2769    2.1701999    52.241513   0.15061786 
   25700   -945.75611    45.680918    -900.0752    1636.1248   -1197.0296     2.168752      53.1873   0.15561444 
   25800   -941.39414    47.036046    -894.3581    1684.6606   -1487.1564     2.159949     49.13902   0.15937998 
   25900   -937.56669    44.727336   -892.83935     1601.971    1001.5668    2.1625623     50.24265   0.17082686 
   26000   -946.73635    46.074654   -900.66169     1650.227    3771.6529    2.1830933    51.574897   0.15925325 
   26100   -945.46165    49.771448    -895.6902    1782.6328   -71.404646    2.1684916    70.732476   0.15008688 
   26200   -940.50147    47.797102   -892.70436    1711.9189   -5548.8814    2.1504402    60.689471     0.174345 
   26300   -946.74014    44.200197   -902.53994    1583.0908    2058.2659    2.1821146     55.04286   0.16374462 
   26400   -944.65175    47.249405   -897.40234    1692.3023    5095.8802    2.1819258    55.171417   0.16127164 
   26500   -942.20925    47.885041   -894.32421    1715.0685   -3642.0309    2.1580692    51.050564   0.17330349 
   26600   -945.19535    42.733404   -902.46195    1530.5556   -4463.1315    2.1636811       54.353   0.15508548 
   26700    -948.0984    49.081639   -899.01676    1757.9263    4502.3665    2.1873088    50.073816   0.17539119 
   26800   -941.03129    48.388335   -892.64296    1733.0947    8298.8522    2.1823878    49.195533   0.19067355 
   26900   -944.86155    45.013758   -899.84779    1612.2296   -9006.0022     2.149856    56.332361   0.17977864 
   27000   -947.21311    46.694363   -900.51875    1672.4227   -5267.9521    2.1572939    58.240348   0.15066676 
   27100   -938.49426    46.357171   -892.13709    1660.3457    12491.066    2.1848521    47.815895   0.16044563 
   27200   -944.24795    46.321487   -897.92646    1659.0677    4520.2706    2.1749013    43.198992   0.13729473 
   27300    -944.2473    41.335535   -902.91176     1480.489   -8960.9346    2.1509663    58.580831   0.17500499 
   27400   -940.75508    47.218969   -893.53611    1691.2122    -623.7685     2.157776    58.509058   0.14848762 
   27500   -941.03086    45.486104   -895.54476    1629.1473    15073.476    2.1981167     54.31365   0.18694465 
   27600   -946.48888    45.236352   -901.25253    1620.2021   -2132.1923    2.1715501    51.907281   0.16771514 
   27700   -940.22728    46.814502   -893.41278    1676.7257   -6449.8351    2.1480888    48.410542   0.15640793 
   27800   -943.43286    49.611653   -893.82121    1776.9095    1717.3992     2.173617    56.995994   0.17042412 
   27900   -948.07834    48.539069   -899.53927    1738.4934      2742.93    2.1876255    52.716142   0.14627984 
   28000    -942.8869    47.373791    -895.5131    1696.7574   -4736.4846    2.1549733     57.48595   0.16344923 
   28100    -939.6625    48.147404   -891.51509    1724.4654   -4781.7824    2.1514777    63.563647   0.17352213 
   28200   -947.58004    47.211356   -900.36868    1690.9396    7039.8848    2.1967207    56.608824   0.14784402 
   28300   -945.20154     48.03832   -897.16322    1720.5584   -2195.1911    2.1729435    41.577121   0.15951673 
   28400    -941.1653    49.482096    -891.6832    1772.2692   -8393.2388    2.1469087    52.603351   0.17324864 
   28500   -950.06072    49.305126   -900.75559    1765.9308    948.82681    2.1831537    54.321258   0.16409707 
   28600   -943.35565    44.529429   -898.82622    1594.8827     868.2124    2.1770718    54.854187    0.1681272 
   28700   -940.73334    47.208258   -893.52508    1690.8286   -4137.2657    2.1609218    56.669893   0.17346945 
   28800   -949.45576    48.546105   -900.90965    1738.7454     -4661.07    2.1722412    52.324449   0.15070349 
   28900   -948.50249    48.569984    -899.9325    1739.6007   -2342.5429    2.1758152     49.13612   0.15122682 
   29000   -943.46547    50.984663   -892.48081    1826.0857    1897.8557    2.1717505    54.785078   0.17428775 
   29100   -946.03759    46.039017   -899.99857    1648.9506     -37.8845    2.1776214    50.896912   0.17207196 
   29200   -947.87091    48.063598   -899.80731    1721.4638   -7629.9371    2.1631841    57.796347   0.16113154 
   29300   -942.32025    49.924272   -892.39597    1788.1064     1510.884    2.1659708    55.683995   0.17171756 
   29400   -946.34738    46.317346   -900.03004    1658.9193    4550.4338    2.1907882    54.344643   0.16734579 
   29500   -944.45338    44.796186   -899.65719    1604.4369   -1607.7001    2.1654932    52.843264   0.15868566 
   29600   -941.05448    48.017941   -893.03654    1719.8285   -8064.3599    2.1439432    55.884623   0.17553565 
   29700   -948.71315    48.416738   -900.29641     1734.112    5122.1168    2.1919686     64.34443   0.17078846 
   29800   -945.55124    47.058314   -898.49292    1685.4582    8980.3684    2.1935575     58.68315   0.15924273 
   29900   -939.51721    46.983721   -892.53349    1682.7865   -13188.336     2.124851    61.231881   0.16681378 
   30000   -946.69746    46.447734   -900.24973    1663.5894   -8896.9202     2.156508    57.534055   0.15420083 
   30100   -945.34066    46.584822   -898.75584    1668.4994    15227.184    2.2114739    48.225902   0.14985039 
   30200   -941.64323    47.451288   -894.19194     1699.533    2892.2313    2.1676208    50.826463   0.15796509 
   30300   -943.53058    47.492909   -896.03767    1701.0238   -12824.035    2.1362348    56.090927   0.17731041 
   30400   -947.12554    45.347225   -901.77831    1624.1731    4344.2258    2.1908854    52.490196   0.15781703 
   30500   -941.13515     48.11145    -893.0237    1723.1777    9991.7356    2.1868901    59.878888   0.17915582 
   30600   -941.60699    44.808962   -896.79803    1604.8945   -3151.4819    2.1605038    54.111211   0.18130383 
   30700    -942.8231    40.685865   -902.13723    1457.2201    -2223.845    2.1679428    56.437476   0.17024643 
   30800   -941.33577     48.18198   -893.15379    1725.7038     3748.685    2.1763863    51.519803    0.1709705 
   30900   -947.11207    51.128714   -895.98336    1831.2451    1340.5473    2.1782999     56.23186   0.15200964 
   31000   -943.47201    42.054259   -901.41775    1506.2311   -4608.7716    2.1607372    64.189946   0.14412254 
   31100   -937.67325    45.226935   -892.44632    1619.8648    730.34033    2.1575707    62.369711   0.16795571 
   31200   -941.60457    47.318447   -894.28612    1694.7752    8200.5981    2.1847716    58.222315   0.16763557 
   31300   -945.05892    44.910566   -900.14836    1608.5336   -1788.7002     2.166838    52.004316   0.17070264 
   31400   -940.54215    44.815462   -895.72668    1605.1273   -4107.3162    2.1526753    55.882361   0.18832021 
   31500   -939.95691    49.018722   -890.93819    1755.6728    3693.0027    2.1673737    55.796488   0.18985161 
   31600   -944.65735    44.057736   -900.59961    1577.9883    11958.523    2.2001592    54.384663   0.17596652 
   31700   -942.05424     45.25073   -896.80351     1620.717   -8149.9284    2.1462962    52.394558   0.16429781 
   31800   -941.23843     45.56673    -895.6717     1632.035   -12159.378     2.133478    57.418035   0.14719228 
   31900   -948.31745    46.104762   -902.21269    1651.3054    15679.909    2.2229618    31.813409   0.13512437 
   32000    -951.0169     49.67326   -901.34364     1779.116    4173.3437    2.1964137    32.943557     0.111826 
   32100   -944.28121     47.88567   -896.39554     1715.091   -14957.282      2.12919    33.813128   0.13951565 
   32200   -947.59944    48.700253   -898.89919    1744.2665   -4687.1348    2.1650395    31.315876   0.14924598 
   32300   -948.94079    46.301384   -902.63941    1658.3477    9660.3492     2.208227    28.258406    0.1336965 
   32400   -944.81567    51.753269    -893.0624    1853.6144    -6164.341    2.1550318    32.894619   0.13939316 
   32500   -946.24745    47.954655    -898.2928    1717.5618   -7281.0795     2.157398    32.204072   0.14761477 
   32600    -949.3924    48.113803    -901.2786    1723.2619    293.29068    2.1852459    32.844835   0.13922301 
   32700   -941.00227    49.287152   -891.71512     1765.287    4305.8915    2.1736961    33.030005    0.1492162 
   32800   -943.36877    46.837319   -896.53145    1677.5429   -2281.6328    2.1631481    33.690221   0.11884445 
   32900   -946.00294    44.599879   -901.40306    1597.4059   -2844.5995    2.1652885    31.947843   0.13705005 
   33000   -942.64509    48.707377   -893.93771    1744.5216    5332.0558    2.1765873    29.430935    0.1243306 
   33100   -944.00385    48.773163   -895.23069    1746.8778    1841.4177     2.173921    32.426446   0.16181878 
   33200   -947.66261    45.508568   -902.15404    1629.9519    -6581.449    2.1581569    32.727236   0.13779413 
   33300   -944.07008    47.596529   -896.47356     1704.735    1612.4269    2.1666872    34.778306   0.13770903 
   33400   -944.32947    51.262657   -893.06681    1836.0425    8204.4032    2.1839463    32.708552    0.1438557 
   33500   -948.15538    45.150221   -903.00516    1617.1172   -1913.3675    2.1742572    33.405213   0.14073403 
   33600   -943.27065    44.299145   -898.97151    1586.6347   -10915.611    2.1418022    32.318506   0.15012329 
   33700   -943.77025    49.050381   -894.71987    1756.8068    5169.8885    2.1814093    30.729655   0.13276941 
   33800   -948.79327    47.035656   -901.75762    1684.6466    13409.201     2.212898    33.635027   0.12596441 
   33900   -950.83425    49.168457    -901.6658    1761.0358   -13267.238    2.1516411     32.04408   0.11700634 
   34000   -943.81539    47.817968   -895.99743    1712.6662   -11451.075    2.1396533    30.178466   0.13694606 
   34100   -944.58052    46.627434   -897.95309    1670.0256    10258.726    2.1942384    32.278449   0.12954338 
   34200   -948.40983    44.738788   -903.67104    1602.3811    4306.3659    2.1931599    30.212518   0.15298592 
   34300   -940.37751      46.9403   -893.43721    1681.2313   -8543.6405    2.1427845    31.177895   0.16130277 
   34400   -946.00242    48.597923    -897.4045    1740.6014   -287.34979    2.1722384    32.108978   0.13592683 
   34500   -945.15016    44.773082   -900.37708    1603.6094    5866.6408    2.1881893    29.150051    0.1372283 
   34600   -936.98152    45.396793   -891.58473    1625.9485    1105.5224    2.1551827    30.126518   0.15260188 
   34700   -942.64556    46.043402   -896.60216    1649.1077   -1008.1734    2.1641183    34.031294   0.14176581 
   34800   -943.62696    43.384654    -900.2423     1553.881    3489.3366    2.1778314     32.91908   0.14845001 
   34900   -941.65442    47.164758   -894.48966    1689.2706     3848.965    2.1742432    32.053685   0.13602846 
   35000   -943.94544    49.768613   -894.17682    1782.5312   -4610.9928    2.1583579    34.875773   0.15282423 
   35100   -948.89229    47.225798   -901.66649    1691.4568   -4791.1521    2.1711517    35.124333   0.14825108 
   35200   -946.21025     50.77381   -895.43644    1818.5338    4955.0182    2.1830827    43.708409   0.15717391 
   35300   -942.07749    46.854147   -895.22334    1678.1456    3195.3933    2.1745696    32.431728   0.15886405 
   35400    -946.1947    42.286834   -903.90787     1514.561   -5415.4141    2.1660453    31.587558   0.13643339 
   35500   -945.81053    47.626832    -898.1837    1705.8204   -1734.4334    2.1718755    31.354198   0.15376487 
   35600   -945.38905    51.721206   -893.66785     1852.466     9848.587    2.1945927    32.443193   0.14444013 
   35700   -945.51001    42.722164   -902.78785     1530.153   -124.24418    2.1760538    30.857702   0.13732508 
   35800    -941.4482    42.500433   -898.94776    1522.2114   -12504.247    2.1376142    27.821177   0.14348423 
   35900   -942.15747    47.742917   -894.41455    1709.9782    7457.0445    2.1869801    31.980038   0.13447048 
   36000   -948.70376     49.48882   -899.21494      1772.51    7249.3245    2.1987128    31.172183   0.13598829 
   36100   -947.64164    44.686257   -902.95538    1600.4997    -8476.058    2.1548869    30.499399   0.14976803 
   36200   -939.91083    46.924283   -892.98655    1680.6576   -4064.6151    2.1511799    34.370404   0.15739843 
   36300   -944.78946    48.045392   -896.74407    1720.8117    10827.862    2.1959964    32.877346   0.15562266 
   36400   -946.53219    45.449779   -901.08241    1627.8463    1355.6686    2.1786081    31.587937   0.13365747 
   36500   -938.46722    45.230998   -893.23622    1620.0103   -2646.1016    2.1490726     34.00639   0.15174984 
   36600   -943.53399    47.900434   -895.63356    1715.6198   -1065.1702    2.1686818    32.015345   0.13987338 
   36700   -945.27801    44.754197   -900.52382     1602.933    4904.3371    2.1893089     29.98972   0.12983458 
   36800   -945.12135    49.376076   -895.74528     1768.472   -589.56702     2.169009    30.739714   0.14152694 
   36900   -942.44801    48.815326   -893.63269    1748.3879     -6347.92    2.1520514    34.540529   0.13727136 
   37000   -949.14602    46.437645   -902.70837     1663.228     1395.334    2.1879705    31.635924   0.14584705 
   37100   -946.97265    50.169125   -896.80353    1796.8761    4324.7972    2.1847126    32.285726   0.14887663 
   37200   -945.44587    49.640656   -895.80521    1777.9483    -6818.982    2.1549596    31.536468   0.14989547 
   37300   -953.62845      48.2518   -905.37665    1728.2045   -5624.1667    2.1765906    30.856152   0.13917705 
   37400   -946.94051    48.537096   -898.40341    1738.4228    4404.2264    2.1872403    26.720754   0.14598117 
   37500   -945.34466     49.73202   -895.61264    1781.2206    885.15397    2.1731208    31.058787   0.13995594 
   37600   -946.93996    43.754465    -903.1855    1567.1263   -13038.212    2.1458314    31.018293    0.1346226 
   37700   -946.81896    46.415056    -900.4039     1662.419   -860.10537    2.1764035    31.426285   0.14677462 
   37800   -942.84614    50.406061   -892.44007    1805.3623    15668.905     2.198931    32.901071   0.16134109 
   37900   -945.40909    47.030433   -898.37865    1684.4596   -4212.8805    2.1623853    34.526508    0.1535907 
   38000   -947.71587    47.303151   -900.41272    1694.2273   -15367.623    2.1362202    41.038385   0.15699577 
   38100   -945.07577    54.237475   -890.83829    1942.5896    5498.3747    2.1773564     40.88257   0.18122054 
   38200   -944.96292    51.410256   -893.55266    1841.3289    6425.8372    2.1861812    46.360689   0.16370794 
   38300   -944.65664     45.33338   -899.32326    1623.6773   -7220.6659    2.1505023    40.261382   0.17335194 
   38400   -941.10773    46.136809   -894.97092    1652.4532   -1461.9547    2.1550366    48.274658   0.17167059 
   38500   -938.78017    51.421647   -887.35853    1841.7369    7265.2185    2.1711491    46.410158   0.17205545 
   38600   -945.20528    47.258096   -897.94719    1692.6136    2885.8787    2.1785948    46.709463   0.16598034 
   38700   -945.47827    47.347819   -898.13045    1695.8272   -8120.7272    2.1480881     41.54339   0.15757764 
   38800   -942.60875    47.402776   -895.20597    1697.7955    1709.5215    2.1639946    44.125083   0.18482286 
   38900   -945.36553    45.429405   -899.93613    1627.1165    4775.1472    2.1865616    44.373155   0.16146112 
   39000   -947.05498      44.3388   -902.71618     1588.055   -2124.7514    2.1685778    40.755861    0.1523943 
   39100   -944.84527    47.733372    -897.1119    1709.6363   -2087.8213    2.1608712    42.090941   0.15236636 
   39200   -944.58715    50.967716   -893.61944    1825.4788    6273.6239    2.1754111    34.822269   0.15548288 
   39300   -950.49532    47.889981   -902.60534    1715.2454   -517.63714    2.1745675    43.772214   0.14327724 
   39400   -944.61303     44.92748   -899.68555    1609.1394   -7387.3535    2.1511218    43.219633   0.15542326 
   39500   -943.90376    49.604087   -894.29967    1776.6385    2324.1147    2.1738878    48.272663   0.16952517 
   39600   -943.11551    43.893394   -899.22212    1572.1022    14563.832    2.2012403    45.833069   0.17149993 
   39700   -949.03798     45.50442   -903.53356    1629.8033   -10956.638    2.1505169    43.119277   0.17626185 
   39800   -943.37058    47.596634   -895.77395    1704.7388   -16111.159     2.128656    42.981823   0.17937919 
   39900   -943.52033    48.465557   -895.05478    1735.8605    13912.099    2.2025403    40.302981   0.17902969 
   40000   -948.63934    46.997748   -901.64159    1683.2889    6888.2243    2.1944909    42.473984   0.16645506 
   40100      -941.64    47.658566   -893.98144     1706.957   -9858.3778    2.1327495    46.184067   0.14924032 
   40200   -945.12972    50.357677   -894.77204    1803.6294   -3948.7824    2.1591112    43.864071   0.14930813 
   40300   -945.69899    46.186099   -899.51289    1654.2186    8465.0233    2.1911203    33.320442   0.16848881 
   40400   -943.90255    51.831123   -892.07143    1856.4029   -63.976483    2.1676956    34.520619   0.15405766 
   40500   -942.46692    46.986402   -895.48052    1682.8825    -6937.272    2.1490348    31.385198   0.14742548 
   40600   -946.13068     44.96997   -901.16071    1610.6612    296.73928    2.1748822    32.343477   0.13507491 
   40700   -945.92669    51.012956   -894.91374    1827.0991    6216.0615    2.1883326    32.743487   0.13864501 
   40800   -942.78649    47.270945   -895.51555    1693.0738   -1796.3192    2.1624818    30.152158   0.16018634 
   40900   -947.42057    44.088881   -903.33169    1579.1038   -4878.2767    2.1632741    32.018931   0.15013168 
   41000   -947.37232    50.690011   -896.68231    1815.5324    2179.6286    2.1821484    31.070926   0.14233998 
   41100   -942.45612    46.216483   -896.23964    1655.3068    4276.8714    2.1772962    33.605002   0.13312331 
   41200   -948.05322    42.795913   -905.25731    1532.7944    -3230.647    2.1726431    32.876553   0.13604266 
   41300    -945.6459    47.480936   -898.16496    1700.5949   -6401.9228    2.1588001    34.414476   0.13151775 
   41400   -945.51293    49.999977   -895.51295    1790.8178     6402.124    2.1850816    33.114767   0.14012501 
   41500   -948.26788    45.146871   -903.12101    1616.9972    4564.4869    2.1891636    32.052349   0.13039358 
   41600    -941.6236    44.449733   -897.17386    1592.0282   -12081.178    2.1334049    32.637326   0.14261896 
   41700   -944.52178     48.78165   -895.74013    1747.1818    690.49048    2.1722073     35.00175   0.15054241 
   41800   -946.64699    48.635238   -898.01175    1741.9378    14663.282    2.2120029    31.260733   0.14396824 
   41900   -948.30813    44.929277   -903.37886    1609.2038   -8108.8579     2.160519    31.403565   0.14615086 
   42000   -941.48478     48.30377   -893.18101    1730.0659   -12820.117    2.1297854    31.762523   0.15379246 
   42100   -946.86436     50.52422   -896.34014    1809.5943    8750.1709    2.1943381    32.999342   0.12842579 
   42200   -944.29801    44.176226   -900.12178    1582.2322    7330.7895    2.1883431    34.626829   0.13689224 
   42300   -942.40994    47.305757   -895.10419    1694.3207   -7556.7852    2.1496284    32.195659   0.13640557 
   42400   -939.04429    46.314898    -892.7294    1658.8317   -1360.3511    2.1564178    35.209837   0.15160042 
   42500   -948.02165    47.310717   -900.71093    1694.4983    7389.5492    2.1964576    31.870999   0.14849887 
   42600   -946.61977    49.498067    -897.1217    1772.8412    1264.7585      2.17648    30.152001   0.13813712 
   42700   -944.00443    49.872467   -894.13196    1786.2509   -8945.1056    2.1456182    33.634838    0.1647892 
   42800   -949.90775     45.90226   -904.00549    1644.0525    1474.7506    2.1884852    33.830999    0.1370735 
   42900   -943.27451    45.442204   -897.83231     1627.575    5829.3592    2.1849592    33.282857   0.14563528 
   43000   -943.69647    47.878963    -895.8175    1714.8508   -1993.0344    2.1598464    34.030878   0.13520789 
   43100   -949.44818    44.862709   -904.58547    1606.8195   -4748.6707    2.1712365    32.976752   0.11692793 
   43200   -946.65377    46.461063    -900.1927    1664.0668    2779.2039     2.183175    30.263356   0.14046238 
   43300   -943.92116    48.737064    -895.1841    1745.5849    6703.3249    2.1841806     31.45486    0.1528848 
   43400    -946.3015    44.430999   -901.87051    1591.3572   -6310.5337    2.1620438    36.677365   0.13867048 
   43500   -945.77485     43.62413   -902.15072    1562.4581   -6618.2983    2.1596423    33.437883   0.15123791 
   43600   -944.20499    50.248205   -893.95678    1799.7085    11149.142    2.1973088    34.939283   0.13521323 
   43700   -942.50984    45.094018   -897.41583    1615.1042    9055.3274    2.1883274    31.400565   0.14593732 
   43800    -946.8225    43.681028   -903.14147     1564.496   -15819.167     2.142884      31.4137   0.13661292 
   43900   -943.65567    48.273109   -895.38256    1728.9677    251.49981    2.1680015    32.573232   0.12823595 
   44000   -945.03444    51.212444   -893.82199     1834.244     11794.38     2.203597    28.358874   0.14834642 
   44100   -947.50537    46.243445   -901.26193    1656.2725   -4491.1549    2.1707454    32.742881   0.13652738 
   44200   -947.67634    51.147435    -896.5289    1831.9156    -10131.11    2.1527485    30.809043   0.15080366 
   44300   -941.93046    50.211344   -891.71912    1798.3883    3300.4249    2.1739888    35.087788   0.15387581 
   44400   -947.52317    46.874963    -900.6482    1678.8912    6659.0904    2.1980455    32.386559   0.12898943 
   44500   -947.02998    49.043544   -897.98643    1756.5619   -5222.8968    2.1639485    31.909379   0.13982941 
   44600   -942.93878    49.726126   -893.21265    1781.0095   -5980.5082    2.1497414    32.922276   0.13489233 
   44700   -947.04293    44.271978   -902.77095    1585.6617    6481.5758    2.1951352    31.781962   0.14269531 
   44800   -942.96729     44.89694   -898.07035    1608.0456    2319.2751    2.1780264    30.630423   0.15793229 
   44900   -941.86024    46.518876   -895.34136    1666.1374   -6444.3835    2.1487948    33.713622   0.12753293 
   45000   -950.76499    46.487288   -904.27771    1665.0061     -1592.24    2.1814317    32.090677   0.13518401 
   45100   -946.78552    47.494918    -899.2906    1701.0957    3370.1986    2.1877695    33.730804   0.12753719 
   45200   -939.66341    44.172651   -895.49076    1582.1042    198.08955    2.1631135    30.857104   0.16147934 
   45300   -948.86281    46.098665   -902.76414     1651.087   -8382.8272    2.1600644    34.609935   0.14022064 
   45400   -947.02255    46.258415   -900.76414    1656.8087    3888.7851    2.1859575    31.028922   0.13878173 
   45500   -942.65338     49.21089   -893.44249    1762.5556    10698.384    2.1908888    32.854849   0.14109432 
   45600   -945.61542    45.639832   -899.97559    1634.6533   -11895.772    2.1414355    33.449158   0.14175138 
   45700   -944.59431    44.494392   -900.09992    1593.6278   -10133.973    2.1489643    31.273094   0.14951084 
   45800   -939.96628    49.432526   -890.53375    1770.4938    15620.024    2.2067975    30.446318   0.16255435 
   45900   -939.95904    43.740474   -896.21857    1566.6251    6276.3419    2.1826429    32.310562   0.15585052 
   46000   -946.13437    44.721673    -901.4127    1601.7681   -13226.678    2.1492839    32.252689    0.1396456 
   46100    -945.2402    50.270811   -894.96939    1800.5181   -1313.5727    2.1711424    30.366668   0.14710696 
   46200   -942.41734    49.477373   -892.93997    1772.1001     6177.409    2.1833573    30.417845    0.1459397 
   46300   -945.53774     44.82194    -900.7158    1605.3593   -1083.5596    2.1751344     31.62387   0.15441806 
   46400   -943.61015    46.314546   -897.29561    1658.8191    -2691.135    2.1626843    30.371887   0.13241529 
   46500   -941.78735    50.607098   -891.18025    1812.5627    1609.2468    2.1667231    28.912716   0.14517026 
   46600   -947.51745     46.05916   -901.45829    1649.6721    6646.4202     2.191799    29.958904   0.14829069 
   46700   -944.61485    45.569538   -899.04531    1632.1356    -3842.112    2.1624555    30.938469   0.13657658 
   46800   -944.05321    49.727989   -894.32522    1781.0762   -5414.4986    2.1504177    20.524132   0.17260589 
   46900   -950.40875    48.155658   -902.25309     1724.761    4219.7684    2.1958763    17.723205   0.17497244 
   47000   -947.26825    46.068812   -901.19943    1650.0178    5093.1368    2.1875995    19.727205   0.14574052 
   47100   -940.21644    44.223929   -895.99251    1583.9408   -5446.0638    2.1470624    16.067508   0.18150281 
   47200   -946.57091    50.553352   -896.01756    1810.6377   -8635.0485    2.1525468    21.780686   0.17792426 
   47300   -947.92174    44.243681   -903.67806    1584.6482    16190.189    2.2202293    6.9052216   0.15597669 
   47400    -941.2516    46.046416   -895.20519    1649.2156    4569.0094    2.1773149     12.72293   0.18030942 
   47500   -939.81777    44.866576   -894.95119     1606.958   -16698.133    2.1226117    8.4570148   0.18797401 
   47600   -945.43853    47.807477   -897.63106    1712.2904    936.85363    2.1729861    15.324067   0.16233796 
   47700   -947.61523    45.740116   -901.87511    1638.2451    14589.325    2.2162529    12.097089   0.17981273 
   47800   -942.12618    49.698885    -892.4273    1780.0338    -6269.782    2.1518415    13.481263   0.18173048 
   47900   -945.40686      48.4315   -896.97536    1734.6407    -7237.701    2.1560912    11.420849   0.18538079 
   48000   -943.46191    43.501343   -899.96057    1558.0604    7076.0496    2.1871889    10.576931   0.17741601 
   48100   -941.17102    49.674259   -891.49676    1779.1518    2959.4499    2.1726574    11.890651   0.18312237 
   48200   -942.14771    46.661869   -895.48584    1671.2589   -4401.6931    2.1591003    11.591558   0.18285691 
   48300   -942.03028     41.34711   -900.68317    1480.9035   -2688.8219    2.1636572    10.656942   0.17522316 
   48400   -941.12316    47.968185   -893.15498    1718.0464    3948.9458    2.1763193    11.216545   0.18239293 
   48500   -943.91204    49.266235   -894.64581    1764.5379    2982.0997    2.1787858     13.03363      0.18036 
   48600   -944.17136    43.282879   -900.88848    1550.2358   -5927.1991    2.1600403    11.936413    0.1764351 
   48700   -944.90636    49.650816   -895.25554    1778.3122   -5505.3274    2.1616915    7.7117507   0.16723214 
   48800   -940.32288    47.995039   -892.32784    1719.0082    7039.8379    2.1812249    10.172898   0.15305253 
   48900     -943.087    41.466999      -901.62    1485.1975    5609.7495    2.1851345    8.7292981    0.1522688 
   49000   -941.61271    44.376587   -897.23613    1589.4084   -10171.838    2.1441723    12.133204   0.17093058 
   49100   -943.68953    50.404068   -893.28546    1805.2909   -2826.4715    2.1613784    10.161426   0.16711286 
   49200   -946.87416    46.169131   -900.70503    1653.6108     18355.94    2.2194574    10.250173   0.14563927 
   49300   -941.89588    45.051365   -896.84452    1613.5765   -2865.7196    2.1597678    9.8277049    0.1770382 
   49400   -942.13474    47.419771   -894.71497    1698.4042    -15208.21     2.132428    10.901971   0.17729357 
   49500   -949.20633    48.185143   -901.02118    1725.8171    3407.3661    2.1933572    11.472897   0.17956381 
   49600   -943.46499    43.177767   -900.28722     1546.471    10796.147    2.1989526     9.619226    0.1782711 
   49700   -941.89759    47.769414   -894.12818    1710.9272   -6599.9155    2.1477442    13.208918   0.17339289 
   49800    -944.6047    45.204383   -899.40031     1619.057   -4160.8259     2.164126    11.778617   0.15815009 
   49900   -949.50226     48.74709   -900.75517     1745.944    3992.0157    2.1940738    8.5251832    0.1358564 
   50000   -939.89114     47.76403   -892.12711    1710.7344    1638.7518    2.1652274    10.308239   0.15247183 
   50100   -946.33299     47.51082   -898.82217    1701.6653   -3613.0439    2.1618172    8.4548379   0.14997529 
   50200   -947.27958    47.085622   -900.19396    1686.4362    924.05228    2.1760927     11.14635    0.1727336 
   50300   -939.86328    48.630472   -891.23281    1741.7671    2758.5479    2.1680834    9.5356429   0.19439123 
   50400    -940.7477    42.164141   -898.58356    1510.1666    633.34011    2.1701061    15.549043   0.18735694 
   50500   -947.48751    48.120138   -899.36738    1723.4888   -6317.0536    2.1585246    13.255927   0.15601629 
   50600   -942.75218    51.172766   -891.57942    1832.8229    462.76223    2.1670652    13.261005   0.15465809 
   50700   -943.48866    43.841081   -899.64758    1570.2285    7942.3018    2.1914412    12.896656   0.14985794 
   50800    -944.7099    44.581142   -900.12875    1596.7348   -4571.9609     2.162682    14.203161   0.14893377 
   50900   -944.49294    51.277585   -893.21535    1836.5771   -10736.434    2.1442007    14.569901   0.13385753 
   51000   -947.06888    45.093815   -901.97507    1615.0969    11008.776    2.2050383    15.158344   0.14602016 
   51100   -947.47396    47.199328   -900.27464    1690.5088    2899.6645    2.1837249    14.953165   0.14056933 
   51200   -944.20152     48.46523   -895.73629    1735.8488   -11112.835    2.1388186    11.429829   0.15484955 
   51300   -944.43222    45.635428    -898.7968    1634.4955   -484.21462    2.1689466    12.740923    0.1468611 
   51400   -949.74141    47.552946   -902.18846    1703.1741     15254.58    2.2212193    13.053985   0.14042614 
   51500   -943.02627    48.038751   -894.98752    1720.5739   -3961.6363     2.157665    12.268437   0.15832013 
   51600   -941.44453    43.621927    -897.8226    1562.3792   -9020.0432    2.1391042    13.876102   0.16134487 
   51700    -946.3635    44.785655   -901.57785    1604.0597     6837.785    2.1935128     12.75256   0.14377522 
   51800   -940.54903    48.040119   -892.50891    1720.6229    5598.5254    2.1767928    12.478641   0.14426688 
   51900   -941.47961    45.868312    -895.6113    1642.8366   -1333.1471    2.1559119    12.289515   0.13533264 
   52000   -947.53717    46.254298   -901.28287    1656.6612   -3856.9538    2.1675481    15.081691   0.12159079 
   52100   -940.67181     44.27655   -896.39526    1585.8254    5194.0612    2.1789292    14.415263   0.17147534 
   52200   -943.16004    50.079631   -893.08041    1793.6708   -1915.4007    2.1625363    12.895348   0.14805824 
   52300   -948.31042    47.041131   -901.26929    1684.8427   -5607.9308    2.1656131    13.477546   0.15660075 
   52400   -945.31897    47.957517   -897.36145    1717.6643   -787.23716    2.1683824    11.917811   0.14529291 
   52500   -939.89894    48.042793   -891.85614    1720.7186    1611.0331    2.1633091    14.400562   0.13155641 
   52600   -944.21677    42.401021   -901.81574    1518.6508    3977.2045    2.1779767    14.894753   0.14074246 
   52700   -944.69217    46.160574    -898.5316    1653.3044   -4145.3823    2.1618112    14.834735   0.12868075 
   52800   -942.54452    48.462785   -894.08174    1735.7612   -77.229171    2.1636631    14.858034   0.13714475 
   52900   -947.73423     43.92342   -903.81081    1573.1776    7148.6187    2.1972861    13.361517   0.15379949 
   53000   -944.52067    45.061678     -899.459    1613.9459   -2877.6683    2.1611136    16.493326    0.1394163 
   53100   -946.02991    49.802428   -896.22748    1783.7423   -7317.6272    2.1519308    14.208564   0.15372866 
   53200   -947.48342     45.55077   -901.93265    1631.4634     10362.38     2.203579    14.384199   0.15330477 
   53300   -946.48155    43.510914   -902.97064    1558.4031    4870.3467    2.1918678    14.854309   0.12455216 
   53400   -943.01018    46.426738   -896.58344    1662.8374   -12129.047    2.1402647    14.134847   0.14495662 
   53500   -949.45138    51.323935   -898.12745    1838.2372   -4737.2269    2.1675217    16.378244    0.1135558 
   53600   -948.15554    45.171504   -902.98403    1617.8795    14505.476    2.2180044    14.424741    0.1318978 
   53700   -938.40743    45.183043   -893.22439    1618.2927   -1171.0321    2.1590045    15.305034   0.16310379 
   53800    -943.2955    46.115955   -897.17954    1651.7063   -7401.0031    2.1505402    16.330548   0.14223196 
   53900   -948.04147      47.2392   -900.80227    1691.9368    2239.0735     2.186972    14.574415    0.1509898 
   54000   -945.53925    49.277462   -896.26178      1764.94    7983.6924    2.1920332    14.332837   0.13451455 
   54100   -943.17781     50.11924   -893.05858    1795.0894   -8384.0074    2.1482665    13.784023   0.13281474 
   54200   -947.32904     46.55668   -900.77236    1667.4915   -4617.4691     2.167632    14.227804   0.13429983 
   54300   -944.28424    46.786798   -897.49744    1675.7334    5491.5465    2.1884497    16.481521   0.14108088 
   54400   -935.52449    44.128551   -891.39594    1580.5247    3337.0868    2.1639552    11.589494   0.14037681 
   54500    -945.5744    44.300372   -901.27403    1586.6787    -1095.049    2.1730961    14.444223   0.14317727 
   54600    -940.6598    41.703555   -898.95625    1493.6701    2195.1608    2.1733732    13.385541   0.12845236 
   54700   -937.86162    44.493593   -893.36803    1593.5992    4453.8993    2.1738732    14.677742   0.17135805 
   54800    -943.7558    42.044886   -901.71091    1505.8953    1424.3453    2.1792927     13.98588   0.14634374 
   54900   -945.31296     44.11748   -901.19548    1580.1281   -3937.8409    2.1666728    13.694705   0.14023456 
   55000    -944.5852     49.43005   -895.15515    1770.4051    318.02721    2.1715275    12.600341   0.13887741 
   55100   -946.04511    44.799763   -901.24534     1604.565    3981.4306    2.1868068    11.522383   0.13417105 
   55200   -944.55812      41.6858   -902.87232    1493.0342    1101.3053     2.177587    13.693671   0.14097135 
   55300   -942.27066     46.66136    -895.6093    1671.2407   -2559.5714    2.1619234      16.3528   0.14633015 
   55400   -944.66001    45.056323   -899.60368    1613.7541    1610.3701    2.1803306    14.630551   0.14206463 
   55500   -950.67303    46.723866   -903.94917    1673.4794     3430.662    2.1928782    15.167166   0.14484344 
   55600   -940.99646    46.850118   -894.14634    1678.0013   -7453.8466    2.1420633     15.77589   0.14135837 
   55700   -943.81727    44.923086   -898.89418     1608.982   -2336.3892    2.1662404     17.06438    0.1503342 
   55800   -948.16417    48.403011   -899.76116    1733.6203    11569.607    2.2089773    16.913091   0.13788679 
   55900   -942.01918    51.511736   -890.50745    1844.9636   -3433.0857      2.15505    13.101962   0.14103304 
   56000   -943.13537     45.86688   -897.26849    1642.7853    -10040.36    2.1435937    15.269827   0.13578119 
   56100   -947.35787    47.473386   -899.88449    1700.3245    1612.6246    2.1819993    12.617888    0.1290819 
   56200   -944.33148    49.244618   -895.08687    1763.7636    9300.0822    2.1933037    13.137307   0.15466031 
   56300     -941.939    49.057916   -892.88109    1757.0766   -8308.9273    2.1400473     15.60743   0.14493302 
   56400   -948.62438     46.60724   -902.01714    1669.3023   -6960.9267    2.1638074    17.316464   0.14006161 
   56500    -944.4147    47.124257   -897.29044      1687.82    8050.7451    2.1933658    16.268256   0.14505832 
   56600   -944.85275    50.938533   -893.91422    1824.4335     1620.922    2.1715226    16.001842   0.13400677 
   56700   -946.54657    43.318285   -903.22829    1551.5039   -6525.3098    2.1609187    15.122026   0.12466077 
   56800   -949.03737    48.308846   -900.72852    1730.2477    -4325.662    2.1680692     13.16286   0.14497263 
   56900   -943.85006    48.733801   -895.11626     1745.468    7214.1862    2.1874242    13.328779   0.13782646 
   57000   -949.64116    48.450317   -901.19084    1735.3146   -2320.7843    2.1770966    13.911636   0.14175929 
   57100   -944.07498    40.207681    -903.8673    1440.0933   -3814.8936    2.1664812    13.960484   0.14614045 
   57200   -943.86105    47.733164   -896.12788    1709.6288    62.684115    2.1728309    14.879531   0.14118932 
   57300   -943.46484    45.592271   -897.87257    1632.9498     5825.084    2.1866615    15.865095   0.16474608 
   57400   -945.99535    40.596681   -905.39867    1454.0259    75.421908    2.1792572    15.686138   0.15124294 
   57500   -944.86761    47.997011    -896.8706    1719.0789     -4174.49    2.1595805    15.951515   0.15161927 
   57600   -943.59835    47.201923   -896.39642    1690.6017    4175.7537    2.1845211    13.080156   0.15101028 
   57700   -943.88926     42.65029   -901.23897    1527.5787    3089.1909    2.1806042    14.128411   0.13787782 
   57800   -945.94391     50.69834   -895.24557    1815.8307   -2937.3539    2.1619194    13.421418   0.14340586 
   57900   -945.35452    51.670187   -893.68433    1850.6387    -2152.177    2.1659619     14.02397   0.14356154 
   58000   -948.70761    49.053956   -899.65365    1756.9348   -406.73703    2.1769059    14.496223   0.14601535 
   58100   -943.86273    44.844666   -899.01806    1606.1733   -23.207418    2.1722807    15.733015   0.15582361 
   58200   -940.56682    50.052141   -890.51468    1792.6862   -2139.6179    2.1529781    13.534304   0.15631228 
   58300   -945.90063    46.394859   -899.50577    1661.6956    4237.9664    2.1824769    15.432532   0.14630341 
   58400   -942.02552    42.897921    -899.1276     1536.448    2429.7166    2.1768258    14.434631   0.15800626 
   58500   -941.87114    49.645333    -892.2258    1778.1158   -3764.3802    2.1500398    16.417165   0.14404541 
   58600   -944.90894    45.171434   -899.73751    1617.8769    253.50953    2.1733147    15.303031   0.13827398 
   58700   -945.62631    45.007089   -900.61922    1611.9907    1517.0155    2.1828391    15.303786     0.135479 
   58800   -943.49088    47.624783    -895.8661     1705.747    1161.3003    2.1699207    14.006407   0.15101812 
   58900   -942.83525    47.585644   -895.24961    1704.3452   -3732.4357    2.1577444    16.516894   0.14202437 
   59000   -950.38027    46.566891   -903.81338    1667.8572    3452.2539    2.1921286    13.878258   0.14985854 
   59100   -942.39387    45.297271    -897.0966     1622.384    5547.6209    2.1820159    15.890108   0.14498679 
   59200   -943.56122    46.498838   -897.06239    1665.4198    -7600.879    2.1515845    14.665144   0.13990948 
   59300   -948.27975    42.264749     -906.015      1513.77   -935.61855    2.1759664    14.449688   0.13602705 
   59400   -946.54652    46.672855   -899.87367    1671.6524    8154.2907    2.1933513    14.640784    0.1342672 
   59500   -942.90638    46.830199   -896.07618    1677.2879    3085.0406    2.1735292    13.115874   0.15481235 
   59600    -948.2589    46.893811   -901.36509    1679.5662   -13224.929    2.1471151    14.562509    0.1388789 
   59700   -949.78386    46.749494   -903.03437    1674.3974   -791.91658    2.1793439    14.447708   0.13821573 
   59800   -940.89169    46.944928   -893.94676    1681.3971    10909.912    2.1893002    16.225227    0.1484309 
   59900   -942.87461     45.79049   -897.08412    1640.0493   -2628.9978    2.1599628    19.805376   0.15197276 
   60000   -945.36852    42.956003   -902.41251    1538.5283    -8063.378    2.1563208    16.961169   0.13946259 
   60100   -946.79196    44.139741   -902.65222    1580.9254     8229.903    2.1966965    14.435563   0.14406199 
   60200   -946.08422    51.338495   -894.74573    1838.7587     3526.448    2.1830594     11.66412   0.14115422 
   60300   -943.37225    43.882896   -899.48936    1571.7262   -9606.8262    2.1482552    13.661989   0.14683028 
   60400   -945.94282    45.397728   -900.54509     1625.982   -1786.2906     2.170594    14.060804   0.14349294 
   60500   -939.27883    49.609745   -889.66908    1776.8412    10241.107    2.1841552    13.606444   0.16996399 
   60600   -945.08202    49.860296   -895.22172     1785.815    1308.5243     2.173355    15.138859   0.14348219 
   60700   -946.57268    46.319874   -900.25281    1659.0099   -10942.219    2.1449815    13.753899    0.1355284 
   60800   -944.76766    48.550659     -896.217    1738.9085   -1123.2039    2.1703166    12.051749   0.13224493 
   60900   -941.06473      52.7752   -888.28953    1890.2163     8527.017    2.1787197    10.366195    0.1264234 
   61000   -946.55738     48.37765   -898.17973     1732.712   -1827.9829    2.1667038    15.864825   0.14036434 
   61100   -946.60929    47.187251   -899.42204    1690.0762   -13747.655     2.141319    15.299096   0.13769195 
   61200   -942.85986    49.389316   -893.47054    1768.9462    6627.1755    2.1829759    17.112436   0.13900235 
   61300   -939.62723    45.453323    -894.1739    1627.9732    24454.009    2.2208179    16.090742    0.1624757 
   61400   -945.47356    43.919154   -901.55441    1573.0248   -21414.275    2.1203841    15.817272   0.14973501 
   61500   -949.29745    49.114481   -900.18297    1759.1026   -11155.793    2.1474784    14.996242   0.13550351 
   61600   -942.23992    46.801064   -895.43886    1676.2444     16180.33    2.2006856    14.838007    0.1399977 
   61700   -947.15965    45.820713   -901.33893    1641.1318   -149.28933    2.1757601    13.232165   0.12421522 
   61800   -949.71406    43.720893   -905.99317    1565.9238   -9561.3782    2.1591068    15.902822   0.11802992 
   61900   -947.65257    49.927146   -897.72543    1788.2093   -711.42596    2.1688389    14.400915    0.1263248 
   62000   -947.67039    50.628471   -897.04192    1813.3282    7556.9566    2.1901032    13.921418   0.12843584 
   62100   -950.78135    46.660169   -904.12118     1671.198   -4984.7045    2.1734759    11.751056   0.14179486 
   62200   -946.53576    45.307559    -901.2282    1622.7524    -8258.237    2.1610158    11.226882   0.15657921 
   62300   -944.92229    48.783303   -896.13899     1747.241    4801.9067    2.1803189    13.255652   0.15666323 
   62400   -944.69036    46.559713   -898.13065    1667.6001     2462.924    2.1768462    15.345317   0.14862015 
   62500   -947.10848    43.852926   -903.25555    1570.6528   -7053.4811    2.1602538    14.264484   0.13531166 
   62600   -947.42793     42.12851   -905.29942    1508.8904    996.69836    2.1809326    12.551053   0.13226598 
   62700   -943.78051    47.576186   -896.20433    1704.0065    3714.7918    2.1772388    14.223063   0.12242171 
   62800   -946.12753    48.097308   -898.03022    1722.6711   -5497.6104    2.1606136    15.317713   0.11138147 
   62900   -945.74497    45.638843   -900.10612    1634.6178   -2932.6769    2.1662105    16.707959    0.1331593 
   63000   -951.64014     43.62567   -908.01447    1562.5133    6702.1894    2.2015696    13.971104   0.11865138 
   63100   -949.09633     46.27705   -902.81928    1657.4761    196.91268    2.1849298    15.285561   0.16447521 
   63200   -943.69155    44.272658   -899.41889    1585.6861   -6335.9065    2.1559218    12.572982   0.17913107 
   63300   -948.05011    49.831145   -898.21896    1784.7709     -4002.95    2.1676103    15.429804    0.1550236 
   63400   -946.59981      50.0059   -896.59391      1791.03    9441.5099    2.1973551     13.97989   0.14893576 
   63500   -935.82366    50.199292   -885.62437    1797.9566   -2286.9947    2.1402326    14.450274   0.14171987 
   63600    -940.3627    44.646284   -895.71642     1599.068   -3401.2279    2.1500025    13.855658   0.13230501 
   63700   -942.95493    44.991564   -897.96336    1611.4347    7138.1248      2.18906    14.032192   0.13205778 
   63800   -946.57405    47.317139   -899.25691    1694.7283    2086.6807    2.1813783    13.848636   0.12663059 
   63900   -938.54551    49.660078   -888.88543    1778.6439   -7690.6312    2.1314016    15.203858   0.15173293 
   64000   -945.68029    50.332181   -895.34811    1802.7162   -3532.0301    2.1668802    12.163639   0.16902018 
   64100   -943.45934    46.079604   -897.37973    1650.4043    6825.1056    2.1831493    13.197615   0.17505186 
   64200   -946.09976     45.64521   -900.45455    1634.8459   -2997.4864    2.1692417    12.753268   0.15694232 
   64300   -950.18763    46.350933    -903.8367    1660.1223   -10533.558    2.1604739    14.411222   0.15305403 
   64400   -953.54248    42.623282    -910.9192    1526.6114    9095.8878    2.2129124    15.155572   0.13359763 
   64500   -947.88662    46.488684   -901.39793    1665.0561    4324.7097    2.1878858    14.608431   0.12929784 
   64600   -944.61416    45.381681   -899.23248    1625.4072    -14541.67    2.1371965    16.364167   0.13590082 
   64700   -943.61905    46.285314   -897.33374    1657.7721    560.74577    2.1725834    14.606445   0.13646957 
   64800    -946.9541    44.208172   -902.74592    1583.3764    15965.675    2.2209599    14.843004   0.15831061 
   64900   -950.83075    44.648401   -906.18235    1599.1438    -5105.499    2.1743608    14.684149   0.15045892 
   65000    -943.3299    44.147723   -899.18217    1581.2113   -10734.738    2.1454126    16.038763   0.17326139 
   65100   -942.31356    45.122779   -897.19078    1616.1343    5301.5875    2.1863444    13.693153   0.16564035 
   65200    -944.6752    42.523893   -902.15131    1523.0516    6601.5984    2.1919524    14.418136   0.16368674 
   65300   -948.66367    41.802098   -906.86158    1497.1995   -2316.6818    2.1801437     13.80002   0.13946422 
   65400   -943.95788    45.537318   -898.42056    1630.9816   -4369.6942    2.1640027    15.192505   0.14079486 
   65500   -946.80914    49.112955   -897.69618    1759.0479    1988.3361    2.1828299    15.364671   0.14213272 
   65600   -943.52735    42.377659   -901.14969    1517.8141    4998.6274    2.1844058    18.083393    0.1449057 
   65700   -952.90305    44.416146    -908.4869    1590.8253   -4947.2115     2.177593    18.071775   0.13928326 
   65800    -942.5433    43.795413   -898.74788    1568.5929   -2525.8563    2.1620835    14.963969   0.17256014 
   65900   -945.16449    47.624441   -897.54005    1705.7348    3865.3938    2.1863445    11.952406   0.15626514 
   66000   -944.32414     44.72727   -899.59687    1601.9686     1806.895     2.181479    15.006379   0.15629093 
   66100   -948.76141    42.036104    -906.7253    1505.5808   -6558.1229    2.1657745    13.428008   0.12907564 
   66200   -945.99947    41.578951   -904.42052    1489.2072    2623.0591    2.1852537    15.476262   0.14299538 
   66300   -943.79399    45.744549   -898.04944    1638.4039    13967.781    2.2105837     14.75728   0.14427049 
   66400   -945.09463    47.559408   -897.53522    1703.4055   -9862.6415     2.150216     14.54054   0.13772153 
   66500    -941.9235    47.128141   -894.79536    1687.9591   -14718.039    2.1304321    15.797155   0.13670406 
   66600   -948.31019    42.822433   -905.48776    1533.7442    17396.451    2.2266453    16.885191   0.14613991 
   66700   -943.73839    44.388215   -899.35018    1589.8249    4282.4254    2.1849167    14.039943   0.14765956 
   66800   -942.51971    45.375799   -897.14391    1625.1966   -9006.9848    2.1475256    15.292084   0.16070373 
   66900   -946.19453    48.700825   -897.49371    1744.2869   -2083.4105    2.1690131    13.149286   0.14774618 
   67000   -955.47251    49.946529   -905.52599    1788.9035    6824.3059    2.2079446    13.492996   0.13199337 
   67100   -945.82075    49.362341   -896.45841      1767.98   -3857.4036    2.1615986    16.087517   0.14172214 
   67200   -941.81773    44.480464   -897.33727    1593.1289   -3170.1417    2.1580728    15.578438   0.13702085 
   67300   -948.41881    46.274495   -902.14432    1657.3846     1162.769    2.1894245    15.361916   0.13371485 
   67400   -950.99167    45.244263   -905.74741    1620.4854    5197.2021    2.2001056    13.664031   0.12890392 
   67500   -944.49345    48.020667   -896.47279    1719.9262   -10198.369    2.1500307     14.21167   0.16844043 
   67600   -944.24246    45.670141   -898.57232    1635.7388   -3783.8703    2.1649222    15.001418   0.16507698 
   67700    -946.6516    46.332717   -900.31888    1659.4699    10734.612    2.2023877    11.315891   0.14514955 
   67800   -941.53501    51.697361   -889.83765     1851.612   -634.08067    2.1614917     13.20762   0.13958118 
   67900   -943.27365     48.45285    -894.8208    1735.4054   -4746.0532    2.1542969    13.301804   0.13387416 
   68000    -941.6965    42.611789   -899.08471    1526.1997    2775.2518    2.1780828    13.088799   0.14019871 
   68100   -944.04123    45.337009   -898.70422    1623.8073    7402.6659    2.1877034    15.371222   0.13783032 
   68200   -940.14854    50.929418   -889.21912    1824.1071   -5711.0514    2.1416794    18.331777   0.16055425 
   68300    -945.0635    46.023159   -899.04034    1648.3827   -2734.1447    2.1667214    14.201591   0.16048494 
   68400   -944.32106    45.810335   -898.51073    1640.7601    11034.921    2.1989453    14.102218   0.14978106 
   68500   -942.40676    46.175409   -896.23135    1653.8357   -342.75216    2.1703188    11.279864   0.16478135 
   68600   -940.54146    49.685419   -890.85604    1779.5515   -17782.846    2.1165099    14.971771   0.13590193 
   68700   -945.56712    44.178744   -901.38838    1582.3224    9539.6324    2.1979008     12.97167   0.13798087 
   68800    -944.2104    46.841153   -897.36924    1677.6802    13295.695    2.2011439    16.616587   0.14851873 
   68900   -945.85459     49.14706   -896.70753    1760.2695   -12110.028     2.142792    13.392942   0.11229797 
   69000   -951.67776    45.632497   -906.04526    1634.3906   -7930.5625    2.1683415    14.378509   0.13962869 
   69100   -946.91123    45.506331    -901.4049    1629.8717    5895.5401    2.1928153    15.224093   0.15823908 
   69200   -941.15425     44.87531   -896.27894    1607.2709    6337.8269    2.1771171    15.684053   0.15743209 
   69300   -945.64328    45.518945   -900.12433    1630.3235   -7691.8759     2.154747    13.968309   0.15745775 
   69400   -949.32654    43.514225   -905.81232    1558.5217   -1171.2264    2.1778014    14.222961   0.14644334 
   69500   -943.15356    46.891248   -896.26231    1679.4745    5209.9917    2.1797601    11.566256   0.13425059 
   69600   -947.26151    49.347081   -897.91443    1767.4335   -2804.1475    2.1707916    14.099598   0.14500963 
   69700   -945.97165    42.602577   -903.36908    1525.8698   -5321.6881    2.1630675    14.176744   0.13739255 
   69800   -946.12777    45.038913   -901.08885    1613.1305     4497.479     2.185446    15.236006   0.14553384 
   69900   -944.64088    49.581315   -895.05957    1775.8229    3814.1634    2.1793321    15.311178   0.13561607 
   70000   -945.51149     46.11589    -899.3956    1651.7039   -10958.573    2.1468786    13.867538   0.15255449 
   70100   -944.13322    45.028974   -899.10424    1612.7746    -3620.694    2.1617383    12.880747   0.15845681 
   70200   -939.83067    51.317773    -888.5129    1838.0165    15142.374    2.1946978    12.360387   0.16645103 
   70300   -942.77732    48.766124    -894.0112    1746.6257    3342.3619    2.1705523    10.425836   0.14318092 
[...]
  186800   -947.02904    50.767304   -896.26173    1818.3007    14313.834    2.2080944    239.74798   0.16427147 
  186900   -942.26176    47.773541   -894.48822     1711.075   -8155.1501    2.1435194    245.03788   0.16566296 
  187000   -946.10253    45.590849   -900.51169    1632.8989   -14466.465    2.1421729    248.29893   0.15802034 
  187100   -946.23254    48.939574   -897.29297    1752.8381    7427.9668    2.1920821    242.39669   0.14403756 
  187200   -942.03214    52.318061   -889.71408    1873.8432    3703.3503    2.1711104    247.64578   0.15710361 
  187300   -945.15796    46.318227   -898.83974    1658.9509   -1819.0328     2.166967    243.89054   0.16605873 
  187400   -943.75084    45.282851   -898.46799    1621.8675   -2775.4213    2.1648463     233.0758   0.17347424 
  187500   -941.12336    50.169766   -890.95359    1796.8991    945.38481    2.1707247    248.83904   0.18384671 
  187600   -940.83877    43.700632   -897.13814    1565.1982    4385.0465    2.1791535    244.01294   0.18138551 
  187700   -943.09448     44.49853   -898.59595     1593.776   -6627.8494    2.1556574    235.62817   0.17769267 
  187800   -941.08249    46.078235   -895.00426    1650.3553    1211.2338    2.1714783    239.04787   0.19586802 
  187900   -942.65138     45.56032   -897.09106    1631.8054    6554.1307    2.1861275    231.59686   0.19077415 
  188000   -946.34886    43.231284   -903.11757    1548.3878    3731.8382    2.1845298    239.05647   0.15952313 
  188100    -940.2585    43.036768   -897.22173    1541.4209   -1782.0001    2.1575495     252.2661    0.1748739 
  188200   -941.31647     45.42575   -895.89072    1626.9856   -1873.1384    2.1633704    234.30017   0.17556467 
  188300   -948.58402    44.514759   -904.06926    1594.3572    8539.5764    2.2023471    232.28469   0.16425133 
  188400   -941.40513    44.606175   -896.79896    1597.6314    593.76342     2.162523    246.58764   0.17602409 
  188500   -942.33191    46.710323   -895.62159    1672.9944   -7158.9037    2.1459458    250.80268   0.16796983 
  188600   -946.80276    46.978711   -899.82405    1682.6071    5891.9129    2.1849919    232.81479   0.16960834 
  188700   -948.51301    47.523034   -900.98997    1702.1027    10318.556    2.2039623    233.22664    0.1777303 
  188800   -942.22255    50.029995   -892.19256     1791.893   -13872.315    2.1289914    240.04444   0.17980978 
  188900   -943.70163    45.865173   -897.83645    1642.7242   -9687.9007    2.1479584     236.6591   0.17962893 
  189000   -944.58794    46.561669   -898.02627    1667.6701    14859.538    2.2069095    232.62234   0.16259188 
  189100   -940.35818     48.29158    -892.0666    1729.6293    3351.0027    2.1742698    225.41406   0.16960558 
  189200   -939.40616    46.687159     -892.719    1672.1647   -10596.775    2.1352994    264.57206   0.17109186 
  189300   -946.76748     46.94957   -899.81791    1681.5633   -2183.5814    2.1702318    254.49423   0.15746073 
  189400   -946.15718    50.676084    -895.4811    1815.0336    6725.3538    2.1892481    250.59777   0.14604484 
  189500    -942.3469    48.571509   -893.77539    1739.6553   -4057.4731    2.1543529    263.74091   0.15725686 
  189600   -946.25316    43.178823   -903.07434    1546.5089   -295.12293    2.1703425    248.98228   0.13158985 
  189700   -945.53553    47.446803   -898.08873    1699.3724    4184.5204    2.1816394    253.16402   0.13818381 
  189800   -939.91394    44.906361   -895.00758     1608.383     2146.884    2.1662427    254.58308   0.16043348 
  189900   -947.80414    43.807571   -903.99657    1569.0283   -4457.6489     2.167294    259.75543   0.13102005 
  190000   -945.23701    44.064579   -901.17243    1578.2334   -438.02954    2.1720323    255.65893   0.13241796 
  190100    -943.9155    48.812576   -895.10293    1748.2895    5195.2448    2.1810069    250.51273   0.13991181 
  190200   -944.23074    43.044651   -901.18609    1541.7033   -1420.7865    2.1695302    253.02515   0.13750488 
  190300   -949.14525    45.030553    -904.1147    1612.8311   -8309.4295    2.1614987    252.15472   0.14252907 
  190400    -940.8731    45.581011   -895.29209    1632.5465    7194.0511    2.1793031    251.13517   0.15727577 
  190500   -945.20994    47.199724   -898.01022    1690.5229    7373.9804    2.1897905    249.33566   0.14770314 
  190600   -945.99532    41.741159   -904.25416    1495.0169   -8503.6738    2.1546535    250.98528   0.14816058 
  190700    -942.1784    47.051207    -895.1272    1685.2036   -8462.5425    2.1443201    256.38396   0.14867244 
  190800   -947.44397    52.889358   -894.55461     1894.305    13319.486     2.208437    252.61603   0.14520428 
  190900   -945.64128    45.100254   -900.54103    1615.3275    3523.6889    2.1830264    258.96737   0.16505243 
  191000   -940.99586    44.669111   -896.32675    1599.8856    -12012.19    2.1363496    259.36078   0.15065312 
  191100   -938.90817    47.255205   -891.65296    1692.5101    1371.7669    2.1633252    253.97926   0.16006032 
  191200   -946.50097    47.218171    -899.2828    1691.1837    9336.3281    2.2003247    242.65923    0.1516276 
  191300   -942.24461    43.170412    -899.0742    1546.2076   -2002.8946    2.1678581    252.02884   0.15667381 
  191400   -936.42207    44.474669   -891.94741    1592.9214   -6904.1546    2.1416421    259.18913   0.16424407 
  191500   -947.11966    45.280402   -901.83926    1621.7798    4092.0675    2.1909617    256.41458   0.14437122 
  191600   -944.05847    44.595229   -899.46324    1597.2394     3767.726    2.1811991    256.13147    0.1392653 
  191700   -939.51305    44.545413   -894.96764    1595.4551    -2011.534    2.1538458    261.92583   0.15029382 
  191800    -944.4994    42.131338   -902.36806    1508.9917   -1175.6098    2.1722352    261.54284   0.13891751 
  191900   -948.85773    46.899316   -901.95841    1679.7634    4187.0582     2.189359    254.60707   0.14418308 
  192000   -947.47506    51.749187   -895.72587    1853.4682    -1793.546    2.1711968     252.1836   0.13561806 
  192100   -942.37461     43.17369   -899.20092     1546.325   -5646.3474    2.1521928    257.21632   0.13825603 
  192200   -948.91803    44.597811   -904.32022    1597.3319    1803.3701    2.1832724    248.65941   0.13631974 
  192300   -945.16779    50.518421   -894.64937    1809.3866    6339.8146    2.1846886    248.18302   0.13313079 
  192400   -943.55155    45.819475   -897.73208    1641.0874   -2866.7294    2.1583322    258.52589   0.14448007 
  192500   -945.39418    41.948827   -903.44535    1502.4549   -9240.1073    2.1508134    249.51814   0.14029765 
  192600   -946.15187    49.188026   -896.96384    1761.7367    11690.055    2.2014648    250.23853   0.13436748 
  192700   -944.00248     50.13599   -893.86649    1795.6893    9284.6771    2.1898402    250.30703   0.13441773 
  192800   -946.01883    44.590589   -901.42824    1597.0732   -13995.525    2.1400492    260.43315   0.13816266 
  192900   -941.97014    44.092397   -897.87774    1579.2298   -2451.8822    2.1615395    255.37704   0.16230065 
  193000   -941.74572    51.477835   -890.26788    1843.7494    9343.7633    2.1884865    246.47605    0.1563438 
  193100   -943.72102    44.200362   -899.52066    1583.0967    3786.0093    2.1777493    254.37238   0.14859148 
  193200   -941.38376    41.900349   -899.48341    1500.7185    -5526.615    2.1507077    244.95827   0.14924245 
  193300   -942.28026    50.094708   -892.18555    1794.2108   -188.93497    2.1627338    243.93592   0.14458534 
  193400   -947.86272    47.060425    -900.8023    1685.5337    6182.7332    2.1944138    254.45773   0.13680643 
  193500   -945.11675    44.430181   -900.68656    1591.3279   -2197.1032     2.166999    265.64946   0.14769215 
  193600   -939.49132    45.059534   -894.43178    1613.8691   -4298.9609    2.1516718    259.48688   0.15322614 
  193700   -946.58099    44.813845   -901.76715    1605.0694    3923.7633    2.1907845    249.99837   0.14070331 
  193800   -949.65135       48.325   -901.32635    1730.8263    1994.6895    2.1861835    250.07645   0.13790122 
  193900   -940.65831    45.716375   -894.94194    1637.3948   -4843.3548    2.1547346    254.94849   0.15250612 
  194000   -945.59566     44.56758   -901.02808    1596.2491   -2742.5934    2.1653744    243.36932   0.13618867 
  194100   -948.42431    47.142846   -901.28146    1688.4858    6317.8113    2.1982123    247.96005   0.14820999 
  194200   -942.68362    49.341295   -893.34233    1767.2262   -592.79693    2.1698415    240.09596   0.13853574 
  194300   -945.95355    45.960315   -899.99324    1646.1318   -12911.296    2.1433486    255.55103   0.14227576 
  194400   -943.07943    42.527147   -900.55228    1523.1682    2157.4597    2.1793949    255.53015   0.13686487 
  194500   -941.46817    50.777779   -890.69039    1818.6759    17054.212    2.2025737    243.95338    0.1368182 
  194600   -945.58943    48.247309   -897.34212    1728.0436   -5418.7142     2.160107    246.76221   0.14561627 
  194700   -946.68858    44.800089   -901.88849    1604.5767   -14215.079    2.1392417    258.80189   0.12630328 
  194800   -944.06909    49.361177   -894.70791    1767.9384    7560.2117    2.1900381     259.6855     0.142182 
  194900   -944.57485    49.861068   -894.71378    1785.8426    6781.6445    2.1885559     258.1425   0.13830675 
  195000   -947.96921    45.130615   -902.83859     1616.415   -6290.8939    2.1636152    254.05669   0.14179209 
  195100    -943.1959    45.876775   -897.31913    1643.1397   -959.45544    2.1630901    243.26106   0.13981001 
  195200   -940.89222    47.706074   -893.18615    1708.6586    7392.3766    2.1825594    253.02427    0.1434489 
  195300   -948.41127    45.700685   -902.71059    1636.8328    3773.2642    2.1891363    257.83793   0.13598393 
  195400   -946.07091     47.95059   -898.12032    1717.4162   -6334.7085    2.1570025    255.02902   0.13349079 
  195500   -942.57931    48.100861   -894.47845    1722.7984   -1160.4361    2.1693796    249.21645   0.16425239 
  195600   -947.81296    45.215023   -902.59794    1619.4382    6694.0615    2.2015831    252.14291   0.15797386 
  195700   -941.46506    43.830798   -897.63426    1569.8602    1461.4052    2.1701709    265.65858   0.15013559 
  195800   -943.40029    47.826734   -895.57355    1712.9802   -7458.0603    2.1544979    253.69836    0.1518896 
  195900   -946.89575    44.693391   -902.20236    1600.7552    4218.6077     2.185621     260.0257   0.14710878 
  196000   -946.39112    47.270149   -899.12097    1693.0453    8138.5091    2.1913756    257.81251   0.14593164 
  196100    -946.2934    51.663723   -894.62968    1850.4072   -7797.4729    2.1513219    255.24262    0.1535007 
  196200   -947.08063    45.030259   -902.05037    1612.8206   -9789.0624    2.1552543    253.68975    0.1466467 
  196300   -946.40526    48.232537   -898.17273    1727.5146    9190.3689    2.2001281    252.20895   0.13224166 
  196400   -944.02653    53.189501   -890.83703     1905.055    7011.4581    2.1835277    249.03022   0.14008376 
  196500   -944.60215    45.466798   -899.13535    1628.4558   -14338.382     2.134738    254.58561   0.14059396 
  196600   -945.45269    45.817236   -899.63546    1641.0072   -4969.8648    2.1620055    251.53342   0.14824765 
  196700   -943.74171    51.793737   -891.94798    1855.0638    14079.778    2.2037017    246.53543   0.16210201 
  196800    -948.5616    50.935812   -897.62579    1824.3361   -4077.9533    2.1672345    252.36225   0.14492737 
  196900   -945.79848    43.407311   -902.39117    1554.6925   -6144.5848     2.159217    260.09494   0.14887886 
  197000    -940.7888    45.872581   -894.91622    1642.9895    3828.0872     2.173402    264.33142   0.16098095 
  197100   -943.83334    45.716034   -898.11731    1637.3826    6595.2039    2.1844153    248.43124    0.1416411 
  197200   -950.32294    46.511675   -903.81126    1665.8795   -3277.5102    2.1730816    247.04265   0.13293155 
  197300   -945.22666    49.129555    -896.0971    1759.6425   -4381.1703    2.1563958    261.33941   0.12850093 
  197400   -943.56981    46.463459   -897.10635    1664.1526    3822.5526    2.1767082    251.54216   0.14136817 
  197500   -949.45848    45.535873   -903.92261    1630.9298    4324.2442    2.1905621    247.03193   0.14589079 
  197600   -940.07176    44.785575   -895.28618    1604.0569   -4120.8951    2.1514781    258.57586   0.14543116 
  197700   -938.67336    41.647799   -897.02556    1491.6731   -790.65048    2.1623362     249.7092   0.16068559 
  197800   -947.49954    45.049887   -902.44965    1613.5236    7008.4343    2.1958127    250.31561   0.14605296 
  197900   -939.24443    45.830738   -893.41369    1641.4908    3495.5131    2.1700979    250.43535   0.15450764 
  198000   -939.92966    43.604583   -896.32508     1561.758    -3872.435    2.1554222    263.68016   0.16071242 
  198100   -948.02744    45.983482   -902.04396    1646.9616   -2143.4627    2.1754063    252.59409   0.12976736 
  198200   -944.99086    49.935887   -895.05497    1788.5224    8529.8732     2.193062    248.68167   0.12895984 
  198300   -943.14742     48.15715   -894.99027    1724.8145   -2086.5194    2.1632119    260.41006   0.13542794 
  198400   -947.65225    44.611387   -903.04086    1597.8181   -13936.078    2.1451746    257.97895   0.13526825 
  198500   -946.70034    49.385448   -897.31489    1768.8076    3610.8647    2.1829713    257.38301   0.14999397 
  198600   -943.38474    51.001335   -892.38341    1826.6829    13084.467    2.1935224    248.06707   0.13312736 
  198700   -944.98453    43.362411   -901.62212    1553.0843   -7743.4984     2.153102    252.52754   0.14288949 
  198800   -947.54497     47.60544   -899.93953    1705.0542   -10807.544    2.1503828     254.8539   0.13228838 
  198900   -945.86842    52.561431   -893.30699    1882.5598    5302.6962    2.1856506    250.15992   0.13527183 
  199000   -945.31949    44.354062   -900.96543    1588.6017    4961.4529    2.1855776    256.53327   0.13327848 
  199100    -942.7537    41.735276   -901.01842    1494.8062   -3891.5004    2.1572406    252.54782   0.12976304 
  199200    -943.4176    49.490586   -893.92701    1772.5733   -4350.9559    2.1546451     254.3672   0.13670414 
  199300   -947.47982    47.546657   -899.93317    1702.9488    5340.7177    2.1890204    252.78078   0.12886587 
  199400   -948.35884    46.724409   -901.63443    1673.4989    210.22374    2.1784573    251.24866    0.1319449 
  199500   -941.76325    48.214091   -893.54916    1726.8539   -7681.4003    2.1447597    261.73896   0.15534755 
  199600   -947.76346    47.083186   -900.68028     1686.349    494.81481     2.178158    247.19576   0.12747132 
  199700   -946.62848    46.375591   -900.25289    1661.0055    6596.6009     2.186079     246.7562   0.12441503 
  199800   -941.68136    48.474728   -893.20664     1736.189   -5199.5455    2.1507384    249.34775   0.14348156 
  199900   -945.31732    44.153006   -901.16431    1581.4006   -2880.8606    2.1634107    259.74112    0.1142393 
  200000   -946.22612    46.170089   -900.05603    1653.6451    4374.7007    2.1844553    258.71387   0.13935645 
  200100   -943.13863    50.327515   -892.81112    1802.5491    3720.2314    2.1731762    255.09169   0.13953807 
  200200   -944.69542    44.516552   -900.17887    1594.4215   -6997.5299    2.1513519    257.10501    0.1225439 
  200300   -945.36257    44.139031   -901.22354       1580.9   -7304.4862    2.1554194    250.63194   0.13553612 
  200400   -940.72185    48.199274   -892.52257    1726.3232    15579.748    2.1997097    246.24678   0.14119969 
  200500   -945.59272    47.323365   -898.26935    1694.9513    3682.2206    2.1802059    256.63157   0.14315971 
  200600   -945.17357     41.71176   -903.46181     1493.964   -15091.448    2.1372609    255.14545   0.13627139 
  200700   -942.05316     46.72112   -895.33204    1673.3811    1065.2941    2.1689555    247.55281   0.13359927 
  200800   -940.87624    45.416117   -895.46012    1626.6406    16391.673    2.2008624    258.77597   0.13433008 
  200900   -948.95546    46.134752   -902.82071    1652.3795   -2490.0204    2.1701885    262.47903   0.14112605 
  201000   -944.60974    48.540632    -896.0691    1738.5494   -9290.2338    2.1468488    259.26694   0.13364825 
  201100   -941.54173    46.968624   -894.57311    1682.2458    3946.6862    2.1751091    262.61062   0.15649169 
  201200   -948.07423    46.100155   -901.97408    1651.1404    4967.2965      2.19275    247.22948   0.13448688 
  201300   -945.06289    49.323319   -895.73957    1766.5824   -6123.6292    2.1534161    251.50251    0.1395354 
  201400   -941.25997    45.682472   -895.57749    1636.1805   -1675.4888    2.1551338     262.1436   0.14097626 
  201500    -948.1053    45.955057   -902.15024    1645.9435     7091.207    2.1935691    257.80895   0.13747795 
  201600    -944.6913    50.169447   -894.52185    1796.8877    2349.4765    2.1706919    256.89088   0.14506708 
  201700   -942.95801    46.659576   -896.29844    1671.1768    -5047.157    2.1512111    264.51357    0.1331992 
  201800    -948.4977    45.867412   -902.63029    1642.8044   -1181.4849    2.1766808    247.40339   0.13570728 
  201900   -947.46383    52.407073   -895.05676    1877.0313    5793.1619     2.186964    248.38013   0.13093705 
  202000   -943.95796      48.3875   -895.57047    1733.0648    251.45191    2.1660113    246.46203   0.15647135 
  202100   -946.18276    42.913315   -903.26944    1536.9993   -10207.128    2.1505688    261.83374   0.15114953 
  202200   -945.57651     48.91684   -896.65967    1752.0238    2665.6999    2.1795033    253.79064   0.14967691 
  202300   -941.00149    48.615312   -892.38617    1741.2242    16705.784    2.2008412    248.54158   0.14603089 
  202400   -946.34215    44.477362   -901.86479    1593.0178   -9621.2991    2.1554074    255.38969    0.1563728 
  202500   -942.69494    43.651471   -899.04347    1563.4374    -13169.13    2.1410278    255.78296   0.15584214 
  202600   -943.17463    50.573357   -892.60128    1811.3542    8134.4644     2.189757    257.75279   0.17228291 
  202700   -948.01836    47.512395   -900.50596    1701.7217    6545.9213    2.1959652    256.44551   0.14304071 
  202800   -945.30268    44.067633   -901.23505    1578.3428   -6418.9814    2.1569243    255.57111   0.14531601 
  202900   -941.00633    47.015574   -893.99076    1683.9274   -4862.7328    2.1570983    246.38602   0.15737898 
  203000   -947.89421    47.830888   -900.06332     1713.129    4551.3368    2.1914344     233.8244   0.13747783 
  203100   -944.73935    43.287251    -901.4521    1550.3924    4213.8302    2.1804629    246.20272   0.15284225 
  203200   -941.94591    48.544708    -893.4012    1738.6954    -6946.647    2.1480434    237.83135   0.16115538 
Loop time of 142.333 on 1 procs for 200000 steps with 217 atoms

Performance: 364.217 ns/day, 0.066 hours/ns, 1405.158 timesteps/s
100.0% CPU use with 1 MPI tasks x no OpenMP threads

MPI task timing breakdown:
Section |  min time  |  avg time  |  max time  |%varavg| %total
---------------------------------------------------------------
Pair    | 136.69     | 136.69     | 136.69     |   0.0 | 96.03
Neigh   | 2.5039     | 2.5039     | 2.5039     |   0.0 |  1.76
Comm    | 0.91514    | 0.91514    | 0.91514    |   0.0 |  0.64
Output  | 0.068125   | 0.068125   | 0.068125   |   0.0 |  0.05
Modify  | 1.8541     | 1.8541     | 1.8541     |   0.0 |  1.30
Other   |            | 0.3063     |            |       |  0.22

Nlocal:    217 ave 217 max 217 min
Histogram: 1 0 0 0 0 0 0 0 0 0
Nghost:    951 ave 951 max 951 min
Histogram: 1 0 0 0 0 0 0 0 0 0
Neighs:    4146 ave 4146 max 4146 min
Histogram: 1 0 0 0 0 0 0 0 0 0
FullNghs:  8292 ave 8292 max 8292 min
Histogram: 1 0 0 0 0 0 0 0 0 0

Total # of neighbors = 8292
Ave neighs/atom = 38.212
Neighbor list builds = 4237
Dangerous builds = 94
Total wall time: 0:02:24
