LAMMPS (3 Mar 2020)
Reading data file ...
  orthogonal box = (0 0 0) to (17.469 17.469 17.469)
  1 by 1 by 1 MPI processor grid
  reading atoms ...
  217 atoms
  read_data CPU = 0.0010065 secs
Reading potential file library.meam with DATE: 2012-06-29
Reading potential file LiSi.meam with DATE: 2020-11-07
1 atoms in group Li
Neighbor list info ...
  update every 1 steps, delay 10 steps, check yes
  max neighbors/atom: 2000, page size: 100000
  master list distance cutoff = 6
  ghost atom cutoff = 6
  binsize = 3, bins = 6 6 6
  2 neighbor lists, perpetual/occasional/extra = 2 0 0
  (1) pair meam/c, perpetual
      attributes: full, newton on
      pair build: full/bin/atomonly
      stencil: full/bin/3d
      bin: standard
  (2) pair meam/c, perpetual, half/full from (1)
      attributes: half, newton on
      pair build: halffull/newton
      stencil: none
      bin: none
Setting up Verlet run ...
  Unit style    : metal
  Current step  : 0
  Time step     : 0.005
Per MPI rank memory allocation (min/avg/max) = 9.266 | 9.266 | 9.266 Mbytes
Step PotEng KinEng TotEng Temp Press Density c_msdli[4] 
       0   -951.06911    50.256344   -900.81276         1800    -114182.3    1.8918427            0 
     100   -917.13297    34.230438   -882.90253    1226.0101   -80704.291    1.8918427   0.04628245 
     200   -904.75948    47.457966   -857.30151    1699.7722   -65773.925    1.8918427   0.22929973 
     300   -897.17304    53.677256   -843.49578    1922.5247   -61270.176    1.8918427  0.085719389 
     400   -907.86824     53.42597   -854.44227    1913.5245   -68016.168    1.8918427   0.60092322 
     500    -902.1417     47.13759   -855.00411    1688.2975    -65546.17    1.8918427    10.947705 
     600   -898.25216    53.801408   -844.45075    1926.9713   -59770.089    1.8918427    16.350674 
     700   -901.63225     48.73331   -852.89894    1745.4504   -68737.125    1.8918427    15.179586 
     800    -901.7258     49.47106   -852.25474     1771.874   -66294.119    1.8918427     7.240991 
     900   -899.30107    54.341636   -844.95943    1946.3203   -62652.227    1.8918427    17.247062 
    1000   -904.07027     48.57215   -855.49812    1739.6783   -71351.939    1.8918427    22.799052 
    1001   -903.06535    47.888015   -855.17733     1715.175   -69245.705    1.8918427    23.396318 
Loop time of 0.578442 on 1 procs for 1001 steps with 217 atoms

Performance: 747.581 ns/day, 0.032 hours/ns, 1730.511 timesteps/s
100.0% CPU use with 1 MPI tasks x no OpenMP threads

MPI task timing breakdown:
Section |  min time  |  avg time  |  max time  |%varavg| %total
---------------------------------------------------------------
Pair    | 0.53345    | 0.53345    | 0.53345    |   0.0 | 92.22
Neigh   | 0.034112   | 0.034112   | 0.034112   |   0.0 |  5.90
Comm    | 0.0052101  | 0.0052101  | 0.0052101  |   0.0 |  0.90
Output  | 0.0002807  | 0.0002807  | 0.0002807  |   0.0 |  0.05
Modify  | 0.0042199  | 0.0042199  | 0.0042199  |   0.0 |  0.73
Other   |            | 0.00117    |            |       |  0.20

Nlocal:    217 ave 217 max 217 min
Histogram: 1 0 0 0 0 0 0 0 0 0
Nghost:    912 ave 912 max 912 min
Histogram: 1 0 0 0 0 0 0 0 0 0
Neighs:    3634 ave 3634 max 3634 min
Histogram: 1 0 0 0 0 0 0 0 0 0
FullNghs:  7268 ave 7268 max 7268 min
Histogram: 1 0 0 0 0 0 0 0 0 0

Total # of neighbors = 7268
Ave neighs/atom = 33.4931
Neighbor list builds = 63
Dangerous builds = 18
Total wall time: 0:00:00
