LAMMPS (3 Mar 2020)

    # ---------- Initialize simulation ---------------------
    units metal
    atom_style atomic
    dimension  3
    boundary   p p p
    read_data /home/modeler/RemLabs/Lab4/Problem2A_size_3/temp_1180/lammps.data
  orthogonal box = (0 0 0) to (12.27 12.27 12.27)
  1 by 1 by 1 MPI processor grid
  reading atoms ...
  108 atoms
  read_data CPU = 0.00089704 secs

    pair_style eam
    pair_coeff * * /usr/share/lammps-stable/potentials/Ag_u3.eam
Reading potential file /usr/share/lammps-stable/potentials/Ag_u3.eam with DATE: 2007-06-11

    velocity  all create 1180 87287 dist gaussian

    # ---------- Describe computed properties------------------
    compute msdall all msd
    thermo_style custom step pe ke etotal temp press density c_msdall[4]
    thermo 100

    # ---------- Specify ensemble  ---------------------
    #fix  1 all nve
    fix  1 all nvt temp 1180 1180 0.05

    # --------- Compute RDF ---------------
    compute rdfall all rdf 100 1 1
    fix 2 all ave/time 1 2500 2500 c_rdfall[*] file /home/modeler/RemLabs/Lab4/Problem2A_size_3/temp_1180/lammps.rdf mode vector

    # --------- Run -------------
    timestep 0.001
    run 10000
Neighbor list info ...
  update every 1 steps, delay 10 steps, check yes
  max neighbors/atom: 2000, page size: 100000
  master list distance cutoff = 7.55
  ghost atom cutoff = 7.55
  binsize = 3.775, bins = 4 4 4
  2 neighbor lists, perpetual/occasional/extra = 1 1 0
  (1) pair eam, perpetual
      attributes: half, newton on
      pair build: half/bin/atomonly/newton
      stencil: half/bin/3d/newton
      bin: standard
  (2) compute rdf, occasional, copy from (1)
      attributes: half, newton on
      pair build: copy
      stencil: none
      bin: none
Per MPI rank memory allocation (min/avg/max) = 3.723 | 3.723 | 3.723 Mbytes
Step PotEng KinEng TotEng Temp Press Density c_msdall[4] 
       0       -307.8    16.320386   -291.47961         1180    9436.5481    10.472245            0 
     100    -297.3708    9.9969457   -287.37385    722.80129    41114.401    10.472245   0.06414342 
     200   -294.19893    16.662445   -277.53649    1204.7316    56065.908    10.472245  0.074183937 
     300   -290.53798    20.103682    -270.4343    1453.5407    70481.417    10.472245  0.087132858 
     400   -291.43542     15.33504   -276.10038    1108.7573    64362.067    10.472245  0.093148226 
     500   -293.58208    18.209618   -275.37246    1316.5957    60453.988    10.472245  0.070037138 
     600   -292.41306    15.157372   -277.25569    1095.9115    60181.175    10.472245  0.084878451 
     700   -290.85807     17.06897    -273.7891    1234.1243    67979.292    10.472245   0.09253528 
     800   -292.11305    16.835951    -275.2771    1217.2765    62993.982    10.472245  0.080468233 
     900   -291.11309    14.367808   -276.74528    1038.8243    64573.931    10.472245  0.088600964 
    1000   -290.48735    16.582131   -273.90522    1198.9247    69488.784    10.472245  0.083278238 
    1100   -291.85041    16.305275   -275.54513    1178.9075    64856.098    10.472245  0.083002326 
    1200   -291.32796     15.90397   -275.42399    1149.8922    66189.542    10.472245  0.092162273 
    1300   -289.44667    17.606552   -271.84012    1272.9927    72512.956    10.472245  0.090298083 
    1400   -293.99838    16.912563   -277.08582    1222.8157    58041.154    10.472245  0.064547035 
    1500   -293.06561    17.009145   -276.05647    1229.7988    60388.524    10.472245   0.08211158 
    1600   -290.79943    17.490404   -273.30903    1264.5949     68079.86    10.472245   0.10193885 
    1700    -291.1611    17.503954   -273.65715    1265.5746    66498.163    10.472245  0.097151384 
    1800   -292.53827     16.56548   -275.97279    1197.7208    61845.314    10.472245  0.088864071 
    1900   -292.92843     13.64062   -279.28781    986.24698    58201.144    10.472245  0.080983787 
    2000   -292.70083    16.852198   -275.84864    1218.4512    61785.558    10.472245  0.064699279 
    2100   -291.74267    16.521904   -275.22076    1194.5702    64122.701    10.472245  0.086330524 
    2200   -289.09522    15.491847   -273.60337    1120.0948    71894.319    10.472245   0.11184617 
    2300   -291.33323    17.032183   -274.30105    1231.4645    66095.435    10.472245   0.08862173 
    2400    -291.0821    14.106934   -276.97517    1019.9625    64879.975    10.472245  0.077020035 
    2500   -292.63851    15.923425   -276.71509    1151.2989    60808.782    10.472245  0.086435267 
    2600   -291.13067      17.2253   -273.90537    1245.4273    66963.896    10.472245  0.097372158 
    2700   -291.29191    16.107171   -275.18474    1164.5841     65777.16    10.472245  0.086565478 
    2800   -292.38932    14.195201   -278.19412    1026.3444     60524.42    10.472245  0.090155314 
    2900    -289.2092    15.415182   -273.79402    1114.5517    72757.941    10.472245   0.10933055 
    3000   -292.26311    20.530395   -271.73271     1484.393    64776.871    10.472245  0.092287813 
    3100   -291.82639    16.255952   -275.57044    1175.3413    64348.119    10.472245  0.086754256 
    3200   -293.06905    17.183692   -275.88536     1242.419    59792.807    10.472245  0.080350237 
    3300   -292.68341    17.059318    -275.6241    1233.4264    61491.043    10.472245  0.079780031 
    3400   -290.82046    16.875112   -273.94535     1220.108    67906.982    10.472245  0.093444372 
    3500   -292.75098    16.072502   -276.67847    1162.0774    62110.897    10.472245  0.082734213 
    3600   -290.20568    16.717495   -273.48819    1208.7119    68826.084    10.472245  0.074469782 
    3700   -292.60337    15.036352   -277.56702    1087.1615    61521.264    10.472245  0.077187229 
    3800   -291.33918    15.453782    -275.8854    1117.3426    65581.129    10.472245  0.085143701 
    3900   -291.79369    16.276824   -275.51687    1176.8504    63228.838    10.472245  0.080659313 
    4000   -293.25731       17.392   -275.86531    1257.4801    61079.043    10.472245  0.076591942 
    4100   -292.19204    17.150765   -275.04128    1240.0383    62763.471    10.472245  0.080377238 
    4200    -290.7464    16.085177   -274.66122    1162.9939    68187.118    10.472245  0.090165493 
    4300   -292.51083    14.452097   -278.05873    1044.9186    61651.031    10.472245  0.079545782 
    4400   -292.79363    16.845285   -275.94835    1217.9513    60967.457    10.472245  0.081393559 
    4500   -290.94625     17.75242   -273.19382    1283.5393    67732.439    10.472245  0.099406493 
    4600   -293.43778     18.25683   -275.18095    1320.0092    60219.441    10.472245  0.084235936 
    4700   -293.96855    15.756883   -278.21166    1139.2575    56697.691    10.472245  0.073974443 
    4800   -290.16134    15.245996   -274.91535    1102.3192    67888.177    10.472245  0.097326366 
    4900   -291.31487    17.986629   -273.32824    1300.4731     67076.74    10.472245   0.10744636 
    5000   -290.89161    17.743931   -273.14768    1282.9255     67723.41    10.472245   0.10178263 
    5100   -292.44932    15.195613   -277.25371    1098.6764    62087.699    10.472245  0.086251919 
    5200   -292.87827    16.565294   -276.31297    1197.7074    62589.719    10.472245  0.069506926 
    5300   -292.12587    15.548608   -276.57726    1124.1988    62368.948    10.472245  0.085020576 
    5400   -290.27205    16.496522   -273.77552     1192.735    69202.201    10.472245  0.099928245 
    5500    -290.6571    18.596043   -272.06106     1344.535    70453.759    10.472245  0.086247392 
    5600   -291.77299    13.422496   -278.35049    970.47613    61723.955    10.472245  0.083462719 
    5700   -292.88371    18.117474   -274.76624    1309.9335    62213.398    10.472245  0.075423703 
    5800   -292.85315    18.092293   -274.76086    1308.1128    61322.235    10.472245   0.08571993 
    5900   -292.43653    15.511685   -276.92484    1121.5292    61622.852    10.472245  0.097531304 
    6000   -290.14437    16.232577   -273.91179    1173.6512    70109.897    10.472245  0.091011608 
    6100   -292.97102    17.767823    -275.2032    1284.6529    61553.909    10.472245  0.070947517 
    6200   -292.83174    15.473087   -277.35865    1118.7384    61439.897    10.472245  0.072446321 
    6300   -291.15149    16.640978   -274.51052    1203.1795    66639.811    10.472245  0.078956534 
    6400   -292.53141    18.189778   -274.34163    1315.1612    63570.702    10.472245  0.073838441 
    6500   -292.83118    16.478085    -276.3531     1191.402    61621.663    10.472245  0.071884693 
    6600   -291.36813    18.298732    -273.0694    1323.0388     67815.16    10.472245  0.078344262 
    6700   -288.63333    14.757057   -273.87627    1066.9679    74103.028    10.472245   0.10206446 
    6800    -293.5373    17.335591   -276.20171    1253.4016    60338.768    10.472245  0.075111199 
    6900   -293.47838    16.529135   -276.94925     1195.093    58519.742    10.472245  0.074061483 
    7000   -291.37148    16.738072   -274.63341    1210.1996    65685.011    10.472245  0.084159799 
    7100   -290.56795     18.37422   -272.19373    1328.4967    69699.613    10.472245  0.086743714 
    7200   -291.45228    15.695969   -275.75631    1134.8533    63956.115    10.472245   0.10280435 
    7300   -291.04556    16.977446   -274.06811    1227.5069    67513.799    10.472245   0.10245946 
    7400   -290.20482    20.596751   -269.60807    1489.1907    70591.373    10.472245  0.089814009 
    7500   -292.48866    18.480234   -274.00843    1336.1618    62932.167    10.472245  0.077056154 
    7600   -293.31953    16.947326    -276.3722    1225.3291    59368.551    10.472245  0.072264474 
    7700   -291.42213    16.344235   -275.07789    1181.7243    66240.479    10.472245  0.078595323 
    7800   -290.09711    17.311179   -272.78593    1251.6366     69656.83    10.472245  0.092668624 
    7900   -293.05264    15.888835   -277.16381    1148.7979    59384.665    10.472245  0.079036374 
    8000   -293.20305    17.136833   -276.06621    1239.0309    60851.553    10.472245  0.070070269 
    8100   -287.60421    17.925391   -269.67882    1296.0454    79839.425    10.472245   0.10262046 
    8200   -290.41687    16.984588   -273.43229    1228.0232    68961.312    10.472245  0.091657509 
    8300    -292.6446    16.585135   -276.05946     1199.142    61313.324    10.472245  0.074564595 
    8400   -294.64677     16.30724   -278.33953    1179.0495    55313.555    10.472245  0.068279292 
    8500   -292.96496    17.658068    -275.3069    1276.7174    59960.404    10.472245  0.083245479 
    8600   -290.36517    17.364696   -273.00048    1255.5059    69758.847    10.472245  0.095905726 
    8700   -291.85875    17.911153    -273.9476     1295.016    64325.115    10.472245  0.080929834 
    8800   -293.94701    16.513625   -277.43339    1193.9716    57315.707    10.472245   0.07767083 
    8900   -291.79226    17.068342   -274.72392    1234.0789    64204.985    10.472245  0.089202376 
    9000   -291.14486    17.517517   -273.62734    1266.5552    67472.171    10.472245  0.094795142 
    9100    -291.9188     15.75391   -276.16489    1139.0425    63092.264    10.472245  0.087987999 
    9200   -294.40577    14.798865    -279.6069    1069.9907    54000.322    10.472245  0.067048702 
    9300   -291.52625    15.585595   -275.94066     1126.873    65466.481    10.472245  0.083861174 
    9400   -289.52574    16.493903   -273.03183    1192.5456    72001.159    10.472245  0.098955698 
    9500   -291.16681    15.346304   -275.82051    1109.5717    65937.273    10.472245  0.087069323 
    9600   -291.76498    16.233669   -275.53131    1173.7302    64310.268    10.472245  0.082303158 
    9700   -290.53005    14.756395   -275.77365      1066.92    68226.582    10.472245  0.091312894 
    9800   -290.98353    17.161931    -273.8216    1240.8456    66328.229    10.472245  0.098451804 
    9900   -289.57984    17.656986   -271.92285    1276.6391    71435.078    10.472245  0.092179977 
   10000   -292.52532    16.229604   -276.29572    1173.4363    61871.768    10.472245  0.073807206 
Loop time of 2.09955 on 1 procs for 10000 steps with 108 atoms

Performance: 411.516 ns/day, 0.058 hours/ns, 4762.917 timesteps/s
100.0% CPU use with 1 MPI tasks x no OpenMP threads

MPI task timing breakdown:
Section |  min time  |  avg time  |  max time  |%varavg| %total
---------------------------------------------------------------
Pair    | 1.3937     | 1.3937     | 1.3937     |   0.0 | 66.38
Neigh   | 0          | 0          | 0          |   0.0 |  0.00
Comm    | 0.041548   | 0.041548   | 0.041548   |   0.0 |  1.98
Output  | 0.0016387  | 0.0016387  | 0.0016387  |   0.0 |  0.08
Modify  | 0.65312    | 0.65312    | 0.65312    |   0.0 | 31.11
Other   |            | 0.009545   |            |       |  0.45

Nlocal:    108 ave 108 max 108 min
Histogram: 1 0 0 0 0 0 0 0 0 0
Nghost:    990 ave 990 max 990 min
Histogram: 1 0 0 0 0 0 0 0 0 0
Neighs:    4644 ave 4644 max 4644 min
Histogram: 1 0 0 0 0 0 0 0 0 0

Total # of neighbors = 4644
Ave neighs/atom = 43
Neighbor list builds = 0
Dangerous builds = 0
    
Total wall time: 0:00:02
