LAMMPS (3 Mar 2020)
Reading data file ...
  orthogonal box = (0 0 0) to (16.36 16.36 16.36)
  1 by 1 by 1 MPI processor grid
  reading atoms ...
  256 atoms
  read_data CPU = 0.00098823 secs
Reading potential file /usr/share/lammps-stable/potentials/Ag_u3.eam with DATE: 2007-06-11
Neighbor list info ...
  update every 1 steps, delay 10 steps, check yes
  max neighbors/atom: 2000, page size: 100000
  master list distance cutoff = 7.55
  ghost atom cutoff = 7.55
  binsize = 3.775, bins = 5 5 5
  2 neighbor lists, perpetual/occasional/extra = 1 1 0
  (1) pair eam, perpetual
      attributes: half, newton on
      pair build: half/bin/atomonly/newton
      stencil: half/bin/3d/newton
      bin: standard
  (2) compute rdf, occasional, copy from (1)
      attributes: half, newton on
      pair build: copy
      stencil: none
      bin: none
Setting up Verlet run ...
  Unit style    : metal
  Current step  : 0
  Time step     : 0.005
Per MPI rank memory allocation (min/avg/max) = 3.744 | 3.744 | 3.744 Mbytes
Step PotEng KinEng TotEng Temp Press Density c_msdall[4] 
       0       -729.6    59.330407   -670.26959         1800    14472.541    10.472245            0 
     100   -690.68523     39.33425   -651.35098    1193.3451    64958.919    10.472245  0.087161157 
     200   -676.72964    54.802285   -621.92736    1662.6232    88430.653    10.472245   0.14181368 
     300   -666.08299    65.086555   -600.99643    1974.6333    105717.62    10.472245   0.16933001 
     400   -671.68183    62.046435   -609.63539    1882.4004    95488.381    10.472245   0.15565546 
     500   -673.97212    56.743342   -617.22878    1721.5122    92111.593    10.472245   0.15185069 
     600   -668.04196    61.321112   -606.72084    1860.3952    102851.07    10.472245    0.1496479 
     700    -667.2565    58.955946   -608.30056    1788.6394    101875.14    10.472245   0.14942085 
     800   -673.81938    58.183605   -615.63577    1765.2077      93234.4    10.472245   0.14204424 
     900   -667.18183    58.619268   -608.56257    1778.4251    101867.96    10.472245   0.15633932 
    1000   -666.57272    57.491426   -609.08129    1744.2079    101991.62    10.472245   0.16182315 
    1100   -677.74386    62.033153   -615.71071    1881.9975    88549.678    10.472245   0.12900311 
    1200   -671.72643    61.171725   -610.55471     1855.863     96907.16    10.472245   0.14830079 
    1300    -669.5618    60.392404    -609.1694    1832.2195    100042.32    10.472245   0.15657355 
    1400   -676.53746    57.644588   -618.89288    1748.8547    88835.251    10.472245   0.12925253 
    1500   -671.43158    60.559609   -610.87197    1837.2923    96671.279    10.472245   0.17013818 
    1600    -668.7029    60.074453   -608.62845    1822.5733    98995.407    10.472245    0.1484325 
    1700    -672.8936    54.967357   -617.92624    1667.6313    94817.105    10.472245   0.13577418 
    1800   -674.76776     57.65221   -617.11555    1749.0859     92145.22    10.472245   0.14354806 
    1900   -668.89289    61.756919   -607.13597    1873.6169    101205.37    10.472245   0.14309154 
    2000   -671.97412    62.010541   -609.96358    1881.3115    97779.426    10.472245    0.1383446 
    2100   -672.52345     56.13584   -616.38761    1703.0814    95043.538    10.472245   0.14870798 
    2200   -666.75177    61.949801   -604.80197    1879.4687    104014.89    10.472245   0.17508938 
    2300   -671.75559    59.770402   -611.98519    1813.3488    96257.486    10.472245   0.17807735 
    2400   -670.03208    60.868328   -609.16375    1846.6583    98388.862    10.472245   0.17683387 
    2500   -671.32097    66.251664   -605.06931    2009.9811     98528.72    10.472245   0.14775155 
    2600   -673.70023    62.228464   -611.47177    1887.9229    93626.171    10.472245   0.15175606 
    2700   -670.55044    62.694841    -607.8556    1902.0722    97547.014    10.472245   0.15375517 
    2800   -661.73201    63.579526   -598.15249    1928.9122    109982.56    10.472245   0.17839304 
    2900   -671.31278    63.470936   -607.84185    1925.6178    97206.137    10.472245   0.16717411 
    3000   -674.15372    59.729681   -614.42404    1812.1134    92103.543    10.472245    0.1648884 
    3100   -667.51412    63.198285   -604.31583    1917.3459    101233.39    10.472245   0.16628534 
    3200   -668.20817     60.91642   -607.29175    1848.1174    100922.35    10.472245   0.17218322 
    3300   -674.17628    63.482788   -610.69349    1925.9773    94372.318    10.472245   0.13908944 
    3400   -669.77327    59.042713   -610.73056    1791.2718    98189.851    10.472245   0.14671848 
    3500   -668.90478    62.234935   -606.66984    1888.1193    101526.69    10.472245    0.1616431 
    3600   -665.09267    54.479086   -610.61358    1652.8178    103928.18    10.472245    0.1714395 
    3700   -672.76308    56.614828   -616.14825    1717.6132    94804.823    10.472245   0.13288166 
    3800   -668.78574    64.706561   -604.07918    1963.1049    101670.91    10.472245   0.14521461 
    3900   -667.75232    55.491682   -612.26064    1683.5386    100520.24    10.472245   0.15745071 
    4000    -674.4495    61.915183   -612.53431    1878.4184     92364.13    10.472245   0.16848855 
    4100   -666.83732    61.969637   -604.86768    1880.0705    102773.33    10.472245   0.16518054 
    4200    -671.1709    57.521983   -613.64892     1745.135    98200.834    10.472245   0.15920112 
    4300   -670.62124    62.632358   -607.98888    1900.1765    99243.553    10.472245   0.13524904 
    4400    -663.6088    60.276106   -603.33269    1828.6912    108248.13    10.472245   0.18187241 
    4500    -670.4234    59.623426   -610.79997    1808.8898    98842.716    10.472245   0.16863971 
    4600   -665.40343    56.439639   -608.96379    1712.2982    104676.56    10.472245   0.20226591 
    4700    -665.8208    63.108166   -602.71263    1914.6118    103607.97    10.472245   0.20331813 
    4800   -676.44454     61.53988   -614.90466    1867.0323     90478.47    10.472245     0.128206 
    4900   -669.68149    59.671014   -610.01047    1810.3335    98942.717    10.472245   0.15579766 
    5000   -666.27504    62.544675   -603.73036    1897.5163    105396.56    10.472245   0.15405654 
    5100   -671.48631    61.489041   -609.99727    1865.4899    97418.227    10.472245   0.14168053 
    5200    -673.7098    59.629156   -614.08064    1809.0636    94887.268    10.472245   0.13138445 
    5300   -664.36159    60.624317   -603.73727    1839.2554    105739.97    10.472245   0.17713823 
    5400   -669.16121    59.002871   -610.15834     1790.063    99043.715    10.472245   0.17814683 
    5500   -670.38788    58.247573   -612.14031    1767.1484    98111.911    10.472245   0.15954247 
    5600   -669.46255    63.771404   -605.69115    1934.7336     99372.79    10.472245   0.15124989 
    5700    -665.2858    61.518477   -603.76732     1866.383    104193.94    10.472245   0.16869778 
    5800   -667.07043    56.197782   -610.87265    1704.9606    102022.13    10.472245   0.16399486 
    5900   -668.22419    57.117506   -611.10668    1732.8638    99709.811    10.472245   0.17858643 
    6000   -661.92074    57.633288   -604.28745    1748.5118    108647.54    10.472245   0.22657956 
    6100   -670.39118    59.075289   -611.31589    1792.2601    98515.672    10.472245   0.17129068 
    6200   -674.73129    62.558945   -612.17235    1897.9493    92434.628    10.472245   0.15142606 
    6300   -667.32059    66.768314   -600.55228    2025.6555     104612.2    10.472245   0.17043713 
    6400   -669.62808    58.487593   -611.14049    1774.4302    99496.123    10.472245   0.15988238 
    6500   -671.86421      59.4876   -612.37661     1804.769    96598.679    10.472245   0.15294664 
    6600   -667.54352    59.423992   -608.11953    1802.8392    103045.22    10.472245   0.15710036 
    6700   -665.65945    58.495869   -607.16358    1774.6813    104999.81    10.472245   0.17382846 
    6800   -674.25707    58.522038   -615.73503    1775.4753    92739.058    10.472245   0.14091834 
    6900   -669.70615    62.070894   -607.63526    1883.1425    99184.411    10.472245   0.14198998 
    7000   -670.02952    61.766009   -608.26351    1873.8927    99560.394    10.472245   0.13920829 
    7100   -671.28354    56.566756   -614.71678    1716.1548    95673.105    10.472245    0.1494087 
    7200   -670.10107    59.993194   -610.10788     1820.108    99406.117    10.472245   0.15761496 
    7300   -661.88283    50.852604   -611.03022    1542.7956    106598.97    10.472245   0.19268014 
    7400     -667.982    59.431352   -608.55065    1803.0625    102673.86    10.472245    0.1605181 
    7500   -669.57824    63.545755   -606.03248    1927.8877    100812.02    10.472245   0.15182998 
    7600   -668.25329    52.396672   -615.85662    1589.6404    100141.08    10.472245   0.14842688 
    7700   -669.42094    60.678986   -608.74196     1840.914    101378.84    10.472245   0.14002791 
    7800   -668.63487    62.809395   -605.82548    1905.5476    101283.37    10.472245   0.15498118 
    7900   -676.07865    59.574941   -616.50371    1807.4188    91321.251    10.472245   0.12726642 
    8000   -668.18395     58.88794   -609.29601    1786.5762    100014.32    10.472245   0.14841674 
    8100   -666.05137    56.847642   -609.20373    1724.6765    103338.03    10.472245   0.15695462 
    8200   -672.70832    54.340385   -618.36793    1648.6099    93564.653    10.472245   0.15342592 
    8300   -673.78423    63.033006   -610.75123    1912.3316    94549.293    10.472245   0.15722812 
    8400   -666.92124    58.290284   -608.63095    1768.4442    102863.61    10.472245   0.15602198 
    8500   -675.05807    55.696305   -619.36176    1689.7465     92154.95    10.472245   0.12741167 
    8600   -670.03725    57.540693   -612.49656    1745.7026      98728.4    10.472245   0.14370759 
    8700   -668.33185    58.668021   -609.66383    1779.9042    99574.099    10.472245   0.16280391 
    8800   -673.71714    61.784404   -611.93274    1874.4508    93815.888    10.472245   0.15461451 
    8900   -672.75602    55.247757   -617.50827    1676.1382      93800.5    10.472245   0.15322264 
    9000   -669.59409    61.817597   -607.77649    1875.4578    100029.13    10.472245   0.16751894 
    9100   -669.69195    58.392675   -611.29927    1771.5506     98634.78    10.472245   0.14038537 
    9200   -676.81684    57.483673   -619.33317    1743.9727    89244.413    10.472245   0.14223196 
    9300   -669.39774    62.236136    -607.1616    1888.1557    98911.679    10.472245   0.17648285 
    9400     -673.511    62.153152   -611.35785    1885.6381    94303.009    10.472245   0.17364778 
    9500   -667.84786    52.246523   -615.60133    1585.0851     98733.42    10.472245   0.17556267 
    9600   -669.69738    63.959661   -605.73772     1940.445    100421.78    10.472245   0.18534587 
    9700   -672.24979    57.947984    -614.3018    1758.0593    94493.051    10.472245   0.16872498 
    9800   -669.57759    57.673011   -611.90458     1749.717    99204.943    10.472245   0.15834785 
    9900   -672.43012    63.332576   -609.09754    1921.4201    96667.524    10.472245    0.1468838 
   10000   -676.26982    60.729386   -615.54044     1842.443    91708.416    10.472245   0.12933725 
   10100    -670.9423    54.887422   -616.05487    1665.2062    96329.732    10.472245   0.16173563 
   10200   -664.63924     56.85872   -607.78052    1725.0126    105151.12    10.472245   0.17695645 
   10300   -671.98156    58.720425   -613.26113     1781.494    95544.218    10.472245   0.13802019 
   10400   -673.78769    57.316026   -616.47166    1738.8866    92798.678    10.472245   0.13666553 
   10500   -670.08046    58.621773   -611.45869    1778.5011    97859.389    10.472245   0.14726678 
   10600   -671.90031    63.540205    -608.3601    1927.7193    98075.817    10.472245   0.15753803 
   10700   -663.11956    57.557121   -605.56244    1746.2011    107158.72    10.472245   0.17128227 
   10800   -670.89117    55.883028   -615.00814    1695.4114     96963.79    10.472245   0.13883011 
   10900   -668.70995    60.730704   -607.97925     1842.483    100044.33    10.472245   0.14013386 
   11000   -665.64922    59.664349   -605.98487    1810.1313    106095.73    10.472245   0.16089492 
   11100   -673.95213    57.963046   -615.98908    1758.5162    92376.746    10.472245   0.12912989 
   11200   -668.22514     61.75864    -606.4665    1873.6691    101865.47    10.472245   0.16214199 
   11300   -669.34253    58.248948   -611.09358    1767.1901    100336.59    10.472245   0.15601532 
   11400   -674.18144    58.971511   -615.20993    1789.1116    94266.029    10.472245   0.15073481 
   11500   -666.78335     59.18143   -607.60192    1795.4803    102491.46    10.472245   0.16666694 
   11600   -668.63477    56.739295   -611.89547    1721.3894      98673.7    10.472245   0.18560002 
   11700   -675.96019    57.236915   -618.72328    1736.4864    89777.263    10.472245   0.13953835 
   11800   -669.99464    59.284633   -610.71001    1798.6113    97222.883    10.472245   0.14568401 
   11900   -662.58225    56.772456   -605.80979    1722.3954    107123.39    10.472245   0.19087331 
   12000   -665.10672    61.731611   -603.37511    1872.8491    106474.54    10.472245   0.16356824 
   12100   -672.38722    58.014708   -614.37252    1760.0836    95499.908    10.472245   0.14000759 
   12200   -667.77277    58.231923   -609.54085    1766.6736    101374.11    10.472245   0.14684732 
   12300   -668.07407    64.543285   -603.53078    1958.1513    103455.41    10.472245   0.15108048 
   12400   -668.76555    58.218121   -610.54743    1766.2548    100803.05    10.472245   0.14957926 
   12500   -672.49919    61.225021   -611.27417    1857.4799    96155.603    10.472245   0.12921647 
   12600   -668.18333    63.318969   -604.86437    1921.0073    102263.48    10.472245   0.14211033 
   12700   -671.30614    58.730515   -612.57563    1781.8002        98122    10.472245   0.13904918 
   12800   -670.24748     56.19851   -614.04898    1704.9827    97311.138    10.472245   0.15022734 
   12900   -668.73345    61.165323   -607.56813    1855.6687    101150.78    10.472245   0.17222289 
   13000   -669.57134    59.775716   -609.79562    1813.5101    99717.805    10.472245   0.16581094 
   13100   -669.92829    51.182946   -618.74534    1552.8176    97678.622    10.472245   0.16079775 
   13200   -671.23273    58.382212   -612.85052    1771.2331    95987.884    10.472245   0.14806503 
   13300   -666.48935     57.18742   -609.30193    1734.9848    101908.53    10.472245   0.17861785 
   13400   -670.65715    61.127297   -609.52986    1854.5151    97996.071    10.472245   0.15228322 
   13500   -673.24546    56.590863    -616.6546    1716.8861    92609.162    10.472245   0.14419554 
   13600   -667.03876    60.407416   -606.63134    1832.6749    103512.08    10.472245   0.15769635 
   13700   -668.08637    57.234907   -610.85146    1736.4255    100467.01    10.472245    0.1773478 
   13800   -671.75903    54.877558   -616.88148    1664.9069    94585.098    10.472245   0.14363212 
   13900   -672.39428    54.952013   -617.44226    1667.1658    94596.639    10.472245   0.12969969 
   14000   -668.21999    59.728451   -608.49153    1812.0761    100851.42    10.472245   0.16913995 
   14100   -668.73614    58.633703   -610.10244     1778.863    100552.88    10.472245   0.15646234 
   14200    -672.5545    55.192035   -617.36246    1674.4477    94231.722    10.472245   0.14289401 
   14300   -670.79787    61.176276   -609.62159     1856.001    98259.113    10.472245   0.14093827 
   14400   -670.30641    59.224406     -611.082    1796.7841    98119.993    10.472245   0.14826888 
   14500   -671.26611    54.024242   -617.24187    1639.0185    95296.859    10.472245   0.14450792 
   14600   -667.56334    57.609573   -609.95377    1747.7924    101240.51    10.472245   0.15561265 
   14700   -672.09963    62.863629   -609.23601    1907.1929    98054.312    10.472245   0.18147196 
   14800   -669.79601    55.751363   -614.04465    1691.4169     97364.91    10.472245   0.15738542 
   14900   -675.26012    58.770574   -616.48955    1783.0155    91031.286    10.472245    0.1415718 
   15000   -670.85602    63.850658   -607.00536     1937.138    98819.397    10.472245   0.18338143 
   15100   -669.16271    57.397266   -611.76544    1741.3513    98877.018    10.472245   0.14523512 
   15200   -672.24114    55.733849   -616.50729    1690.8856    94453.358    10.472245   0.15644191 
   15300   -667.20013    55.971481   -611.22865     1698.095    101272.39    10.472245   0.15351508 
   15400   -667.83004    62.083703   -605.74634    1883.5311    102026.12    10.472245   0.15301963 
   15500   -670.11411    59.638568   -610.47554    1809.3492    99367.672    10.472245   0.15723014 
   15600   -670.48329    55.613902   -614.86939    1687.2465     97381.91    10.472245   0.18793659 
   15700    -668.0459    59.221657   -608.82424    1796.7007    100764.82    10.472245   0.15007425 
   15800   -668.33631    55.205632   -613.13067    1674.8602    99682.307    10.472245   0.16311882 
   15900   -675.09204    52.761171   -622.33087    1600.6988    91118.233    10.472245   0.13628807 
   16000   -671.59391    59.938423   -611.65548    1818.4463    96555.499    10.472245   0.15272227 
   16100   -670.99948    62.459177    -608.5403    1894.9224    97586.466    10.472245    0.1693786 
   16200   -671.03579    56.416863   -614.61893    1711.6072    97330.669    10.472245   0.15278936 
   16300   -671.57323     58.45623     -613.117    1773.4787    97862.429    10.472245   0.16634867 
   16400   -670.34596     62.84939   -607.49657    1906.7609    99403.093    10.472245   0.16341791 
   16500   -667.69535    54.082485   -613.61286    1640.7855     101210.8    10.472245   0.17931615 
   16600   -668.88013    65.315242   -603.56489    1981.5714    101162.95    10.472245   0.15960547 
   16700   -668.43634    59.187251   -609.24909    1795.6569    100726.29    10.472245   0.16261603 
   16800   -670.41139    57.902476   -612.50892    1756.6786    96167.035    10.472245   0.17178576 
   16900   -665.80513    61.498604   -604.30652      1865.78    103698.51    10.472245   0.17727084 
   17000    -670.8572    69.856531   -601.00067    2119.3476    100094.67    10.472245    0.1646923 
   17100   -674.41784    61.329226   -613.08862    1860.6413    93669.804    10.472245   0.13792735 
   17200   -670.49379    60.957598   -609.53619    1849.3667     98404.58    10.472245   0.15667317 
   17300   -666.49308    62.060587   -604.43249    1882.8298    104293.49    10.472245   0.17926924 
   17400   -665.82251    57.021004   -608.80151     1729.936     104921.2    10.472245   0.17472987 
   17500   -671.41503    57.291211   -614.12382    1738.1337    96802.272    10.472245   0.15812721 
   17600    -672.2012    59.345936   -612.85527    1800.4711    96984.958    10.472245   0.15145104 
   17700   -670.06839    64.986372   -605.08202    1971.5939    101954.66    10.472245   0.15214709 
   17800   -671.09518    56.389434   -614.70575    1710.7751    97733.716    10.472245   0.13974338 
   17900   -667.31277    54.133272    -613.1795    1642.3263    100459.54    10.472245   0.15883981 
   18000   -670.25704    63.071288   -607.18575     1913.493    100322.83    10.472245   0.13793545 
   18100   -663.31844    62.125633   -601.19281    1884.8032    108017.55    10.472245   0.16699237 
   18200   -670.58967    57.513224   -613.07645    1744.8693    96851.966    10.472245   0.14901531 
   18300   -671.33658    60.492388   -610.84419    1835.2529    96534.667    10.472245   0.14536956 
   18400   -661.60924    59.031175   -602.57806    1790.9218    109254.07    10.472245   0.18138577 
   18500   -671.84621    63.235041   -608.61117    1918.4611    97036.285    10.472245   0.17112584 
   18600   -669.75636    55.945641   -613.81072     1697.311    98105.911    10.472245   0.15595025 
   18700   -677.11891    58.492603   -618.62631    1774.5822     88990.07    10.472245   0.13560339 
   18800   -664.69681    57.725239   -606.97157    1751.3015    104856.62    10.472245    0.1788774 
   18900   -671.60089    59.894885     -611.706    1817.1255    96285.994    10.472245   0.14666568 
   19000   -672.83334    58.593327   -614.24001    1777.6381    94511.003    10.472245   0.13232152 
   19100   -671.39452    60.831256   -610.56326    1845.5336    96279.352    10.472245   0.15397605 
   19200    -663.5786    63.318039   -600.26056    1920.9791    107630.23    10.472245   0.16930495 
   19300   -671.28016    61.426104   -609.85405    1863.5805    97808.526    10.472245   0.12949416 
   19400   -670.79417    56.477936   -614.31623    1713.4601      95792.2    10.472245    0.1395078 
   19500   -667.28673    61.913248   -605.37349    1878.3597    103264.21    10.472245   0.15514554 
   19600   -672.82205    61.259574   -611.56248    1858.5282    94869.025    10.472245   0.14643999 
   19700   -668.96464    55.631955   -613.33269    1687.7942    99145.565    10.472245   0.14777327 
   19800   -668.48398    63.153561   -605.33042    1915.9891    102507.16    10.472245    0.1431028 
   19900   -672.02215    56.317618   -615.70453    1708.5963    95115.044    10.472245   0.14873444 
   20000   -670.54235    59.071457   -611.47089    1792.1438    97038.115    10.472245   0.15802614 
   20100   -668.47674    59.610887   -608.86585    1808.5094    99921.436    10.472245   0.17923965 
   20200   -669.93189     55.86482   -614.06707    1694.8591    97616.578    10.472245   0.18453265 
   20300   -672.28138    56.712514   -615.56886    1720.5769    94353.595    10.472245   0.14451751 
   20400   -669.53837    62.052131   -607.48624    1882.5733    99213.656    10.472245   0.17087314 
   20500   -667.31223    55.377961   -611.93427    1680.0884    101002.56    10.472245   0.17592629 
   20600   -675.40321    54.638908    -620.7643    1657.6666    90593.622    10.472245     0.143436 
   20700   -672.54282    64.000408   -608.54241    1941.6812    96674.499    10.472245   0.14098009 
   20800   -668.59478    58.529626   -610.06516    1775.7055     99583.26    10.472245   0.17344958 
   20900   -675.62068    61.812029   -613.80865    1875.2889    91400.478    10.472245   0.14033827 
   21000    -669.4369    60.388298    -609.0486    1832.0949    99210.705    10.472245    0.1514751 
   21100   -668.30192    62.379278   -605.92264    1892.4984    100909.13    10.472245   0.14380044 
   21200    -673.4774    57.723405   -615.75399    1751.2459    93806.636    10.472245   0.15960473 
   21300   -671.95443    64.687182   -607.26725    1962.5169    97113.684    10.472245   0.16231084 
   21400   -668.26792     60.05861   -608.20931    1822.0927    100286.66    10.472245   0.15819513 
   21500   -673.36119    57.416113   -615.94508    1741.9231    94219.795    10.472245   0.14054971 
   21600   -680.03121    56.857964   -623.17324    1724.9896    84237.862    10.472245   0.12723516 
   21700   -665.27164    55.292634     -609.979    1677.4997    103328.72    10.472245   0.18256879 
   21800      -668.46    64.901281   -603.55871    1969.0124     102495.7    10.472245   0.17425912 
   21900   -675.05051    61.302791   -613.74772    1859.8393    93259.068    10.472245   0.12611831 
   22000   -669.91497    58.041351   -611.87362    1760.8919    98872.177    10.472245   0.14777905 
   22100   -667.90377    62.749249   -605.15452    1903.7228    103890.67    10.472245   0.16062697 
   22200    -667.3407    65.525403   -601.81529    1987.9474    104045.14    10.472245   0.15131497 
   22300   -672.93532    59.933649   -613.00167    1818.3015    95154.827    10.472245   0.14532548 
   22400   -667.93808    56.827084     -611.111    1724.0528    101380.15    10.472245    0.1555822 
   22500   -664.70514    61.399435    -603.3057    1862.7714    105195.25    10.472245   0.16560576 
   22600   -669.99406    60.136637   -609.85743    1824.4599    99169.095    10.472245   0.14518348 
   22700    -671.6684    59.065632   -612.60276    1791.9671    97160.962    10.472245   0.14829652 
   22800   -666.54831    63.822951   -602.72536    1936.2974    103075.42    10.472245   0.16618945 
   22900    -669.5497    57.957947   -611.59175    1758.3615    98097.836    10.472245   0.16839939 
   23000   -672.12748    59.725521   -612.40196    1811.9872    96365.783    10.472245   0.13690713 
   23100    -663.8039    60.127935   -603.67597    1824.1959    107123.15    10.472245   0.16239207 
   23200   -669.72193    64.085052   -605.63688    1944.2492      99745.5    10.472245   0.14870468 
   23300     -673.323    62.523639   -610.79936    1896.8781    94812.438    10.472245   0.13616945 
   23400   -668.93792     56.89846   -612.03946    1726.2182    98821.797    10.472245   0.15762373 
   23500   -673.11741    61.115819   -612.00159    1854.1669    94091.307    10.472245   0.16691298 
   23600   -668.73007    64.544254   -604.18581    1958.1807    102123.05    10.472245   0.15255544 
   23700   -668.87917    53.622145   -615.25702    1626.8195    99571.266    10.472245   0.14632568 
   23800   -666.34931    54.829934   -611.51937    1663.4621    103067.45    10.472245    0.1813159 
   23900   -668.21908       61.657   -606.56208    1870.5855    101649.57    10.472245   0.15838424 
   24000   -670.29868    59.318342   -610.98034     1799.634    98193.121    10.472245   0.15229222 
   24100   -673.12909     61.34514   -611.78395    1861.1241    94429.407    10.472245   0.13258805 
   24200   -677.54821    59.766366   -617.78185    1813.2264    89649.199    10.472245   0.13097175 
   24300   -666.99602    58.695129   -608.30089    1780.7266    102225.59    10.472245   0.17344365 
   24400   -671.61949     62.02876   -609.59073    1881.8642    96838.971    10.472245   0.15844297 
   24500   -672.44965    53.864684   -618.58496    1634.1778    93541.777    10.472245   0.16232854 
   24600   -674.54759    63.020791    -611.5268     1911.961    94672.449    10.472245   0.14226488 
   24700   -670.52815    61.849298   -608.67886    1876.4196    98370.325    10.472245   0.15539456 
   24800   -666.85177    64.241883   -602.60989    1949.0072     105133.7    10.472245   0.16424353 
   24900   -669.31338    56.745088    -612.5683    1721.5651    100038.49    10.472245   0.13841798 
   25000   -673.67228    61.392905   -612.27938    1862.5733    94122.419    10.472245    0.1318541 
   25100    -666.0659    64.990426   -601.07548    1971.7169    105209.52    10.472245   0.14350764 
   25200   -666.13641    61.192214   -604.94419    1856.4846    104186.23    10.472245   0.15044062 
   25300   -670.63373    56.654813   -613.97891    1718.8263    96590.028    10.472245   0.16442391 
   25400   -670.55244    62.634486   -607.91795    1900.2411    98651.029    10.472245   0.16971442 
   25500   -669.89543    65.816645   -604.07878    1996.7832     100082.2    10.472245   0.17146226 
   25600    -669.6282    53.444303   -616.18389     1621.424     97812.19    10.472245   0.14956942 
   25700   -668.53085    60.484154    -608.0467    1835.0031    100994.63    10.472245   0.16242997 
   25800   -666.67563    58.061304   -608.61432    1761.4972    102350.16    10.472245   0.16123117 
   25900   -668.56257    57.707271   -610.85529    1750.7564    100494.29    10.472245   0.15155854 
   26000   -669.63222    58.522158   -611.11006    1775.4789     100242.8    10.472245   0.14540336 
   26100   -668.35155    60.280114   -608.07144    1828.8128    100118.77    10.472245   0.16540212 
   26200   -665.35125    56.585674   -608.76558    1716.7287     104577.5    10.472245   0.18106534 
   26300   -672.05108    54.950559   -617.10052    1667.1217    95969.454    10.472245   0.14207508 
   26400   -662.60186     57.27748   -605.32438    1737.7171    108482.89    10.472245   0.18504046 
   26500    -669.2025    58.073379   -611.12912    1761.8636    98460.037    10.472245    0.1701699 
   26600   -669.08057    56.264588   -612.81598    1706.9874    97990.346    10.472245   0.15692215 
   26700   -665.61555    65.962422   -599.65313    2001.2059    106001.83    10.472245   0.20821151 
   26800    -674.0609    64.782336   -609.27857    1965.4038    93757.642    10.472245   0.15676808 
   26900   -667.65328    56.859553   -610.79373    1725.0378    101461.85    10.472245   0.15258372 
   27000    -671.3735    60.714317   -610.65918    1841.9859    97241.795    10.472245   0.15100197 
   27100   -664.41867    57.300673     -607.118    1738.4208    104219.59    10.472245    0.1626137 
   27200   -673.30104    60.014618   -613.28643     1820.758    94038.788    10.472245   0.12856202 
   27300   -673.79914    58.664978   -615.13417    1779.8119    93334.603    10.472245   0.13783641 
   27400   -667.29801    58.092826   -609.20518    1762.4536    100882.36    10.472245   0.15849249 
   27500   -669.58033    55.400141   -614.18019    1680.7613    98365.972    10.472245   0.16564354 
   27600   -669.47098    61.647151   -607.82383    1870.2867    101362.51    10.472245   0.15019874 
   27700   -671.07423    63.159807   -607.91442    1916.1786    98115.442    10.472245   0.13510492 
   27800   -669.52502    56.764086   -612.76093    1722.1415    97934.033    10.472245    0.1424428 
   27900   -667.96117     60.79757    -607.1636    1844.5116    102308.99    10.472245   0.15598088 
   28000   -670.17483    69.166388   -601.00844    2098.4097     101865.1    10.472245   0.14413698 
   28100   -668.48988    56.075178    -612.4147     1701.241     100359.9    10.472245   0.15562241 
   28200   -675.09659     64.41124   -610.68535    1954.1453    92807.805    10.472245   0.13697369 
   28300   -667.65883    64.561214   -603.09762    1958.6952    104014.43    10.472245   0.17537713 
   28400   -677.76991    61.565376   -616.20454    1867.8058    88757.171    10.472245   0.13935751 
   28500   -666.19185    58.564708   -607.62714    1776.7698    104189.82    10.472245   0.15352148 
   28600   -669.79791    60.184676   -609.61323    1825.9173    99362.438    10.472245    0.1654571 
   28700   -675.71184    55.880753   -619.83109    1695.3424    89980.428    10.472245   0.15680714 
   28800   -673.09904    59.540846   -613.55819    1806.3844    94350.193    10.472245    0.1684448 
   28900   -667.96471    62.075762   -605.88895    1883.2902    102724.71    10.472245   0.15227983 
   29000   -670.19636     54.47974   -615.71662    1652.8377    97184.749    10.472245   0.16694104 
   29100   -672.86814    60.237286   -612.63085    1827.5134    94913.339    10.472245    0.1280581 
   29200     -662.733    56.411957   -606.32104    1711.4584    107158.08    10.472245   0.17819274 
   29300   -666.61407    62.630402   -603.98367    1900.1171     104194.5    10.472245   0.17799988 
   29400   -667.72852     55.29442    -612.4341    1677.5539    100343.18    10.472245   0.17165882 
   29500   -665.99936    58.205574   -607.79379    1765.8742    103919.06    10.472245   0.15048541 
   29600   -665.81705    58.593855   -607.22319    1777.6541    104820.02    10.472245   0.16728112 
   29700   -671.56924    54.349914   -617.21932    1648.8989     95225.65    10.472245    0.1400457 
   29800   -671.83771    62.224099   -609.61362    1887.7905    96516.882    10.472245   0.14197537 
   29900   -672.37024    63.132223   -609.23802    1915.3417    96925.596    10.472245   0.15037361 
   30000   -666.74047    53.809553   -612.93091    1632.5052    102600.55    10.472245   0.16860344 
   30100   -668.27346    55.191545   -613.08191    1674.4328    99521.177    10.472245   0.15444668 
   30200   -665.64624    60.669732   -604.97651    1840.6332    105504.03    10.472245    0.1702861 
   30300   -675.98259    61.291991    -614.6906    1859.5117    91175.324    10.472245   0.14762815 
   30400   -668.72751    56.560319   -612.16719    1715.9595    100176.08    10.472245   0.16156696 
   30500   -672.75228    63.857043   -608.89524    1937.3317    96042.714    10.472245   0.13796098 
   30600   -678.69988    58.536206   -620.16367    1775.9051    85488.136    10.472245    0.1289047 
   30700   -670.65318    57.499127   -613.15405    1744.4416    97066.343    10.472245    0.1480244 
   30800   -670.66258     62.18787   -608.47471    1886.6914    98362.214    10.472245   0.15701687 
   30900   -670.89607    59.903898   -610.99217    1817.3989    98200.764    10.472245   0.15802144 
   31000   -674.73924    57.830323   -616.90891    1754.4896    91220.787    10.472245   0.14502976 
   31100   -665.81345    59.176577   -606.63688     1795.333    102917.81    10.472245   0.18595307 
   31200   -668.97142    57.779849   -611.19157    1752.9583    99155.886    10.472245   0.16229606 
   31300   -672.19476    51.897154   -620.29761    1574.4857    92788.167    10.472245   0.14958494 
   31400   -671.40049    58.486617   -612.91387    1774.4006    96175.374    10.472245   0.14444678 
   31500   -667.81484    59.238277   -608.57656    1797.2049    101578.78    10.472245   0.15522791 
   31600   -672.94232    55.662944   -617.27938    1688.7344    94859.849    10.472245   0.14290132 
   31700    -669.9171    59.016531   -610.90057    1790.4775    99465.582    10.472245    0.1614599 
   31800   -664.11178     58.00131   -606.11047    1759.6771    106222.04    10.472245   0.16628727 
   31900   -673.01222    57.239981   -615.77224    1736.5795    94494.353    10.472245   0.14637682 
   32000   -670.64539     58.37431   -612.27108    1770.9934    97523.324    10.472245   0.17690492 
   32100   -667.05969    56.974877   -610.08481    1728.5366    103181.02    10.472245   0.15576801 
   32200   -671.88411    60.530024   -611.35409    1836.3947    96408.943    10.472245   0.14322981 
   32300   -673.81211    56.198098   -617.61402    1704.9702    92812.049    10.472245   0.13729181 
   32400   -667.65905    59.836419   -607.82263    1815.3517    101760.58    10.472245   0.16229817 
   32500   -669.56227     60.64346   -608.91881    1839.8362     99639.73    10.472245   0.16529635 
   32600   -673.12553    54.290858   -618.83467    1647.1073    94023.066    10.472245    0.1540266 
   32700   -670.69943    53.612787   -617.08664    1626.5356    97264.449    10.472245   0.15038274 
   32800   -666.66836    58.714321   -607.95404    1781.3088    103990.74    10.472245   0.18540502 
   32900    -667.2376    58.743586   -608.49401    1782.1967    102802.93    10.472245   0.18457624 
   33000   -670.06131    53.056215   -617.00509      1609.65    97503.011    10.472245   0.16730771 
   33100   -664.11987    58.042136   -606.07773    1760.9157    105469.36    10.472245   0.16210788 
   33200   -666.58054     55.69472   -610.88582    1689.6984    103263.26    10.472245   0.15365148 
   33300   -668.20903    54.379023      -613.83    1649.7821    99601.153    10.472245   0.16853835 
   33400   -658.75752    57.164845   -601.59267       1734.3    113632.51    10.472245   0.20095177 
   33500   -667.51936    57.024062    -610.4953    1730.0288    101925.76    10.472245     0.150058 
   33600   -667.70187    54.539535   -613.16234    1654.6518    102058.51    10.472245   0.17124228 
   33700   -664.80458     64.66406   -600.14052    1961.8154    105495.77    10.472245   0.19778913 
   33800   -665.21725    59.832289   -605.38496    1815.2264    105429.71    10.472245   0.18346456 
   33900   -673.62053    60.301985   -613.31855    1829.4763    93444.155    10.472245   0.15131641 
   34000   -667.94236    61.579687   -606.36268      1868.24    102778.86    10.472245   0.16201067 
   34100   -663.05901    55.997097   -607.06191    1698.8721     106960.4    10.472245   0.17948951 
   34200   -672.68146    61.175852   -611.50561    1855.9882    95700.338    10.472245   0.13784619 
   34300   -671.65424     60.41814    -611.2361    1833.0003    97026.555    10.472245   0.14818155 
   34400   -670.31491    60.417011   -609.89789     1832.966    98871.261    10.472245    0.1567031 
   34500   -664.02031    65.890883   -598.12943    1999.0355       108430    10.472245   0.17606895 
   34600   -672.66824    62.742645    -609.9256    1903.5224    95933.778    10.472245    0.1345435 
   34700   -673.29321    59.420386   -613.87282    1802.7298    94565.813    10.472245   0.13211732 
   34800   -666.03814    61.003098   -605.03504    1850.7471    104131.59    10.472245   0.17362713 
   34900    -672.8952    58.653399   -614.24181    1779.4606    94836.868    10.472245   0.15973094 
   35000   -672.50122    59.749724    -612.7515    1812.7215    96072.742    10.472245   0.16105225 
   35100   -668.12677    62.152389   -605.97438    1885.6149    101437.99    10.472245   0.17373401 
   35200   -666.81194    55.998662   -610.81328    1698.9196    102277.77    10.472245   0.15991186 
   35300   -671.40224    61.095133   -610.30711    1853.5393    98516.118    10.472245   0.15351809 
   35400   -667.45954    57.717558   -609.74198    1751.0685    102594.98    10.472245   0.17456683 
   35500   -671.35745    58.891271   -612.46618    1786.6773    97099.067    10.472245   0.14618373 
   35600   -674.99367    59.164605   -615.82907    1794.9698     90732.84    10.472245   0.15587695 
   35700   -665.79928    59.167823   -606.63146    1795.0674    103700.41    10.472245   0.20319433 
   35800   -669.70315    56.395488   -613.30766    1710.9588    97582.557    10.472245   0.18878038 
   35900   -670.59236    62.994645   -607.59771    1911.1678     99551.72    10.472245   0.16417923 
   36000   -666.34598    59.345882    -607.0001    1800.4695    103362.27    10.472245   0.18945511 
   36100   -670.92399    58.919404   -612.00459    1787.5308    97358.493    10.472245   0.14779259 
   36200   -673.95298    59.634205   -614.31877    1809.2168    93871.336    10.472245   0.13806819 
   36300   -668.88429    62.095613   -606.78868    1883.8924    101664.25    10.472245   0.15396941 
   36400   -667.14714    57.910475   -609.23667    1756.9213    102012.97    10.472245   0.16603391 
   36500   -670.87296    55.589863    -615.2831    1686.5172    96531.915    10.472245   0.16170177 
   36600   -669.79104    60.431471   -609.35957    1833.4047    98389.085    10.472245   0.16623321 
   36700   -668.33447    59.932365    -608.4021    1818.2626    100720.66    10.472245    0.1486668 
   36800   -672.73494    54.712819   -618.02212     1659.909    95408.897    10.472245    0.1426752 
   36900   -668.81362    60.605538   -608.20809    1838.6857    100020.21    10.472245    0.1704529 
   37000   -667.71916    55.754546   -611.96461    1691.5135    100877.86    10.472245   0.16065837 
   37100   -670.06714    53.374192   -616.69295    1619.2969    97658.326    10.472245   0.14512541 
   37200   -666.58298    56.130799   -610.45218    1702.9285    103732.98    10.472245   0.17808954 
   37300   -666.88778     60.48909   -606.39869    1835.1528    102436.92    10.472245   0.17395542 
   37400   -675.88992    58.700881   -617.18904    1780.9011     91315.83    10.472245   0.14482478 
   37500    -667.5272      58.5787    -608.9485    1777.1943     101710.7    10.472245   0.18518735 
   37600   -669.92664    60.559821   -609.36682    1837.2987    97744.128    10.472245     0.160302 
   37700   -673.19009    52.948932   -620.24116    1606.3952    92158.378    10.472245   0.17238668 
   37800   -671.90305    56.239924   -615.66313    1706.2392    96008.971    10.472245   0.15710787 
   37900   -667.76976    59.876644   -607.89312    1816.5721    101906.62    10.472245   0.14879714 
   38000   -670.61119    57.497555   -613.11363    1744.3939    97693.969    10.472245   0.14323943 
   38100   -669.08346    54.142564    -614.9409    1642.6082    98313.463    10.472245   0.16367996 
   38200   -671.04151    65.192142   -605.84937    1977.8367    98860.846    10.472245   0.13670182 
   38300   -669.80486    55.836605   -613.96826    1694.0031    97942.598    10.472245   0.14759246 
   38400   -668.84194    60.227005   -608.61493    1827.2015    100213.19    10.472245   0.15633251 
   38500    -663.9667    57.186606    -606.7801    1734.9602    106236.87    10.472245   0.15113455 
   38600   -672.72378    59.841555   -612.88222    1815.5075    94570.343    10.472245   0.15936228 
   38700   -671.34284    63.962968   -607.37987    1940.5453    97847.918    10.472245   0.16212845 
   38800   -663.35598    62.639206   -600.71678    1900.3843    108303.71    10.472245   0.18071114 
   38900   -670.42922    60.885578   -609.54364    1847.1817     99482.88    10.472245   0.16464776 
   39000   -673.17087     61.41691   -611.75396    1863.3015    94507.751    10.472245   0.14773154 
   39100   -666.55698    65.557284   -600.99969    1988.9146    104711.75    10.472245   0.17558109 
   39200   -675.43889    65.474098   -609.96479    1986.3909     92207.81    10.472245   0.15515206 
   39300   -668.51869    58.686922   -609.83177    1780.4776    100614.86    10.472245   0.17176525 
   39400   -666.37771    60.980188   -605.39752     1850.052    103598.05    10.472245   0.14948348 
   39500   -673.09803    62.112585   -610.98545    1884.4073    94760.713    10.472245   0.14234211 
   39600   -668.32483    53.719584   -614.60524    1629.7756    99312.192    10.472245   0.15028186 
   39700   -665.21306    61.378875   -603.83418    1862.1476    106548.18    10.472245   0.17558131 
   39800   -669.76804    60.090349    -609.6777    1823.0556    99520.755    10.472245   0.14108309 
   39900   -670.48451    56.380387   -614.10413    1710.5006    97094.431    10.472245    0.1335477 
   40000   -663.96882    62.844539   -601.12428    1906.6138    106438.25    10.472245   0.15113591 
   40100   -668.19576     58.37754   -609.81822    1771.0914    101073.65    10.472245   0.14656318 
   40200   -676.30726    62.839311   -613.46795    1906.4552    91203.525    10.472245   0.13048679 
   40300   -669.99807    67.344305   -602.65376    2043.1303     101226.2    10.472245   0.13222096 
   40400   -669.19707    59.455646   -609.74142    1803.7996    100057.15    10.472245   0.15398515 
   40500   -669.17364    57.758157   -611.41548    1752.3002     98627.67    10.472245    0.1486516 
   40600   -667.57427    60.111972   -607.46229    1823.7116    101883.55    10.472245   0.15063553 
   40700   -664.42615    59.897186   -604.52896    1817.1953    106409.35    10.472245    0.1543292 
   40800   -669.94672    56.574235   -613.37249    1716.3817    97901.236    10.472245   0.13838456 
   40900   -667.36733    59.067724    -608.2996    1792.0306    102424.97    10.472245   0.15539788 
   41000   -665.37551    60.625979   -604.74953    1839.3058    104892.32    10.472245   0.15393632 
   41100   -671.53774    59.326708   -612.21103    1799.8878    97393.009    10.472245   0.14100364 
   41200   -668.66583    60.353717   -608.31211    1831.0458    99718.555    10.472245   0.16524538 
   41300    -666.4288     57.24189   -609.18691    1736.6374    102547.11    10.472245   0.17637614 
   41400      -672.22    55.117385   -617.10262    1672.1829    93775.179    10.472245   0.13860065 
   41500   -667.16231    61.697263   -605.46504     1871.807    102995.02    10.472245   0.16515521 
   41600   -671.30452    60.313533   -610.99099    1829.8267    97310.845    10.472245   0.14866229 
   41700   -670.90472    56.881358   -614.02336    1725.6994     98524.95    10.472245   0.16419249 
   41800   -665.62737    62.155994   -603.47138    1885.7243    105558.29    10.472245    0.1753857 
   41900   -669.51915    58.638166   -610.88099    1778.9984    99538.076    10.472245   0.13943491 
   42000   -670.55349    55.626703   -614.92679    1687.6349    96788.383    10.472245   0.14328035 
   42100   -663.69629    59.900524   -603.79576    1817.2966    107752.53    10.472245   0.17361487 
   42200   -670.04699    56.796349   -613.25064    1723.1203    97477.837    10.472245   0.16295903 
   42300   -672.43713    60.715379   -611.72175    1842.0181    96425.865    10.472245   0.17414489 
   42400   -668.76191    60.887518    -607.8744    1847.2405    100986.31    10.472245    0.1722979 
   42500   -667.76138    54.993969   -612.76741    1668.4387    100130.72    10.472245   0.17243941 
   42600   -673.66675    55.281349    -618.3854    1677.1574    92832.599    10.472245   0.13062856 
   42700   -670.60129    58.853968   -611.74733    1785.5455    97759.856    10.472245   0.16602099 
   42800   -670.43493    61.267996   -609.16693    1858.7837    98252.078    10.472245   0.16104974 
   42900   -671.98884    54.690251   -617.29859    1659.2243    95525.929    10.472245   0.15498971 
   43000   -672.44234     58.86661   -613.57573    1785.9291    96067.037    10.472245   0.15317661 
   43100   -672.15378    63.790293   -608.36349    1935.3066    98592.569    10.472245   0.16995445 
   43200   -672.24621    57.203724   -615.04249    1735.4795    95360.701    10.472245   0.15492208 
   43300   -675.73123    59.557011   -616.17422    1806.8749     90632.29    10.472245   0.14803308 
   43400   -664.94036     57.48469   -607.45567    1744.0036    105069.39    10.472245   0.16745991 
   43500   -673.33646    57.605614   -615.73085    1747.6723    94932.491    10.472245   0.13562618 
   43600   -670.18081    59.491591   -610.68921    1804.8901    99299.208    10.472245   0.14316053 
   43700   -668.77265    61.237545    -607.5351    1857.8599    100604.87    10.472245   0.14357497 
   43800   -670.68342     56.14336   -614.54006    1703.3095    98432.558    10.472245   0.12881098 
   43900   -668.27983    64.674965   -603.60487    1962.1463    101491.42    10.472245   0.14926353 
   44000   -666.93084    59.107991   -607.82285    1793.2522    103732.84    10.472245    0.1489919 
   44100   -666.97272    55.897569   -611.07515    1695.8526    101794.31    10.472245   0.15139811 
   44200   -674.96903    63.289282   -611.67974    1920.1066    92925.002    10.472245   0.13949857 
   44300   -666.62234    56.352439    -610.2699    1709.6527     101430.2    10.472245    0.1687516 
   44400   -670.26583    60.175067   -610.09077    1825.6258    98423.672    10.472245    0.1567585 
   44500   -671.96176    57.535356   -614.42641    1745.5407     94589.13    10.472245   0.14575971 
   44600   -672.00833    61.401483   -610.60684    1862.8335    96346.535    10.472245   0.14378493 
   44700   -664.54386    59.321922   -605.22194    1799.7426    105796.04    10.472245   0.18194451 
   44800   -678.25986     61.03199   -617.22787    1851.6236    88467.064    10.472245     0.111359 
   44900   -670.24492    59.321215   -610.92371    1799.7211    98488.599    10.472245   0.14147807 
   45000   -668.79025    59.260168   -609.53009    1797.8691     99794.15    10.472245   0.16803188 
   45100   -672.57381    53.951833   -618.62198    1636.8217     92991.67    10.472245   0.15610267 
   45200   -673.64955    63.269854    -610.3797    1919.5172    93390.486    10.472245   0.17673592 
   45300   -667.99955    59.565497   -608.43406    1807.1323    101773.83    10.472245   0.15769908 
   45400   -674.67939    57.427279   -617.25211    1742.2618    91813.584    10.472245   0.13855822 
   45500   -667.78172    60.621057   -607.16066    1839.1565    102045.94    10.472245   0.18807986 
   45600   -670.14571    61.632663   -608.51305    1869.8472    98760.528    10.472245   0.16064232 
   45700   -673.19958    59.344169   -613.85541    1800.4175    94612.648    10.472245   0.13757616 
   45800   -668.54662      66.3932   -602.15342    2014.2751    101159.04    10.472245   0.17637137 
   45900   -669.19731     63.64544   -605.55187     1930.912    100979.96    10.472245   0.16920678 
   46000   -669.51676    56.700417   -612.81634    1720.2099    98288.999    10.472245   0.15272007 
   46100   -666.54262    59.107647   -607.43497    1793.2418    104689.35    10.472245    0.1839441 
   46200   -667.38091    64.366669   -603.01424     1952.793    102096.34    10.472245   0.15137304 
   46300   -670.72919    59.302249   -611.42694    1799.1457    97553.657    10.472245   0.16636527 
   46400    -667.5846    60.499916   -607.08469    1835.4812    102853.01    10.472245   0.16592935 
   46500   -665.33345    59.961074   -605.37238    1819.1336    104754.15    10.472245   0.17651473 
   46600   -670.66595    57.570926   -613.09502    1746.6199    97950.149    10.472245   0.16437545 
   46700   -665.94895    58.631751    -607.3172    1778.8038    104117.78    10.472245   0.16343332 
   46800   -670.81323    63.351745   -607.46148    1922.0017    97782.849    10.472245   0.15088573 
   46900   -670.43889    56.917402   -613.52149    1726.7929    98924.375    10.472245   0.15538088 
   47000   -664.90803     59.45028   -605.45775    1803.6368     105583.1    10.472245   0.16604961 
   47100   -675.35614    58.780158   -616.57599    1783.3062    91054.872    10.472245   0.12532257 
   47200    -670.1831    57.938904   -612.24419    1757.7838    98507.662    10.472245   0.15002831 
   47300   -664.04577    57.278321   -606.76745    1737.7427    106127.39    10.472245   0.14914891 
   47400   -676.25724    58.730656   -617.52658    1781.8044    89695.981    10.472245   0.15952391 
   47500   -672.96455    59.575027   -613.38953    1807.4214      94524.7    10.472245    0.1396117 
   47600   -674.99159     64.86647   -610.12512    1967.9563     93604.93    10.472245   0.13410651 
   47700   -670.02934    65.445743    -604.5836    1985.5306    100705.79    10.472245   0.13782381 
   47800   -672.15239    62.812056   -609.34034    1905.6283    97257.694    10.472245    0.1469844 
   47900   -672.55066    59.339823   -613.21084    1800.2857    94735.216    10.472245   0.13787021 
   48000   -665.92085    62.424066   -603.49679    1893.8572    105769.11    10.472245   0.16957166 
   48100   -666.02076    61.430958    -604.5898    1863.7277    104494.49    10.472245    0.1789017 
   48200   -672.42797    61.104455   -611.32351    1853.8221    96642.088    10.472245   0.16358521 
   48300   -669.57123    58.021964   -611.54927    1760.3037    98628.896    10.472245   0.15518194 
   48400   -670.55932    68.634837   -601.92448    2082.2832    100954.89    10.472245   0.15272867 
   48500   -671.79135    60.519873   -611.27148    1836.0867    96319.262    10.472245   0.14875823 
   48600    -667.5896    57.366774   -610.22282    1740.4262    102419.86    10.472245   0.18676763 
   48700   -661.98447    60.598382   -601.38609    1838.4686    109476.43    10.472245   0.21301395 
   48800   -669.88341    58.796741   -611.08666    1783.8093     98681.81    10.472245   0.15970565 
   48900   -671.78346    58.816342   -612.96712     1784.404    96474.388    10.472245   0.14931496 
   49000   -667.54812    63.746735   -603.80138    1933.9851    103212.27    10.472245   0.17249812 
   49100    -666.2493    55.879119   -610.37018    1695.2929    102429.49    10.472245   0.15988059 
   49200   -669.78143    55.112578   -614.66885    1672.0371    99386.716    10.472245   0.16897447 
   49300    -670.3397    64.145655   -606.19405    1946.0878    99448.785    10.472245   0.15603733 
   49400   -673.82618     59.29621   -614.52997    1798.9625    92883.785    10.472245   0.13812925 
   49500   -670.69759    54.382988    -616.3146    1649.9024    95490.551    10.472245   0.14388865 
   49600   -670.59447    62.286189   -608.30828    1889.6742    98150.197    10.472245   0.15644023 
   49700   -669.96042    59.138933   -610.82149     1794.191    98711.421    10.472245   0.17135613 
   49800   -673.26366    56.267604   -616.99606    1707.0789    93231.001    10.472245   0.13385685 
   49900   -669.49887    63.185913   -606.31295    1916.9706    100808.07    10.472245   0.14373211 
   50000   -671.33224    59.243921   -612.08832    1797.3761    97735.697    10.472245   0.14600586 
   50100   -671.92227    57.021682   -614.90059    1729.9566    96079.881    10.472245   0.13744037 
   50200   -667.81126    64.533999   -603.27726    1957.8696    103269.52    10.472245   0.15835987 
   50300   -671.42246     59.12361   -612.29885    1793.7261    99333.518    10.472245   0.14116838 
   50400   -673.51576    60.717927   -612.79783    1842.0954    93498.794    10.472245   0.15830763 
   50500   -668.70422     63.35787   -605.34635    1922.1875    100507.07    10.472245   0.18237641 
   50600   -665.44417     61.90232   -603.54185    1878.0282    104960.32    10.472245   0.17639299 
   50700   -669.72755    58.611526   -611.11603    1778.1902    98966.118    10.472245   0.15713676 
   50800   -671.51239    57.427883   -614.08451    1742.2802     95200.06    10.472245   0.13484387 
   50900   -669.98981    57.436557   -612.55326    1742.5433    98971.934    10.472245    0.1757784 
   51000   -663.44778    59.599996   -603.84779    1808.1789    106182.57    10.472245   0.17599884 
   51100   -672.98884    58.210509   -614.77833    1766.0239     93971.65    10.472245   0.13030943 
   51200    -672.2735    59.929926   -612.34357    1818.1886    96196.618    10.472245   0.13944124 
   51300   -665.66296    60.315937   -605.34702    1829.8996    104015.31    10.472245   0.15970086 
   51400   -674.81487    57.309747   -617.50513    1738.6961    92306.976    10.472245   0.14012669 
   51500   -670.12534    60.326118   -609.79922    1830.2085     97567.47    10.472245    0.1713724 
   51600   -667.21309    59.384485    -607.8286    1801.6407    103501.23    10.472245   0.15886547 
   51700    -673.5953    56.460153   -617.13515    1712.9206    92207.939    10.472245   0.14367778 
   51800   -671.05479    58.051342   -613.00344     1761.195    97208.538    10.472245   0.14882114 
   51900   -666.63489    58.582658   -608.05224    1777.3144    103105.39    10.472245   0.17023923 
   52000   -661.77437    59.338796   -602.43558    1800.2545    109736.22    10.472245   0.15849599 
   52100   -671.74304    58.387768   -613.35527    1771.4017     96030.76    10.472245   0.12938802 
   52200    -667.7517    57.550642   -610.20105    1746.0045    101243.47    10.472245   0.16481608 
   52300   -667.52414    61.627515   -605.89663     1869.691    101019.07    10.472245    0.1470715 
   52400   -671.92205    60.206776   -611.71527    1826.5878    96800.162    10.472245   0.13795262 
   52500   -671.16101    59.949424   -611.21158    1818.7801    97397.456    10.472245   0.14229725 
   52600    -671.7473    60.841062   -610.90623    1845.8311    96587.955    10.472245   0.16951093 
   52700   -668.93327    64.503501   -604.42977    1956.9443    102071.67    10.472245   0.13686368 
   52800   -674.99374    59.748459   -615.24528    1812.6831    92358.361    10.472245   0.12359233 
   52900   -672.11343    62.791719   -609.32171    1905.0113    96801.895    10.472245   0.14147558 
   53000   -669.31625    62.039507   -607.27674    1882.1902    100091.33    10.472245   0.14407953 
   53100   -675.57374    53.283372   -622.29037    1616.5416    89784.817    10.472245   0.13089048 
   53200   -672.21549     57.57341   -614.64208    1746.6952    95049.894    10.472245   0.15668541 
   53300   -668.97732    62.442792   -606.53453    1894.4254    100866.18    10.472245    0.1641905 
   53400   -668.75429    56.080024   -612.67427     1701.388    99812.361    10.472245   0.14808314 
   53500    -672.6818    57.400627   -615.28118    1741.4533    95356.098    10.472245   0.14802778 
   53600   -675.11916    64.348699   -610.77046    1952.2478    94038.389    10.472245   0.13206329 
   53700   -670.65291    61.615522   -609.03739    1869.3271    97685.259    10.472245   0.13524885 
   53800   -667.37904    63.485779   -603.89326    1926.0681    103165.11    10.472245   0.16765678 
   53900   -671.63397    57.533467    -614.1005    1745.4834    96171.404    10.472245   0.16992164 
   54000   -669.71201    60.124293   -609.58771    1824.0854     99450.08    10.472245   0.14808146 
   54100   -663.01214     61.82774    -601.1844    1875.7655    107697.45    10.472245   0.15644375 
   54200   -670.64607    57.802492   -612.84357    1753.6453    97356.512    10.472245   0.15079415 
   54300   -671.82493    57.432968   -614.39196    1742.4344    95883.017    10.472245   0.16031536 
   54400   -665.79454    60.555549   -605.23899    1837.1691     104394.2    10.472245   0.17163378 
   54500   -666.68196    56.053724   -610.62823    1700.5901    101788.16    10.472245   0.17290015 
   54600   -663.69289    52.865289    -610.8276    1603.8575    104870.02    10.472245   0.16820888 
   54700   -671.29718    61.149844   -610.14734    1855.1991    97173.884    10.472245   0.14846937 
   54800   -673.25883    59.808627    -613.4502    1814.5085    93756.846    10.472245   0.14599542 
   54900   -670.62519    59.359144   -611.26605    1800.8719    96953.501    10.472245   0.16764162 
   55000   -667.47891    62.212199   -605.26671    1887.4295    104292.24    10.472245   0.16645757 
   55100   -674.31116    58.207956   -616.10321    1765.9464    92073.721    10.472245   0.15463243 
   55200   -663.80753    53.731467   -610.07606    1630.1362    105430.31    10.472245   0.17175858 
   55300   -666.38074    59.793108   -606.58763    1814.0377    102748.04    10.472245   0.16497028 
   55400   -675.47043    58.530629   -616.93981    1775.7359    90642.921    10.472245   0.13112178 
   55500   -669.51616    61.357442   -608.15872    1861.4974     99341.73    10.472245   0.14689521 
   55600   -668.71661    59.174243   -609.54237    1795.2622     100087.3    10.472245   0.15487166 
   55700   -673.86417    52.954709   -620.90946    1606.5704    92909.131    10.472245   0.12224806 
   55800   -678.34502    59.532128    -618.8129    1806.1199    87029.029    10.472245   0.11884573 
   55900   -671.59169    62.763534   -608.82816    1904.1562    97592.971    10.472245   0.13952482 
   56000   -668.16996     59.99122   -608.17874    1820.0481    102568.51    10.472245   0.14930138 
   56100   -672.44574    55.619327   -616.82641    1687.4111    93831.844    10.472245   0.15593001 
   56200   -668.71345    58.543904   -610.16955    1776.1386    100413.65    10.472245   0.17726237 
   56300   -671.13757     62.69949   -608.43808    1902.2132    98309.466    10.472245   0.15048189 
   56400   -673.44225     54.27864   -619.16361    1646.7366    92418.404    10.472245   0.14824378 
   56500   -670.07476    55.845107   -614.22965     1694.261    98502.866    10.472245   0.14356419 
   56600   -670.35697    60.951985   -609.40498    1849.1964    97439.206    10.472245   0.16643903 
   56700   -671.37638    64.882572   -606.49381    1968.4448    97702.022    10.472245   0.17112923 
   56800   -668.20395    56.441382   -611.76257    1712.3511     99869.56    10.472245   0.19230253 
   56900   -671.34992    59.806664   -611.54326     1814.449    95659.771    10.472245   0.17752115 
   57000    -665.0712    63.213008   -601.85819    1917.7926    106145.35    10.472245   0.20365652 
   57100   -673.46362    62.628538   -610.83509    1900.0606    94169.309    10.472245   0.14799552 
   57200   -669.37777    60.061608   -609.31616    1822.1836    99704.052    10.472245   0.17994935 
   57300   -667.07135    61.464288   -605.60706    1864.7389    103002.12    10.472245   0.14295778 
   57400   -669.76602    54.689823    -615.0762    1659.2113    97830.002    10.472245   0.13112205 
   57500   -666.57686    60.656324   -605.92054    1840.2265     104508.4    10.472245   0.16710429 
   57600   -668.93224    62.081383   -606.85086    1883.4607    101520.72    10.472245   0.17496727 
   57700   -671.19306    58.693071   -612.49999    1780.6642    96468.909    10.472245   0.17257831 
   57800   -666.47606    62.638277   -603.83778    1900.3561    102661.75    10.472245   0.16768505 
   57900   -668.87497    60.280968     -608.594    1828.8387    99610.243    10.472245   0.17363296 
   58000   -671.09495    60.619672   -610.47528    1839.1145    97371.158    10.472245   0.16004242 
   58100   -669.84064    63.411525   -606.42911    1923.8153    99689.653    10.472245    0.1504326 
   58200   -668.04036    62.498654   -605.54171    1896.1201    102117.35    10.472245    0.1540884 
   58300   -671.31903    57.656465   -613.66257     1749.215    95940.408    10.472245   0.14978602 
   58400   -668.05266    62.362401   -605.69026    1891.9864    102435.79    10.472245   0.13642535 
   58500    -668.9087    62.051145   -606.85755    1882.5433    102120.33    10.472245   0.17380888 
   58600   -668.64504    55.143827   -613.50122    1672.9851    98662.608    10.472245   0.16480694 
   58700   -665.19841    60.178279   -605.02013    1825.7232    106584.13    10.472245   0.17589855 
   58800   -675.26102    60.489403   -614.77161    1835.1623    92708.358    10.472245   0.11791333 
   58900   -671.61722    58.840988   -612.77623    1785.1518    96297.144    10.472245   0.13149114 
   59000   -668.02098    62.919902   -605.10108    1908.9002    102217.01    10.472245   0.15106833 
   59100   -671.41338    55.762728   -615.65066    1691.7617    96815.807    10.472245   0.16111225 
   59200   -669.49434    58.185516   -611.30883    1765.2656    98550.688    10.472245   0.14840089 
   59300   -668.11761    61.626719    -606.4909    1869.6668    102019.66    10.472245   0.18534545 
   59400   -672.68671    54.984729   -617.70198    1668.1583    93214.962    10.472245   0.12934285 
   59500   -669.10048    58.398191   -610.70228    1771.7179    98478.542    10.472245   0.14159038 
   59600   -669.92416    60.285674   -609.63849    1828.9815    98832.164    10.472245    0.1567019 
   59700   -675.15434    55.693366   -619.46098    1689.6574    91606.455    10.472245   0.15011899 
   59800   -671.27978    59.598819   -611.68096    1808.1432    97082.147    10.472245   0.15017568 
   59900   -671.14854    60.766256   -610.38228    1843.5616    97331.741    10.472245   0.17268099 
   60000   -669.39317    61.818234   -607.57493    1875.4771    100587.48    10.472245   0.18129081 
   60100   -667.55208    62.612829   -604.93925     1899.584    102406.88    10.472245    0.1574642 
   60200   -673.76924    59.941544   -613.82769    1818.5411    94905.425    10.472245   0.14521578 
   60300   -669.83435    62.777851    -607.0565    1904.5905    98287.416    10.472245   0.14581133 
   60400   -665.69139    64.422378   -601.26901    1954.4832    105897.75    10.472245   0.16716604 
   60500      -668.87    56.607068   -612.26293    1717.3778    98962.356    10.472245    0.1743437 
   60600   -673.67952    63.268342   -610.41118    1919.4714    94525.836    10.472245   0.16614725 
   60700   -661.42487    58.070376   -603.35449    1761.7725    111360.47    10.472245   0.18333546 
   60800    -668.5091    55.795541   -612.71356    1692.7572    98505.806    10.472245   0.16225743 
   60900   -667.49522    58.458579   -609.03664      1773.55    103685.62    10.472245   0.15328042 
   61000   -664.92594    59.202665   -605.72327    1796.1245     106087.8    10.472245    0.1741492 
   61100   -675.80314    59.623905   -616.17924    1808.9043    90916.526    10.472245    0.1338886 
   61200   -667.92904    57.607092   -610.32195    1747.7171    100641.57    10.472245    0.1613694 
   61300   -668.38802    61.521149   -606.86688     1866.464    101322.42    10.472245   0.16302667 
   61400    -670.0924     57.58118   -612.51122    1746.9309    98498.898    10.472245   0.15132333 
   61500   -671.32925    56.148372   -615.18088    1703.4616    96107.393    10.472245   0.16295339 
   61600   -672.52929    67.338206   -605.19109    2042.9452    98765.737    10.472245   0.13671497 
   61700   -669.96357    56.440154   -613.52341    1712.3139    98349.716    10.472245   0.15400253 
   61800   -665.00142    60.685433   -604.31598    1841.1096    105234.65    10.472245   0.18257083 
   61900   -667.34814    59.769475   -607.57866    1813.3207    102037.77    10.472245   0.19483663 
   62000   -672.00124    58.525563   -613.47568    1775.5822    95167.653    10.472245   0.14635435 
   62100   -667.30558    62.846419   -604.45916    1906.6708    103710.85    10.472245   0.15607859 
   62200   -667.51967    60.278009   -607.24166    1828.7489    102679.73    10.472245   0.18631101 
   62300   -673.84057    61.584364   -612.25621    1868.3818    94416.484    10.472245   0.15845314 
   62400   -667.44502    59.197041   -608.24798    1795.9539    102357.48    10.472245   0.17502552 
   62500   -662.63987    62.776823   -599.86305    1904.5594     109161.4    10.472245   0.17586991 
   62600   -669.23342    59.168575   -610.06485    1795.0903    99819.454    10.472245   0.15205869 
   62700   -669.92318    57.811752   -612.11143    1753.9262    98551.876    10.472245   0.15446982 
   62800    -666.2631    63.789552   -602.47354    1935.2841       104469    10.472245   0.17038756 
   62900   -672.59521    60.213651   -612.38156    1826.7964     95451.43    10.472245   0.14625667 
   63000   -668.76634    58.898801   -609.86754    1786.9057    100093.22    10.472245   0.16247974 
   63100   -666.30086    62.594681   -603.70618    1899.0334    104093.57    10.472245   0.16092369 
   63200   -664.27467    54.039536   -610.23513    1639.4825    106010.37    10.472245   0.18053018 
   63300   -673.33429    59.508315   -613.82598    1805.3975    93566.318    10.472245   0.17647089 
   63400   -663.10492    58.132936   -604.97199    1763.6705    106197.33    10.472245   0.17221086 
   63500   -670.14789    60.847437   -609.30045    1846.0245    98728.319    10.472245   0.15568241 
   63600   -669.05522    55.721025    -613.3342    1690.4965    99829.341    10.472245    0.1413695 
   63700   -669.83597    60.789321   -609.04664    1844.2614    98892.632    10.472245   0.15097152 
   63800   -661.89368    57.033688   -604.85999    1730.3208    109234.29    10.472245   0.20214826 
   63900    -670.7478    55.130751   -615.61705    1672.5884    97188.241    10.472245   0.14106543 
   64000   -671.32574    60.011458   -611.31428    1820.6621    95586.601    10.472245   0.14017337 
   64100   -672.00421    65.216325   -606.78789    1978.5704    97533.107    10.472245     0.150109 
   64200   -671.32224    60.271234   -611.05101    1828.5434    96363.702    10.472245   0.15655495 
   64300     -670.276    55.211145   -615.06485    1675.0275      97208.7    10.472245   0.14340298 
   64400   -668.51227    56.728833   -611.78344     1721.072    100044.99    10.472245   0.15332996 
   64500   -666.00727    58.947118   -607.06015    1788.3716    104020.33    10.472245   0.16175624 
   64600   -673.45552    54.093097   -619.36243    1641.1075    92887.335    10.472245   0.12595915 
   64700   -671.74011    57.528655   -614.21146    1745.3374    96823.411    10.472245   0.13667868 
   64800   -671.46791    64.725341   -606.74257    1963.6746     96944.54    10.472245   0.15665568 
   64900   -670.48317    58.802611   -611.68056    1783.9874    97516.895    10.472245   0.15545966 
   65000   -675.34861    59.006083   -616.34253    1790.1605    90651.064    10.472245   0.13231792 
   65100   -668.79358     61.83937   -606.95421    1876.1184    100788.22    10.472245    0.1665639 
   65200   -671.43483     60.53618   -610.89865    1836.5814    96569.643    10.472245    0.1478241 
   65300    -671.7495    60.428671   -611.32083    1833.3198    97008.317    10.472245   0.16831961 
   65400    -665.6628    63.850482   -601.81232    1937.1326     106321.1    10.472245   0.16843978 
   65500   -671.87645    60.270441   -611.60601    1828.5193    97411.798    10.472245   0.14995928 
   65600   -664.91251    53.573783   -611.33873    1625.3522    104203.12    10.472245   0.18107788 
   65700   -667.01237    64.733924   -602.27845     1963.935     104780.2    10.472245   0.17621464 
   65800   -674.16901    63.029902   -611.13911    1912.2374    93039.618    10.472245    0.1434315 
   65900   -673.95601    63.803113    -610.1529    1935.6955    93236.648    10.472245   0.14332284 
   66000   -666.76397    62.121526   -604.64244    1884.6786    104049.22    10.472245   0.16713538 
   66100   -672.48856    62.190847   -610.29772    1886.7817    96735.258    10.472245   0.15157942 
   66200   -672.42037    57.820274    -614.6001    1754.1847    95040.393    10.472245   0.15009789 
   66300   -667.94883    60.688509   -607.26032    1841.2029     102093.7    10.472245   0.17052455 
   66400    -662.1084    68.364846   -593.74355     2074.092    110317.16    10.472245   0.19932811 
   66500   -669.16054    62.320045    -606.8405    1890.7014    100590.27    10.472245   0.16144713 
   66600   -671.70832    57.799922    -613.9084    1753.5673    96556.172    10.472245   0.16961526 
   66700   -670.47466    64.935355   -605.53931    1970.0462    100308.24    10.472245   0.15998713 
   66800   -664.82192    57.386116   -607.43581     1741.013    105439.53    10.472245   0.18857256 
   66900   -671.61726    56.249242   -615.36802    1706.5219    95071.557    10.472245   0.14304916 
   67000   -669.01785    61.546958    -607.4709     1867.247    101208.78    10.472245   0.14001207 
   67100   -665.71428    54.126746   -611.58753    1642.1283    103544.75    10.472245   0.17430977 
   67200   -671.52501    55.228215    -616.2968    1675.5454    94915.311    10.472245   0.15578152 
   67300   -667.69493    57.560371   -610.13456    1746.2997    101174.07    10.472245    0.1630872 
   67400   -665.87921    56.529155   -609.35006     1715.014    102992.83    10.472245   0.14487413 
   67500   -672.18641    54.061554   -618.12486    1640.1505    94401.133    10.472245   0.14646935 
   67600   -664.52697    56.781411   -607.74556    1722.6671    105273.13    10.472245   0.19214509 
   67700   -669.32158    60.201349   -609.12023    1826.4232    99055.385    10.472245    0.1618906 
   67800   -676.33557     58.55928   -617.77629    1776.6051    90513.785    10.472245   0.12083336 
   67900   -677.29903     57.49808   -619.80095    1744.4098    88436.178    10.472245   0.14361631 
   68000    -663.1743    54.977351   -608.19694    1667.9345    106849.91    10.472245   0.17096246 
   68100   -669.03183     59.99257   -609.03926    1820.0891    100704.79    10.472245   0.15893145 
   68200   -672.21635    55.094659   -617.12169    1671.4935    94835.011    10.472245   0.14311293 
   68300   -667.65913    62.030877   -605.62825    1881.9284    101873.06    10.472245   0.20557708 
   68400   -669.71784    60.918532   -608.79931    1848.1815    98889.086    10.472245   0.15378615 
   68500   -673.02614    57.762593   -615.26355    1752.4348    94503.773    10.472245   0.14965406 
   68600   -663.14248    59.625362   -603.51712    1808.9485    108731.28    10.472245   0.19025579 
   68700   -668.68861    60.481139   -608.20747    1834.9116    100960.51    10.472245   0.14881561 
   68800   -672.10155    59.389973   -612.71158    1801.8072     95575.26    10.472245   0.12729065 
   68900   -667.87426    63.048938   -604.82532    1912.8149    102061.34    10.472245    0.1639262 
   69000   -664.33384    56.370013   -607.96383    1710.1859    104519.84    10.472245   0.18067298 
   69100    -672.3081    60.404566   -611.90353    1832.5885    95434.133    10.472245   0.15496726 
   69200   -668.64055     62.39669   -606.24386    1893.0267    101808.49    10.472245   0.17347237 
   69300   -669.54999    64.065971   -605.48401    1943.6703    100506.18    10.472245   0.18279673 
   69400   -672.75645    60.654323   -612.10212    1840.1658    96211.349    10.472245   0.16910216 
   69500   -665.03236    59.110674   -605.92169    1793.3336    105134.23    10.472245   0.17650592 
   69600   -666.43577     61.49597    -604.9398    1865.7001    103145.94    10.472245   0.15789483 
   69700   -672.44824    61.956868   -610.49138    1879.6831    96413.833    10.472245   0.14414035 
   69800   -668.05916    56.240752   -611.81841    1706.2643    100224.65    10.472245   0.16951626 
   69900   -672.22036    60.297894   -611.92246    1829.3522    96913.217    10.472245   0.14110333 
   70000   -667.81755    63.448815   -604.36873    1924.9466    102158.75    10.472245   0.15600009 
   70100   -675.37011    61.706172   -613.66394    1872.0773    90822.975    10.472245    0.1459385 
   70200   -673.91441    61.257238   -612.65717    1858.4573    94479.879    10.472245   0.14223288 
   70300   -665.40708    60.500925   -604.90616    1835.5119    105340.13    10.472245   0.15558172 
   70400   -668.86695    51.088538   -617.77841    1549.9534    98521.642    10.472245   0.14953954 
   70500   -669.42768    60.435707   -608.99197    1833.5332    100802.33    10.472245   0.13756855 
   70600   -667.87281    58.867513    -609.0053    1785.9565    101692.46    10.472245   0.17753579 
   70700   -670.88848    51.709486     -619.179    1568.7921    95732.949    10.472245   0.13744196 
   70800   -672.28128    62.009472    -610.2718     1881.279     95216.64    10.472245   0.14593219 
   70900   -670.84052    59.801121    -611.0394    1814.2808    98397.117    10.472245   0.13977381 
   71000   -670.17789    52.868721   -617.30917    1603.9617    97971.636    10.472245   0.14299672 
   71100    -671.8588    60.791145   -611.06766    1844.3167    95974.475    10.472245   0.14721008 
   71200   -670.07699    63.611353   -606.46564    1929.8778    97828.171    10.472245   0.15876914 
   71300   -667.31652    50.365967   -616.95055    1528.0317    100101.85    10.472245   0.17498847 
   71400   -672.68375     58.26118   -614.42257    1767.5612    95053.885    10.472245   0.17156831 
   71500   -669.44143    60.724561   -608.71687    1842.2967    99595.663    10.472245   0.17175987 
   71600   -665.19412    58.035026   -607.15909       1760.7    103776.82    10.472245   0.16436946 
   71700   -674.72327    57.781393   -616.94187    1753.0051    91740.827    10.472245   0.15105065 
   71800   -670.79389    61.144791    -609.6491    1855.0458    97327.445    10.472245   0.16029779 
   71900   -667.76398    57.805466   -609.95852    1753.7355     101359.5    10.472245   0.17431777 
   72000   -673.17062    54.699866   -618.47076     1659.516    93684.542    10.472245   0.15595831 
   72100   -669.44988    58.353635   -611.09624    1770.3661    98185.145    10.472245   0.17019808 
   72200   -672.07353    63.240758   -608.83277    1918.6345    96334.835    10.472245   0.15265333 
   72300    -669.5372    55.350895    -614.1863    1679.2673    99235.204    10.472245   0.15674448 
   72400   -673.86435    59.427176   -614.43717    1802.9359    93129.284    10.472245   0.12685125 
   72500   -665.07795    59.064697   -606.01326    1791.9387    103418.79    10.472245   0.15383055 
   72600   -669.30851    57.269019   -612.03949    1737.4604    99240.861    10.472245   0.16536791 
   72700   -676.28054    59.878526   -616.40201    1816.6292    88992.902    10.472245    0.1171354 
   72800   -673.40619    61.607451   -611.79873    1869.0823    94410.565    10.472245    0.1489786 
   72900   -670.43787    64.754983   -605.68289    1964.5739    99625.294    10.472245   0.16883345 
   73000   -675.03558    58.718114   -616.31747    1781.4239    92511.361    10.472245   0.13847572 
   73100   -670.11855    58.182038   -611.93651    1765.1601    98416.634    10.472245   0.15522187 
   73200   -670.73477    61.669342   -609.06543      1870.96    98225.968    10.472245   0.16858582 
   73300   -668.40996    57.485285   -610.92467    1744.0216     100378.1    10.472245   0.15592599 
   73400   -674.16127     63.32202   -610.83925    1921.0999    93844.738    10.472245    0.1542376 
   73500   -666.51798    61.967476    -604.5505    1880.0049    104927.73    10.472245   0.15633256 
   73600   -671.01416    58.147475   -612.86668    1764.1115    98425.337    10.472245   0.13530048 
   73700   -672.41142    58.965293   -613.44613     1788.923    94884.117    10.472245    0.1282005 
   73800   -667.95769    57.572634   -610.38505    1746.6717    101144.11    10.472245   0.15177636 
   73900   -671.12096     61.22336    -609.8976    1857.4295    97913.391    10.472245   0.15548866 
   74000   -672.02907    56.998034   -615.03103    1729.2391    94395.728    10.472245   0.16718462 
   74100   -669.97481    59.585751   -610.38906    1807.7468    97547.756    10.472245   0.15402984 
   74200   -666.92213    59.715611   -607.20652    1811.6866    101383.54    10.472245   0.16540131 
   74300   -668.58371    56.648026   -611.93569    1718.6204    100116.07    10.472245   0.15404923 
   74400   -671.25127    61.021018   -610.23025    1851.2907    97575.294    10.472245   0.14920921 
   74500   -673.36921    61.782959   -611.58626    1874.4069    94866.147    10.472245    0.1392734 
   74600   -673.15582    58.708618   -614.44721    1781.1358    94630.865    10.472245   0.13975511 
   74700   -672.18093    67.714769   -604.46616    2054.3696    98522.868    10.472245   0.14907753 
   74800   -665.91477    55.986028   -609.92874    1698.5363    102363.67    10.472245   0.15789064 
   74900   -672.18711    60.405986   -611.78113    1832.6316    96488.129    10.472245   0.14617492 
   75000   -669.16937    59.829699   -609.33967    1815.1478    99577.416    10.472245   0.19863007 
   75100   -669.49613     62.33668   -607.15945    1891.2061    99804.075    10.472245   0.16246162 
   75200   -676.15073    59.171043   -616.97969    1795.1651    90650.341    10.472245   0.13938284 
   75300   -666.73379     58.58838   -608.14541     1777.488    102374.18    10.472245   0.17330405 
   75400   -669.84742    60.903545   -608.94387    1847.7268    99649.915    10.472245    0.1608494 
   75500   -673.28629    61.870016   -611.41627    1877.0481     94457.24    10.472245   0.15686184 
   75600    -671.1119    60.470521   -610.64138    1834.5894    98331.624    10.472245   0.14148663 
   75700   -665.42533    60.069275   -605.35605    1822.4162    105252.59    10.472245    0.1516335 
   75800   -674.24157    58.643704   -615.59787    1779.1664    93452.902    10.472245   0.14246094 
   75900   -675.61775    62.252926   -613.36483    1888.6651    91624.686    10.472245   0.13796324 
   76000   -671.49202    61.076343   -610.41568    1852.9692    96157.111    10.472245   0.15389926 
   76100   -669.85321    58.765112    -611.0881    1782.8498    98727.457    10.472245   0.17618978 
   76200   -667.68128    60.469804   -607.21147    1834.5677    101482.16    10.472245   0.16495263 
   76300   -669.35229    58.651284   -610.70101    1779.3964    99609.345    10.472245   0.14847983 
   76400   -672.67058    56.033889   -616.63669    1699.9883    95601.768    10.472245   0.13457869 
   76500    -668.4416    62.899277   -605.54232    1908.2745    101437.39    10.472245   0.14475261 
   76600    -671.7247    60.090127   -611.63457    1823.0488    96434.541    10.472245   0.13937755 
   76700   -672.85578    58.914415   -613.94136    1787.3794    94196.065    10.472245   0.13053065 
   76800   -663.53521    61.311644   -602.22357    1860.1079    107382.03    10.472245    0.1828804 
   76900    -672.2997    59.261172   -613.03853    1797.8995    95900.886    10.472245   0.16615917 
   77000   -671.87026    61.025659    -610.8446    1851.4316    96811.682    10.472245     0.145735 
   77100   -665.10183    63.355363   -601.74647    1922.1115    106348.85    10.472245    0.1993638 
   77200   -668.79195    60.125816   -608.66613    1824.1316    99442.418    10.472245   0.18308798 
   77300   -668.43058    55.527814   -612.90276    1684.6348     98598.23    10.472245   0.17611706 
   77400   -666.06189    59.850619   -606.21127    1815.7825    103743.03    10.472245   0.16039145 
   77500   -668.16009    59.904804   -608.25529    1817.4264    101908.93    10.472245   0.17043215 
   77600   -670.49597    57.130245   -613.36572    1733.2502    97285.021    10.472245   0.14330038 
   77700   -668.25215     61.08115     -607.171    1853.1151    101282.86    10.472245   0.15519028 
   77800   -667.32556    67.549266    -599.7763    2049.3485    102457.23    10.472245   0.17299054 
   77900   -668.05874    55.268162   -612.79058    1676.7573    100379.18    10.472245   0.15486246 
   78000   -671.28907    58.769039   -612.52003    1782.9689    97110.137    10.472245   0.15601272 
[...]
   81400   -665.86416     57.28927   -608.57489    1738.0748    101832.48    10.472245   0.15617809 
   81500    -668.2218    60.931161   -607.29064    1848.5646    101702.83    10.472245   0.15312689 
   81600    -672.7734    56.300241   -616.47316    1708.0691     93894.73    10.472245   0.13868563 
   81700   -668.35981     60.60922   -607.75059    1838.7974    101776.74    10.472245   0.15088553 
   81800   -665.72475    55.966995   -609.75776    1697.9589    103999.75    10.472245   0.16203123 
   81900    -676.4014    58.583512   -617.81789    1777.3403    90199.763    10.472245    0.1220374 
   82000   -676.14742    57.852125   -618.29529     1755.151     90097.78    10.472245   0.13358877 
   82100   -669.25985    60.425183   -608.83467    1833.2139    98557.605    10.472245    0.1628813 
   82200   -665.44025    56.834903   -608.60535      1724.29    104128.94    10.472245   0.16264949 
   82300   -675.29215    57.686276   -617.60587    1750.1194    90984.264    10.472245   0.12425364 
   82400   -666.22207    58.325201   -607.89686    1769.5035    103785.15    10.472245   0.15759641 
   82500   -671.72732     61.12722    -610.6001    1854.5128    97171.512    10.472245   0.13969066 
   82600   -674.77962    58.311648   -616.46797    1769.0923    92227.162    10.472245   0.15416311 
   82700   -667.77549    62.430342   -605.34515    1894.0476    103970.06    10.472245   0.17077267 
   82800   -670.27977    59.539915   -610.73985    1806.3562    98462.773    10.472245   0.15657113 
   82900   -673.78926    60.576917   -613.21234    1837.8173    94244.086    10.472245    0.1382695 
   83000   -670.08348    59.436217   -610.64726    1803.2101    98872.476    10.472245   0.16045078 
   83100    -670.2551    60.517008   -609.73809    1835.9998    99053.817    10.472245   0.15293142 
   83200   -668.97219    64.690645   -604.28155     1962.622    101462.31    10.472245    0.1492679 
   83300   -670.53948    55.946423   -614.59306    1697.3348    97487.376    10.472245   0.13397831 
   83400   -669.50663    57.744079   -611.76255    1751.8731    98981.395    10.472245   0.15032909 
   83500   -663.00752    57.237988   -605.76953     1736.519    106955.83    10.472245   0.16054527 
   83600   -668.92367    57.870757   -611.05292    1755.7163    100393.05    10.472245   0.15249135 
   83700   -668.98846    54.295449   -614.69301    1647.2466    98968.623    10.472245   0.15963641 
   83800    -665.8512    61.068729   -604.78248    1852.7382    104382.48    10.472245   0.15802275 
   83900   -676.06503    63.309125   -612.75591    1920.7086    90940.719    10.472245   0.13458702 
   84000   -667.06984    53.767625   -613.30222    1631.2331    100882.86    10.472245   0.16039886 
   84100   -668.50905    61.106906   -607.40214    1853.8965    101111.84    10.472245   0.16599649 
   84200   -661.43866    58.939422   -602.49924    1788.1381    111663.39    10.472245   0.15143046 
   84300   -674.82131     61.33025   -613.49106    1860.6724    93287.234    10.472245   0.13613499 
   84400   -669.49808    58.131606   -611.36648    1763.6301    99490.913    10.472245   0.15877053 
   84500   -668.65112    63.566366   -605.08476     1928.513     102946.3    10.472245    0.1595088 
   84600   -667.64698     57.21835   -610.42863    1735.9232    101488.58    10.472245   0.15614809 
   84700   -672.56562    58.800671   -613.76495    1783.9286    95477.147    10.472245   0.13719531 
   84800   -670.38624    54.774586   -615.61165    1661.7829    97215.069    10.472245   0.14562242 
   84900   -674.03853    67.891347   -606.14719    2059.7267     95679.41    10.472245   0.13648986 
   85000   -668.88869    53.592633   -615.29606    1625.9241    99432.029    10.472245   0.14749545 
   85100   -670.22948    55.555919   -614.67356    1685.4874    98717.564    10.472245   0.14291411 
   85200   -672.03126    65.017395   -607.01387    1972.5351    97546.998    10.472245   0.14058544 
   85300   -667.90374    55.101189   -612.80255    1671.6916     101324.1    10.472245   0.17324898 
   85400    -670.3476    50.154861   -620.19274     1521.627    95606.232    10.472245   0.15968314 
   85500   -670.52934    58.785001   -611.74434    1783.4532    98348.263    10.472245   0.15484969 
   85600   -669.74183    63.977951   -605.76388    1940.9999    100618.07    10.472245   0.13967632 
   85700   -674.13832    57.603928   -616.53439    1747.6211    93024.355    10.472245   0.15454795 
   85800   -667.35607    53.759164    -613.5969    1630.9764    99997.476    10.472245   0.19416843 
   85900   -667.66261    58.573977   -609.08863     1777.051    102101.71    10.472245   0.16583528 
   86000   -667.59554    51.345957   -616.24958    1557.7632    100662.33    10.472245    0.1610574 
   86100   -673.28209    58.768376   -614.51371    1782.9488     94043.75    10.472245   0.14452896 
   86200   -668.40205    58.828161   -609.57389    1784.7626    102525.81    10.472245   0.17811668 
   86300    -670.0237    58.168889   -611.85482    1764.7612        98564    10.472245   0.18117503 
   86400   -678.86011    60.683971   -618.17614    1841.0652    86776.128    10.472245    0.1365657 
   86500   -666.16215    58.191158   -607.97099    1765.4368    104137.55    10.472245   0.15001119 
   86600   -669.82102    56.020223    -613.8008    1699.5737    98750.063    10.472245   0.16456171 
   86700   -667.77058     57.63788   -610.13269    1748.6512    101693.48    10.472245   0.16402433 
   86800   -669.96235    64.856872   -605.10548    1967.6651    100420.37    10.472245   0.14081821 
   86900   -671.03559      58.5064   -612.52919    1775.0008     97666.63    10.472245   0.14571962 
   87000   -666.35984    57.257844   -609.10199    1737.1214    102804.83    10.472245   0.17039574 
   87100   -663.46564    65.522902   -597.94274    1987.8715    110030.44    10.472245   0.16925787 
   87200   -668.55303    60.606118   -607.94691    1838.7033    101335.07    10.472245   0.15363714 
   87300   -672.91412    59.069427   -613.84469    1792.0823    94528.066    10.472245   0.13356576 
   87400   -668.03603    57.265788   -610.77025    1737.3624    100272.03    10.472245    0.1694839 
   87500   -669.04674    63.135683   -605.91106    1915.4467    100600.46    10.472245    0.1868173 
   87600   -672.26173    57.484618   -614.77712    1744.0014    95430.046    10.472245   0.14619802 
   87700   -676.30487    54.210955   -622.09391    1644.6831    88752.576    10.472245   0.12893878 
   87800   -668.60596    57.976065   -610.62989    1758.9112    100310.95    10.472245   0.15802928 
   87900   -671.84257    63.263885   -608.57869    1919.3361     96529.55    10.472245   0.16370745 
   88000   -669.93202    52.481467   -617.45055    1592.2129    96782.283    10.472245   0.16800749 
   88100   -667.96373    60.113258   -607.85047    1823.7506    101201.28    10.472245   0.14823116 
   88200   -668.19956    56.750151   -611.44941    1721.7187    101074.08    10.472245   0.15063895 
   88300    -673.0776    59.540443   -613.53715    1806.3722    94147.056    10.472245   0.16161463 
   88400   -665.77069    61.058043   -604.71265     1852.414    105300.34    10.472245    0.1601458 
   88500   -671.02004    57.553094   -613.46694    1746.0789    97497.813    10.472245   0.14945705 
   88600    -670.1973    59.458426   -610.73887    1803.8839    100365.64    10.472245   0.15252116 
   88700   -661.14388    64.085254   -597.05862    1944.2553    111055.24    10.472245   0.18839121 
   88800   -659.68995    56.002078   -603.68787    1699.0232    111250.44    10.472245   0.18690009 
   88900   -668.07216    54.920728   -613.15143    1666.2166    98620.168    10.472245   0.17520626 
   89000   -666.54233    58.117448   -608.42488    1763.2006     102850.3    10.472245   0.17368069 
   89100   -664.98457    61.780737   -603.20383    1874.3395    106170.64    10.472245       0.1583 
   89200   -672.33581    62.631754   -609.70406    1900.1582     96625.54    10.472245    0.1400717 
   89300   -672.69522     57.75313   -614.94209    1752.1477     93877.45    10.472245   0.15208913 
   89400   -668.77529    56.878966   -611.89632    1725.6268    99322.316    10.472245   0.16170683 
   89500   -662.52085    57.329568   -605.19129    1739.2974    107420.58    10.472245   0.17139914 
   89600   -671.90954    58.221668   -613.68787    1766.3624     95821.39    10.472245   0.13441295 
   89700    -669.9361    57.586381   -612.34972    1747.0887    98685.722    10.472245   0.15180119 
   89800   -668.96572    62.207766   -606.75795     1887.295    101336.93    10.472245    0.1593103 
   89900   -665.66496    65.360257    -600.3047    1982.9371    106214.27    10.472245   0.15500432 
   90000   -670.40658    58.993528   -611.41305    1789.7796    98656.178    10.472245   0.15159635 
   90100   -671.30186     59.12109   -612.18077    1793.6496    95414.019    10.472245    0.1568984 
   90200   -668.16742    65.716497   -602.45092    1993.7449    102675.58    10.472245   0.18823026 
   90300   -671.55938    59.520637   -612.03874    1805.7713    97199.344    10.472245   0.15390144 
   90400   -671.80828    59.788209   -612.02007    1813.8891    96524.173    10.472245   0.14567723 
   90500    -668.7133    65.046448   -603.66686    1973.4165    101898.88    10.472245   0.16438956 
   90600   -669.55479    57.430191    -612.1246    1742.3502    98754.262    10.472245   0.16823853 
   90700   -673.85087    62.169181   -611.68169    1886.1244    93339.742    10.472245   0.15652944 
   90800   -665.89594    61.343153   -604.55279    1861.0639    105212.96    10.472245   0.16207423 
   90900   -674.14226    64.575247   -609.56701     1959.121    94688.604    10.472245   0.12399268 
   91000   -673.71134    62.094312   -611.61702     1883.853    93824.853    10.472245   0.12806148 
   91100   -670.71965    62.972405   -607.74724    1910.4931    100051.93    10.472245    0.1328466 
   91200   -667.97628    59.727185    -608.2491    1812.0377    100935.47    10.472245    0.1527602 
   91300   -674.77392     60.12398   -614.64994    1824.0759    92916.662    10.472245   0.12988851 
   91400   -662.31843    57.895007   -604.42342     1756.452    109969.03    10.472245   0.17363545 
   91500   -669.38619    66.886229   -602.49996    2029.2329     100653.6    10.472245   0.14803915 
   91600   -669.50007     56.71728   -612.78278    1720.7215    99461.094    10.472245   0.13347494 
   91700   -672.93867    60.004766   -612.93391    1820.4591    94156.144    10.472245   0.13354192 
   91800   -666.43661    63.698262   -602.73835    1932.5145     103000.3    10.472245   0.19169964 
   91900   -667.23151    58.659598   -608.57191    1779.6486    101792.39    10.472245   0.16000303 
   92000   -669.38952    57.602327   -611.78719    1747.5725    99853.353    10.472245    0.1454659 
   92100   -669.67629    60.796339   -608.87995    1844.4743    99430.464    10.472245   0.15295519 
   92200   -667.88357    61.235315   -606.64826    1857.7922    102761.68    10.472245   0.15037361 
   92300   -674.74943    59.603778   -615.14565    1808.2937    92829.238    10.472245   0.14460541 
   92400   -670.74674    60.130084   -610.61666    1824.2611    96149.778    10.472245   0.16763795 
   92500   -670.17763    59.972512   -610.20512    1819.4806    98863.086    10.472245   0.16403055 
   92600   -668.06138    57.261291   -610.80009     1737.226    101361.18    10.472245   0.16420581 
   92700   -670.23976    58.174953    -612.0648    1764.9452     97072.61    10.472245    0.1406111 
   92800   -671.47235    65.906729   -605.56562    1999.5163    98381.975    10.472245   0.14220073 
   92900   -672.10032     61.44504   -610.65528     1864.155    95222.488    10.472245   0.17229691 
   93000   -672.08151      57.2456   -614.83591    1736.7499    95915.293    10.472245   0.14823744 
   93100   -668.95917    60.313182   -608.64599     1829.816    100867.09    10.472245    0.1607285 
   93200   -667.63726    57.912758    -609.7245    1756.9906    101227.13    10.472245   0.16077781 
   93300   -673.42113    60.402819   -613.01831    1832.5355    93989.683    10.472245   0.13770076 
   93400   -673.87871    55.562044   -618.31667    1685.6732    92096.967    10.472245   0.15091923 
   93500   -668.82358     61.04276   -607.78082    1851.9504    101631.35    10.472245   0.13613498 
   93600   -671.83102    59.562873   -612.26815    1807.0527     96504.92    10.472245   0.14305781 
   93700   -679.94134    60.970914   -618.97042    1849.7707     84448.74    10.472245   0.14626329 
   93800   -669.36824    61.850282   -607.51796    1876.4494    100449.01    10.472245   0.16370546 
   93900   -669.91429    59.838334   -610.07595    1815.4098    97869.917    10.472245   0.15987413 
   94000   -670.94174    51.744144    -619.1976    1569.8436    95283.852    10.472245   0.15404462 
   94100   -668.21259    61.167583   -607.04501    1855.7373    100867.38    10.472245   0.16021306 
   94200   -672.01792    59.736674   -612.28125    1812.3256    96809.011    10.472245   0.13663094 
   94300     -672.071     57.70758   -614.36342    1750.7657    94870.684    10.472245   0.15012282 
   94400   -669.61992    64.716887   -604.90304    1963.4181    101132.87    10.472245    0.1637581 
   94500   -670.49441    56.730176   -613.76424    1721.1127    99292.766    10.472245   0.16449761 
   94600   -669.32825    56.510821   -612.81743    1714.4578    98468.962    10.472245   0.15538558 
   94700   -669.29165    60.087237   -609.20442    1822.9612    99656.179    10.472245   0.15999026 
   94800    -671.5431    62.600174   -608.94293    1899.2001    97320.894    10.472245   0.14317579 
   94900   -675.76425     60.66691   -615.09734    1840.5476    90334.392    10.472245   0.11438542 
   95000   -668.98909    60.903407   -608.08568    1847.7226    101398.46    10.472245   0.16643445 
   95100   -665.75331    59.539402   -606.21391    1806.3406    102365.62    10.472245   0.17988587 
   95200   -670.49435    53.307144   -617.18721    1617.2628    96784.667    10.472245   0.14808126 
   95300   -669.73287    58.662519   -611.07035    1779.7372    99235.787    10.472245   0.16313736 
   95400   -666.78084    58.128423   -608.65242    1763.5335    102086.71    10.472245   0.17092739 
   95500   -673.38476    52.991071   -620.39369    1607.6736    92047.545    10.472245   0.13155678 
   95600    -671.4289    59.569336   -611.85956    1807.2488    97746.787    10.472245   0.13217122 
   95700   -671.80524    62.191687   -609.61356    1886.8072    97762.238    10.472245   0.15916664 
   95800   -667.77948    56.878963   -610.90052    1725.6267    100528.45    10.472245   0.18217723 
   95900   -673.42399    58.115817   -615.30818    1763.1511    94291.988    10.472245   0.14411567 
   96000   -665.05426    60.256453   -604.79781    1828.0949    106406.14    10.472245   0.15702131 
   96100   -669.31163    58.876686   -610.43494    1786.2348    99487.555    10.472245   0.14918644 
   96200   -671.57492    59.869798   -611.70512    1816.3644    97284.244    10.472245    0.1457764 
   96300   -667.79688     60.36413   -607.43275    1831.3617    100735.03    10.472245   0.14958667 
   96400   -659.69246    54.500344   -605.19212    1653.4628     110910.2    10.472245   0.21210953 
   96500   -671.38095    56.788693   -614.59226     1722.888    95732.364    10.472245   0.16371865 
   96600   -673.57991     64.55342   -609.02649    1958.4588    95632.039    10.472245   0.14670264 
   96700   -667.63712    68.029465   -599.60765     2063.917    104017.52    10.472245   0.18095794 
   96800     -674.139    65.069982   -609.06902    1974.1306    94636.156    10.472245   0.15720972 
   96900    -671.9655    58.049983   -613.91552    1761.1538    96614.568    10.472245   0.15464152 
   97000   -667.04227    63.208525   -603.83375    1917.6566    104443.71    10.472245   0.17752999 
   97100   -665.78071    56.436295   -609.34441    1712.1968     103001.7    10.472245   0.17020333 
   97200   -670.77279    58.362275   -612.41052    1770.6283    97863.781    10.472245   0.15417092 
   97300   -665.17985    56.649919   -608.52993    1718.6778    104914.82    10.472245   0.16038822 
   97400   -668.53341    66.123668   -602.40975    2006.0979     102792.6    10.472245   0.18389391 
   97500   -671.12481    57.732524   -613.39229    1751.5225    96640.561    10.472245   0.15930398 
   97600   -668.30663    58.635361   -609.67127    1778.9133    101228.99    10.472245     0.166206 
   97700   -661.71897    63.636929   -598.08205    1930.6537    109710.26    10.472245    0.1945386 
   97800   -670.58699    63.847751   -606.73924    1937.0498    98797.522    10.472245   0.14729216 
   97900   -671.13706    57.019391   -614.11767    1729.8871     97219.82    10.472245   0.13869007 
   98000   -668.64931    58.936651   -609.71265     1788.054     100775.8    10.472245   0.14100151 
   98100   -670.26397    64.266859   -605.99711    1949.7649    99889.786    10.472245   0.13871956 
   98200   -671.76812    57.992542   -613.77558    1759.4111    95851.134    10.472245   0.14790614 
   98300   -669.21137    60.947846   -608.26352    1849.0708    101191.33    10.472245   0.15126505 
   98400   -663.93236    60.663433   -603.26893    1840.4421    105984.81    10.472245   0.17599003 
   98500   -670.36342    57.180891   -613.18253    1734.7868    96462.593    10.472245   0.14307862 
   98600   -669.49985    56.035732   -613.46412    1700.0443    98815.974    10.472245   0.15824009 
   98700   -663.98744    58.018555   -605.96889    1760.2003     105544.4    10.472245   0.16572266 
   98800   -668.10956    56.731891   -611.37766    1721.1647    100453.91    10.472245   0.13751105 
   98900   -673.46411    55.728616   -617.73549    1690.7268    93670.863    10.472245    0.1243673 
   99000   -675.61195    59.948871   -615.66308    1818.7633    91319.152    10.472245   0.14066728 
   99100   -668.68948    61.026379    -607.6631    1851.4534     100035.1    10.472245   0.14595082 
   99200   -673.73683    58.952774   -614.78406    1788.5432    93404.693    10.472245   0.14891945 
   99300    -674.0305    60.169087   -613.86142    1825.4444    92658.376    10.472245   0.13922622 
   99400   -674.19857    63.998065   -610.20051    1941.6101    94470.867    10.472245   0.14415867 
   99500   -670.80231    62.399524   -608.40279    1893.1126    98840.858    10.472245   0.15645196 
   99600   -671.34471    58.340231   -613.00448    1769.9595    96401.475    10.472245   0.15423517 
   99700   -669.42527    55.018633   -614.40663    1669.1869    98504.322    10.472245   0.13538951 
   99800   -665.46892    60.767777   -604.70114    1843.6078       105931    10.472245   0.16236349 
   99900   -670.63082    57.811303   -612.81952    1753.9126    97685.088    10.472245   0.17286546 
  100000   -674.71002    61.738429   -612.97159     1873.056    93095.224    10.472245   0.13568281 
Loop time of 74.8458 on 1 procs for 100000 steps with 256 atoms

Performance: 577.187 ns/day, 0.042 hours/ns, 1336.080 timesteps/s
100.0% CPU use with 1 MPI tasks x no OpenMP threads

MPI task timing breakdown:
Section |  min time  |  avg time  |  max time  |%varavg| %total
---------------------------------------------------------------
Pair    | 44.905     | 44.905     | 44.905     |   0.0 | 60.00
Neigh   | 3.1273     | 3.1273     | 3.1273     |   0.0 |  4.18
Comm    | 0.77233    | 0.77233    | 0.77233    |   0.0 |  1.03
Output  | 0.027155   | 0.027155   | 0.027155   |   0.0 |  0.04
Modify  | 25.868     | 25.868     | 25.868     |   0.0 | 34.56
Other   |            | 0.1464     |            |       |  0.20

Nlocal:    256 ave 256 max 256 min
Histogram: 1 0 0 0 0 0 0 0 0 0
Nghost:    1435 ave 1435 max 1435 min
Histogram: 1 0 0 0 0 0 0 0 0 0
Neighs:    13117 ave 13117 max 13117 min
Histogram: 1 0 0 0 0 0 0 0 0 0

Total # of neighbors = 13117
Ave neighs/atom = 51.2383
Neighbor list builds = 5600
Dangerous builds = 2
Total wall time: 0:01:14
