LAMMPS (3 Mar 2020)
Reading data file ...
  orthogonal box = (0 0 0) to (16.36 16.36 16.36)
  1 by 1 by 1 MPI processor grid
  reading atoms ...
  256 atoms
  read_data CPU = 0.00114567 secs
Reading potential file /usr/share/lammps-stable/potentials/Ag_u3.eam with DATE: 2007-06-11
Neighbor list info ...
  update every 1 steps, delay 10 steps, check yes
  max neighbors/atom: 2000, page size: 100000
  master list distance cutoff = 7.55
  ghost atom cutoff = 7.55
  binsize = 3.775, bins = 5 5 5
  2 neighbor lists, perpetual/occasional/extra = 1 1 0
  (1) pair eam, perpetual
      attributes: half, newton on
      pair build: half/bin/atomonly/newton
      stencil: half/bin/3d/newton
      bin: standard
  (2) compute rdf, occasional, copy from (1)
      attributes: half, newton on
      pair build: copy
      stencil: none
      bin: none
Setting up Verlet run ...
  Unit style    : metal
  Current step  : 0
  Time step     : 0.001
Per MPI rank memory allocation (min/avg/max) = 3.744 | 3.744 | 3.744 Mbytes
Step PotEng KinEng TotEng Temp Press Density c_msdall[4] 
       0       -729.6    47.464325   -682.13568         1440    11578.021    10.472245            0 
     100   -701.05731    29.456081   -671.60123    893.65551    48182.556    10.472245  0.083841665 
     200   -689.63386    42.268789   -647.36507    1282.3748    68142.364    10.472245   0.11232955 
     300   -676.79638    49.954214   -626.84217    1515.5397    85766.933    10.472245   0.14966025 
     400   -673.77177    47.999689   -625.77208    1456.2422    90037.193    10.472245   0.14588933 
     500   -686.35872    46.380549   -639.97818    1407.1198    72814.677    10.472245   0.10612424 
     600   -687.52851    45.295812    -642.2327    1374.2104    71302.623    10.472245  0.095874923 
     700   -683.45172    52.254735   -631.19698    1585.3342    78595.229    10.472245   0.10731649 
     800   -680.10455    45.181514   -634.92303    1370.7427    81065.819    10.472245   0.13077394 
     900   -684.83919     50.58186   -634.25733    1534.5816    75806.916    10.472245   0.13228438 
    1000   -680.97264    48.067238    -632.9054    1458.2915    81611.106    10.472245   0.13655291 
    1100   -681.55311    50.931067   -630.62204     1545.176    81133.525    10.472245   0.11319821 
    1200   -682.01223    44.886029    -637.1262    1361.7782    79147.233    10.472245   0.11568022 
    1300   -680.12037    46.243141   -633.87723     1402.951    82247.906    10.472245   0.12727434 
    1400   -679.25209    48.432277   -630.81981    1469.3663    83922.232    10.472245   0.13299076 
    1500   -685.10937    49.379366      -635.73    1498.0996    76314.226    10.472245   0.11475962 
    1600   -683.19795    43.898197   -639.29975    1331.8087    77766.837    10.472245   0.11482638 
    1700     -680.989    47.915805    -633.0732    1453.6973    81138.621    10.472245   0.12059409 
    1800   -679.30386    50.338256    -628.9656     1527.191    83513.257    10.472245   0.12403744 
    1900   -684.45181    48.157825   -636.29398    1461.0398    76110.001    10.472245   0.10767917 
    2000   -685.02679    44.317027   -640.70976    1344.5155    74973.841    10.472245  0.099300827 
    2100   -683.81648    46.656946   -637.15953    1415.5053    76846.204    10.472245   0.10614693 
    2200   -679.97215    46.775317   -633.19683    1419.0965    81872.096    10.472245   0.12009437 
    2300   -683.10053    47.119767   -635.98077    1429.5466    78465.647    10.472245   0.12185924 
    2400   -684.56475    48.035564   -636.52919    1457.3306    76226.223    10.472245   0.11670857 
    2500   -678.56284    48.008512   -630.55433    1456.5099    83858.468    10.472245   0.11910158 
    2600   -685.35462    46.506857   -638.84777    1410.9518    75415.911    10.472245   0.10483886 
    2700   -684.90339    47.743359   -637.16003    1448.4655    75058.236    10.472245  0.096493997 
    2800   -680.60899    47.971034   -632.63796    1455.3728    81708.845    10.472245   0.11380684 
    2900    -680.6072    48.048656   -632.55854    1457.7277    81849.454    10.472245   0.12131825 
    3000     -682.955    48.129281   -634.82572    1460.1738    77984.277    10.472245   0.11362345 
    3100   -685.18447     44.28674   -640.89773    1343.5966    74430.667    10.472245   0.11260555 
    3200   -681.55755    48.744706   -632.81284    1478.8449    81037.314    10.472245   0.11602766 
    3300   -681.96513    50.345057   -631.62008    1527.3973    80231.766    10.472245   0.11358109 
    3400   -686.60623    48.086789   -638.51944    1458.8847    73934.236    10.472245  0.099740382 
    3500   -683.23813    47.164232    -636.0739    1430.8956    77643.355    10.472245  0.099885026 
    3600   -681.42188    45.516587   -635.90529    1380.9084    81053.817    10.472245   0.11265033 
    3700   -681.04138    54.006071   -627.03531    1638.4672    82880.045    10.472245   0.10766674 
    3800   -683.27645    46.445554   -636.83089    1409.0919    78198.694    10.472245   0.11128208 
    3900   -682.19275    48.212132   -633.98061    1462.6874    78495.756    10.472245    0.1127312 
    4000   -680.97331    46.983186   -633.99013    1425.4029    81326.972    10.472245   0.11609881 
    4100   -682.25108    41.264037   -640.98704    1251.8921    77824.111    10.472245   0.11124132 
    4200   -683.37979    44.438181   -638.94161    1348.1911    77402.135    10.472245   0.10370148 
    4300   -679.91733    48.627956   -631.28937    1475.3029    83002.686    10.472245   0.12137497 
    4400   -680.78892    48.649666   -632.13926    1475.9616    82017.566    10.472245   0.11151527 
    4500   -683.81793    46.724934     -637.093    1417.5679     77056.49    10.472245   0.10291412 
    4600   -683.27123    46.535249   -636.73599    1411.8131    78466.489    10.472245   0.11504334 
    4700   -679.91156    50.665047   -629.24652    1537.1053    83484.475    10.472245   0.12213667 
    4800   -682.42055    47.366223   -635.05433    1437.0237    79523.678    10.472245   0.11640246 
    4900   -683.01092    47.611419    -635.3995    1444.4626    78620.264    10.472245   0.11299963 
    5000   -681.71945     50.01996   -631.69949    1517.5343    80839.738    10.472245   0.11172608 
    5100   -682.55749    44.940699    -637.6168    1363.4368    78187.961    10.472245   0.11570382 
    5200   -682.85066    47.625934   -635.22472     1444.903    78750.828    10.472245   0.10431239 
    5300   -677.33668      46.6342   -630.70248    1414.8152    86206.183    10.472245   0.11682405 
    5400   -681.04885    43.112693   -637.93616    1307.9777    81810.926    10.472245   0.11691891 
    5500   -680.02022    45.776662   -634.24356    1388.7987    81763.446    10.472245   0.11125488 
    5600   -686.25217    46.825842   -639.42632    1420.6293    74368.185    10.472245   0.10360098 
    5700   -684.06446    46.516846   -637.54762    1411.2548    77300.216    10.472245   0.10649445 
    5800   -677.80586    45.979901   -631.82596    1394.9647    85334.761    10.472245   0.11073378 
    5900   -680.70418    45.886722   -634.81746    1392.1378     82501.54    10.472245   0.10785381 
    6000   -682.23773    45.313552   -636.92417    1374.7486    79157.836    10.472245   0.11643086 
    6100     -683.635    52.456198    -631.1788    1591.4463     78894.21    10.472245   0.11594797 
    6200    -679.6145    43.653799    -635.9607    1324.3941    82143.725    10.472245   0.12930834 
    6300   -684.89554    46.138737    -638.7568    1399.7835    74940.676    10.472245   0.11058548 
    6400    -684.8551    50.022942   -634.83216    1517.6248    76051.896    10.472245   0.10780698 
    6500   -679.46291    50.363415   -629.09949    1527.9543    84000.983    10.472245   0.13006443 
    6600   -679.85818    50.374098   -629.48408    1528.2784    84012.814    10.472245   0.12262688 
    6700   -685.86922    50.370667   -635.49855    1528.1743    74404.941    10.472245   0.10570483 
    6800   -685.93492    47.998269   -637.93666    1456.1991     74890.38    10.472245   0.10844083 
    6900   -679.03201    50.183842   -628.84817    1522.5063    85238.622    10.472245    0.1314973 
    7000   -676.73288    47.728605   -629.00427    1448.0179    86236.046    10.472245   0.13705283 
    7100   -685.91946     50.80512   -635.11434     1541.355    74922.278    10.472245  0.099618279 
    7200   -682.41019    43.212112   -639.19808    1310.9939    78160.327    10.472245   0.11362291 
    7300   -678.71513    45.651012   -633.06411    1384.9867    83324.436    10.472245   0.12721441 
    7400   -682.41651    50.410588   -632.00593    1529.3854    78799.751    10.472245   0.11709303 
    7500   -682.09422    45.931605   -636.16261    1393.4994    79107.174    10.472245   0.12033786 
    7600   -683.72557     52.34968   -631.37589    1588.2147    78445.425    10.472245    0.1252932 
    7700   -682.22454    46.944197   -635.28034      1424.22    79604.133    10.472245   0.13307549 
    7800   -685.40702    45.530899   -639.87612    1381.3426    74110.186    10.472245   0.12089987 
    7900   -682.84494    51.412782   -631.43216    1559.7906    79729.014    10.472245   0.10406943 
    8000   -682.61416    44.167726   -638.44643    1339.9859    77050.086    10.472245   0.10990611 
    8100   -684.06834       49.282   -634.78634    1495.1457    77719.544    10.472245   0.10880164 
    8200   -681.61732    46.625881   -634.99144    1414.5628    79874.009    10.472245   0.12375546 
    8300   -682.40736    48.500994   -633.90637     1471.451     79046.03    10.472245   0.12574295 
    8400   -681.62027    42.965689   -638.65459    1303.5178    79049.182    10.472245   0.13692568 
    8500   -681.72458    47.628832   -634.09574    1444.9909    80937.674    10.472245   0.10732272 
    8600   -686.41629    46.988202   -639.42809    1425.5551    73898.333    10.472245  0.096983106 
    8700   -683.93074    46.713542    -637.2172    1417.2223     76068.33    10.472245   0.11198409 
    8800   -680.57119    48.616484   -631.95471    1474.9548    81042.666    10.472245   0.11845458 
    8900   -685.77504    49.119411   -636.65563     1490.213     75075.87    10.472245   0.10386174 
    9000    -685.5324    46.937683   -638.59472    1424.0224    74728.857    10.472245   0.10247837 
    9100   -682.80299    47.694377   -635.10861    1446.9794     78327.18    10.472245   0.10747188 
    9200   -680.98451    44.580931   -636.40357    1352.5219    80753.899    10.472245   0.11534334 
    9300    -679.9658    46.217779   -633.74802    1402.1816    82090.594    10.472245   0.11557447 
    9400   -679.28482    44.030077   -635.25474    1335.8098    82634.323    10.472245   0.12679095 
    9500   -681.98585    49.591042   -632.39481    1504.5215    80193.149    10.472245    0.1164353 
    9600   -681.98192    43.844398   -638.13752    1330.1766    78589.734    10.472245   0.11971916 
    9700   -682.68945    51.307899   -631.38155    1556.6086    80294.592    10.472245   0.10447869 
    9800   -684.49016    45.233959    -639.2562    1372.3339     75308.29    10.472245   0.11031389 
    9900   -686.14142    48.812006   -637.32941    1480.8867    74480.761    10.472245   0.10232676 
   10000   -683.94096    51.552217   -632.38875    1564.0208    78297.933    10.472245   0.11097153 
Loop time of 6.88817 on 1 procs for 10000 steps with 256 atoms

Performance: 125.433 ns/day, 0.191 hours/ns, 1451.765 timesteps/s
100.0% CPU use with 1 MPI tasks x no OpenMP threads

MPI task timing breakdown:
Section |  min time  |  avg time  |  max time  |%varavg| %total
---------------------------------------------------------------
Pair    | 4.3259     | 4.3259     | 4.3259     |   0.0 | 62.80
Neigh   | 0.043282   | 0.043282   | 0.043282   |   0.0 |  0.63
Comm    | 0.065547   | 0.065547   | 0.065547   |   0.0 |  0.95
Output  | 0.00274    | 0.00274    | 0.00274    |   0.0 |  0.04
Modify  | 2.434      | 2.434      | 2.434      |   0.0 | 35.34
Other   |            | 0.01669    |            |       |  0.24

Nlocal:    256 ave 256 max 256 min
Histogram: 1 0 0 0 0 0 0 0 0 0
Nghost:    1431 ave 1431 max 1431 min
Histogram: 1 0 0 0 0 0 0 0 0 0
Neighs:    13020 ave 13020 max 13020 min
Histogram: 1 0 0 0 0 0 0 0 0 0

Total # of neighbors = 13020
Ave neighs/atom = 50.8594
Neighbor list builds = 77
Dangerous builds = 0
Total wall time: 0:00:06
