LAMMPS (3 Mar 2020)

# ---------- 1. Initialize simulation ----------
units metal
atom_style atomic
dimension 3
boundary p p p
read_data /home/modeler/RemLabs/Project/arrhenius_4/T1600.0/n3_T1600.0_timestep3.000000e-03_eqsteps3200_time600_rseed3342/20201205-133125/lammps.data
  orthogonal box = (0 0 0) to (17.469 17.469 17.469)
  1 by 1 by 1 MPI processor grid
  reading atoms ...
  217 atoms
  read_data CPU = 0.00100767 secs

pair_style meam/c
pair_coeff * * library.meam Li Si LiSi.meam Li Si
Reading potential file library.meam with DATE: 2012-06-29
Reading potential file LiSi.meam with DATE: 2020-11-07

group Li type 1
1 atoms in group Li
group Si type 2
216 atoms in group Si

velocity all create 1600.0 3342 dist gaussian

# ---------- 2. Specify equilibration ensemble  ----------
fix 1 all npt temp 1600.0 1600.0 0.15 tchain 2 iso 1.0 1.0 1.0 pchain 2
# fix 1 all nvt temp 1600.0 1600.0 0.15

# ---------- 3. Run equilibration -------------
timestep 0.003
run 3200
Neighbor list info ...
  update every 1 steps, delay 10 steps, check yes
  max neighbors/atom: 2000, page size: 100000
  master list distance cutoff = 6
  ghost atom cutoff = 6
  binsize = 3, bins = 6 6 6
  2 neighbor lists, perpetual/occasional/extra = 2 0 0
  (1) pair meam/c, perpetual
      attributes: full, newton on
      pair build: full/bin/atomonly
      stencil: full/bin/3d
      bin: standard
  (2) pair meam/c, perpetual, half/full from (1)
      attributes: half, newton on
      pair build: halffull/newton
      stencil: none
      bin: none
Per MPI rank memory allocation (min/avg/max) = 8.895 | 8.895 | 8.895 Mbytes
Step Temp E_pair E_mol TotEng Press Volume 
       0         1600   -951.04357            0   -906.37126   -115280.58    5330.9442 
    3200    1694.7045    -949.8678            0   -902.55132    806.44301    4614.9867 
Loop time of 2.31546 on 1 procs for 3200 steps with 217 atoms

Performance: 358.218 ns/day, 0.067 hours/ns, 1382.015 timesteps/s
100.0% CPU use with 1 MPI tasks x no OpenMP threads

MPI task timing breakdown:
Section |  min time  |  avg time  |  max time  |%varavg| %total
---------------------------------------------------------------
Pair    | 2.2343     | 2.2343     | 2.2343     |   0.0 | 96.49
Neigh   | 0.030728   | 0.030728   | 0.030728   |   0.0 |  1.33
Comm    | 0.014652   | 0.014652   | 0.014652   |   0.0 |  0.63
Output  | 2.4092e-05 | 2.4092e-05 | 2.4092e-05 |   0.0 |  0.00
Modify  | 0.030637   | 0.030637   | 0.030637   |   0.0 |  1.32
Other   |            | 0.005143   |            |       |  0.22

Nlocal:    217 ave 217 max 217 min
Histogram: 1 0 0 0 0 0 0 0 0 0
Nghost:    957 ave 957 max 957 min
Histogram: 1 0 0 0 0 0 0 0 0 0
Neighs:    4159 ave 4159 max 4159 min
Histogram: 1 0 0 0 0 0 0 0 0 0
FullNghs:  8318 ave 8318 max 8318 min
Histogram: 1 0 0 0 0 0 0 0 0 0

Total # of neighbors = 8318
Ave neighs/atom = 38.3318
Neighbor list builds = 52
Dangerous builds = 1

# ---------- 4. Describe computed properties----------
compute msdli Li msd
compute msdsi Si msd
thermo_style custom step pe ke etotal temp press density c_msdli[4] c_msdsi[4]
thermo 100

# ---------- 3. Run production -------------
timestep 0.003
run 200000
Per MPI rank memory allocation (min/avg/max) = 9.661 | 9.661 | 9.661 Mbytes
Step PotEng KinEng TotEng Temp Press Density c_msdli[4] c_msdsi[4] 
    3200    -949.8678    47.316474   -902.55132    1694.7045    806.44301    2.1853385            0 8.5818012e-32 
    3300   -950.59185    42.014472   -908.57738     1504.806    12578.466    2.2204087  0.050680735   0.11576335 
    3400   -944.67667    45.320408   -899.35626    1623.2127   -4624.1136    2.1623305   0.21107426  0.096514671 
    3500    -943.1489    41.636365   -901.51253    1491.2636    -4621.074    2.1567604   0.13319507  0.095105175 
    3600   -943.62712    38.920825   -904.70629    1394.0028     8750.472    2.1951994  0.056493279   0.12497869 
    3700   -951.42068    43.716786    -907.7039    1565.7767    8084.2176    2.2045458   0.12720813  0.094486974 
    3800   -941.95733    44.406285   -897.55105    1590.4721   -7837.7705    2.1455112    0.1591286   0.11049543 
    3900    -948.8638    46.055471   -902.80833    1649.5399   -5336.9923    2.1687864  0.035809965    0.1127459 
    4000   -947.16305    43.499316   -903.66373    1557.9878    9127.0935    2.2048677  0.021121927  0.089288322 
    4100   -943.72922    47.072715    -896.6565    1685.9739    3372.0101    2.1816781   0.26017696  0.099491398 
    4200   -942.22394    43.132774   -899.09116    1544.8595   -8034.2138    2.1492129   0.22009526   0.11488125 
    4300   -945.15532    40.260548   -904.89477    1441.9868   -1949.1211    2.1704615   0.45066234  0.091207897 
    4400   -944.15153    43.454239   -900.69729    1556.3732    11822.778    2.2026088  0.042405654   0.13026219 
    4500   -946.45404    50.171692   -896.28234     1796.968     1098.691    2.1787957   0.11929638      0.11076 
    4600   -949.24677    43.477765   -905.76901    1557.2159   -8249.7636    2.1632485   0.29128675   0.10464389 
    4700   -948.21642    44.313496   -903.90292    1587.1487   -3430.1198    2.1712209  0.028183471   0.12217071 
    4800   -947.25855    48.157669   -899.10088    1724.8331    7296.3825    2.1946105  0.081568557    0.1011567 
    4900   -949.87351    44.010925   -905.86259    1576.3117    16.147868     2.184681 0.0081468708   0.11627641 
    5000   -950.00237    43.012274    -906.9901    1540.5437   -10464.154    2.1585687  0.058264839   0.10221016 
    5100   -948.60983    46.937022   -901.67281    1681.1139     -109.659    2.1799153   0.31540777   0.10401292 
    5200   -948.32813    46.354632    -901.9735    1660.2548    8462.5452     2.202826   0.20894048   0.11186584 
    5300   -950.23622    40.001448   -910.23477    1432.7068    1220.2004    2.1888805   0.19504186  0.096121029 
    5400   -946.68745    44.100811   -902.58664    1579.5311   -9049.4426    2.1490012   0.12331531   0.12225829 
    5500   -949.16514    47.662659   -901.50248    1707.1036   -100.31948    2.1796224   0.18078497   0.12737885 
    5600   -950.62406    44.141978   -906.48208    1581.0056    10586.677    2.2107709  0.015334516   0.11655783 
    5700   -953.75044    44.920524   -908.82992    1608.8903   -4594.3223    2.1828362   0.07987754    0.1116007 
    5800   -945.71243    45.803535    -899.9089    1640.5165   -12346.376    2.1391763   0.16903249   0.11952801 
    5900   -943.75489     40.75678   -902.99811      1459.76    2998.5131     2.185055   0.05157407   0.11782062 
    6000   -951.22628    46.963579    -904.2627    1682.0651    10359.197    2.2135457   0.22136828   0.11775706 
    6100   -943.95568    49.532899   -894.42278    1774.0888    -5363.888    2.1574901    0.2127946   0.11333653 
    6200   -945.20814      44.3015   -900.90664    1586.7191   -5963.4299    2.1607707   0.31559212   0.11564716 
    6300    -946.6287    42.775091    -903.8536    1532.0487    3924.5868    2.1861499   0.14500681   0.11904406 
    6400   -947.80026    45.987441   -901.81281    1647.1034    6825.0451    2.1951346   0.14336905    0.1176708 
    6500   -941.66083    47.293945   -894.36688    1693.8976   -7125.6236    2.1482544  0.029295992   0.14282588 
    6600   -950.83703    46.533908   -904.30312    1666.6758   -5740.7868     2.169463  0.082863933   0.11740292 
    6700   -947.82452    44.540778   -903.28374    1595.2891    7192.2066    2.1930837  0.063532837   0.11152858 
    6800   -944.94254    44.787092   -900.15545    1604.1112    6261.5858    2.1832477   0.11345294   0.10619102 
    6900   -941.48976    47.038758     -894.451    1684.7577   -8879.5958    2.1399595   0.22327987   0.12087036 
    7000   -950.48957    45.362096   -905.12748    1624.7058   -1236.0977    2.1835134    0.2706266   0.11047928 
    7100   -948.40715    45.588863   -902.81829    1632.8277    10359.337    2.2052087  0.010485656   0.11083118 
    7200    -946.7411     45.27866   -901.46244    1621.7174     -3357.43    2.1673196  0.082438656   0.10444577 
    7300   -942.78643    49.534037    -893.2524    1774.1296   -14282.386    2.1266038  0.048444019    0.1190178 
    7400   -949.63244    45.625744    -904.0067    1634.1487      8886.38    2.2050238  0.070502977   0.11824397 
    7500   -950.53049    47.422205   -903.10829    1698.4914    9794.0353    2.2046014   0.23502136   0.11805471 
    7600   -948.79015    45.642179   -903.14797    1634.7373    -11320.32    2.1494136  0.050591494   0.12383032 
    7700   -944.23064    47.092964   -897.13768    1686.6992   -6829.0326    2.1513567   0.10432963   0.12461926 
    7800   -945.12838     49.62363   -895.50475    1777.3385    4499.9218    2.1829934  0.087460219    0.1141812 
    7900   -948.96752    45.474797   -903.49272    1628.7423    3430.6481    2.1870152   0.14679316  0.097672309 
    8000   -949.22532    46.227859   -902.99746    1655.7143    -953.5308    2.1716549   0.16999202   0.10890096 
    8100   -948.24605    45.826758   -902.41929    1641.3483   -3636.4139    2.1700123   0.15025811   0.11533544 
    8200   -953.79664    42.712156   -911.08448    1529.7945    713.12868    2.1928338  0.061549435  0.097599023 
    8300   -951.71081    44.069094   -907.64172    1578.3951     98.51159    2.1855396  0.043150399   0.10944313 
    8400   -947.09266    44.305621   -902.78704    1586.8667     1343.514    2.1789798  0.072391097   0.11681424 
    8500   -948.63584    46.933594   -901.70225    1680.9911   -1716.3692    2.1727009   0.12021067   0.11005049 
    8600   -951.51371    42.230744   -909.28297    1512.5521   -2564.4447    2.1817428  0.055967805   0.11778701 
    8700   -949.32949    42.093337   -907.23615    1507.6307   -671.22759    2.1827243   0.17660646   0.11606081 
    8800    -949.1914    47.472804    -901.7186    1700.3037    2117.8624    2.1858223  0.046334291  0.099780326 
    8900   -948.99836    45.493799   -903.50456    1629.4229   -1092.8069    2.1770845   0.41602349   0.11836616 
    9000   -952.92321    41.386867   -911.53634    1482.3275   -4265.5405    2.1821315   0.20265952   0.10412838 
    9100   -949.27012    45.753977   -903.51614    1638.7415   -4321.8159    2.1732788   0.41869399   0.11737726 
    9200   -946.91596     45.14825   -901.76771    1617.0466     7957.756    2.1967871   0.18222953   0.13076729 
    9300   -948.03527    42.904853   -905.13042    1536.6962    4926.7691    2.1896106  0.078594906   0.10872348 
    9400   -950.25346    38.137903   -912.11556    1365.9614     -9601.25    2.1648547   0.13362608   0.12790231 
    9500   -949.92612    45.652458   -904.27367    1635.1055   -6488.3083    2.1709697  0.088712605   0.12618144 
    9600   -947.24664    45.622846   -901.62379    1634.0449    14732.302    2.2152764   0.14735223   0.12039327 
    9700   -942.89625    39.273921   -903.62233    1406.6494    4566.3902    2.1839044  0.038087041   0.13046957 
    9800   -942.69641    45.663493   -897.03292    1635.5007    -9403.829    2.1437162   0.13230124     0.127166 
    9900    -947.0837    50.392756   -896.69094    1804.8858   -2529.0254    2.1697212  0.066809405   0.11786546 
   10000   -947.38582    45.275029   -902.11079    1621.5874    5477.5443    2.1959897   0.12938262    0.1279511 
   10100   -948.03603     43.96566   -904.07037    1574.6905    344.02512    2.1814979   0.13576197   0.10658174 
   10200   -944.48089    47.297463   -897.18343    1694.0236   -4235.4204    2.1629394   0.20085789   0.12941801 
   10300   -945.40631    47.269702    -898.1366    1693.0293    1264.5877    2.1762106  0.054795099   0.12050517 
   10400     -949.073     45.51196   -903.56104    1630.0734    1267.0727    2.1871458  0.086642923    0.1174434 
   10500   -949.42861    46.464361   -902.96425    1664.1849   -2433.7366    2.1822806   0.11913003   0.13886513 
   10600   -946.82016    52.454858    -894.3653    1878.7428   -4514.6727    2.1629534   0.19351535   0.12283922 
   10700     -946.786    45.047602    -901.7384    1613.4417    1490.5821    2.1817563  0.070870839   0.12075707 
   10800    -947.8188    44.011627   -903.80717    1576.3369   -2821.1995    2.1753743  0.074476758    0.1242289 
   10900   -946.65713    45.415162   -901.24197    1626.6064   -1566.7632    2.1757345   0.24043077   0.12138215 
   11000    -941.6441    47.266995    -894.3771    1692.9324    1892.4288     2.172891    0.1889158   0.13748149 
   11100   -943.63613    42.000365   -901.63576    1504.3007    4556.9941     2.178164   0.19452492   0.10536686 
   11200   -946.99802     43.38747   -903.61055    1553.9818   -9401.8352    2.1527509   0.21092023   0.10959268 
   11300   -946.92812      44.2066   -902.72152    1583.3201    3068.1931    2.1832361   0.08788562   0.10107624 
   11400    -944.4167    41.278657   -903.13805    1478.4518    15168.028    2.2122997   0.27969217   0.11073863 
   11500   -943.77009    47.044747   -896.72534    1684.9722   -1036.8327    2.1667407    0.1513044    0.1276754 
   11600   -945.52935    49.421767   -896.10759    1770.1085   -11592.539    2.1435581    0.1860012   0.13104643 
   11700   -945.62939    44.392597   -901.23679    1589.9818    2332.4362    2.1801272   0.33350513   0.11897898 
   11800   -948.78325     45.69209   -903.09116     1636.525    8810.1181    2.2031032  0.034262298   0.12870552 
   11900   -948.43188    42.181531   -906.25035    1510.7895    -812.8679    2.1780755   0.35950695   0.11547099 
   12000   -945.83297    43.551728   -902.28125    1559.8649   -6278.6726      2.16145   0.11671898   0.11132522 
   12100   -941.82202    43.672669   -898.14935    1564.1966    3372.1476    2.1771588   0.16318344   0.12714128 
   12200   -946.49214    45.023807   -901.46833    1612.5895    2704.1761     2.182172   0.17972625  0.097352209 
   12300    -949.9234    45.136085   -904.78731    1616.6109   -4559.1728    2.1746195   0.06980235   0.12327505 
   12400   -948.60718    45.389892   -903.21729    1625.7013    -2657.879     2.172343  0.089547152   0.10797212 
   12500   -947.28407    50.922191   -896.36188    1823.8482    1429.3397    2.1728505   0.26883894    0.1047395 
   12600   -947.25318    44.496827   -902.75635     1593.715    2780.0411    2.1853847  0.056214204   0.12812278 
   12700   -945.51201    40.591957   -904.92005    1453.8567    -329.9231     2.174084   0.13001819   0.12640927 
   12800   -944.68104    48.396523   -896.28452    1733.3879   -4019.9229     2.161796  0.047045631   0.12433244 
   12900   -945.57523    44.964234   -900.61099    1610.4558    6245.7529    2.1920408   0.34934001    0.1336807 
   13000   -948.26046    43.917639   -904.34283    1572.9706    259.97596    2.1861909   0.14954743   0.11183398 
   13100    -946.0919    44.687398   -901.40451    1600.5405   -5538.1689    2.1638693  0.095665948   0.10998635 
   13200   -942.81349    47.934258   -894.87923    1716.8313   -2490.9557    2.1651557     0.146939   0.13175886 
   13300   -947.55045    42.799604   -904.75084    1532.9266    11265.361    2.2114296   0.13227078   0.11327945 
   13400   -948.09165    44.735967   -903.35568    1602.2801   -905.85044    2.1760143  0.039990431   0.12428186 
   13500   -944.98571    44.720219   -900.26549    1601.7161   -10809.085    2.1484295  0.036344883   0.13368271 
   13600   -948.72229    39.558734   -909.16356    1416.8504    1790.0492    2.1907792  0.081291742   0.12703278 
   13700   -951.26169    45.141108   -906.12058    1616.7908    6867.2379    2.2024866  0.076448299   0.12312935 
   13800   -948.00601    46.497326   -901.50868    1665.3656    189.67829     2.177366   0.16064982   0.12108805 
   13900   -946.55072    43.433687   -903.11704    1555.6372   -8021.0034    2.1605368   0.14359533   0.12412195 
   14000   -955.76512    45.397166   -910.36796    1625.9619   -1125.9592    2.1961426   0.17077777   0.10573115 
   14100   -945.93324    44.550611   -901.38263    1595.6413    7622.1214    2.1921251   0.14090164   0.10740226 
   14200   -948.57294    46.293883   -902.27906     1658.079   -3423.2862    2.1737868   0.10023608   0.11402182 
   14300   -952.82025    45.282371   -907.53788    1621.8503   -9999.1981     2.165585  0.057778732    0.1087794 
   14400   -952.65791    46.943907     -905.714    1681.3605     3772.262    2.1964488  0.012897212  0.093491839 
   14500   -947.40064    48.258879   -899.14176     1728.458    13222.675    2.2098754  0.027078437   0.11631148 
   14600   -944.84287    41.071541   -903.77132    1471.0336   -10688.574    2.1522514   0.13634496   0.13722067 
   14700   -947.43782    43.286829   -904.15099    1550.3772   -14875.952    2.1447535   0.25967941   0.11908173 
   14800   -948.68182    48.834069   -899.84775    1749.0593    11492.711    2.2096575    0.1493006   0.11543505 
   14900   -943.10346    47.189152    -895.9143    1690.1443    6234.0304    2.1857343  0.035027687   0.12112779 
   15000   -946.29704    43.828861   -902.46817    1569.7909   -8957.1381    2.1556362   0.18044355   0.11330173 
   15100   -945.45458      41.2402   -904.21437    1477.0744   -2431.9398    2.1720677   0.18110876   0.12009949 
   15200   -948.60909    46.835392    -901.7737    1677.4739     7012.342    2.1989018   0.15714786   0.11202847 
   15300   -943.06302    47.713826   -895.34919    1708.9362     292.4055     2.168507     0.100745   0.10995144 
   15400   -946.33475    43.194804   -903.13994    1547.0812   -6207.5531    2.1624559   0.13161914   0.11016254 
   15500   -944.49019    40.684347   -903.80584    1457.1658    1669.5266    2.1831457  0.033222607   0.12056127 
   15600   -945.87273    48.103259   -897.76947    1722.8843    6812.9478    2.1950986   0.19874557   0.12653661 
   15700   -942.75041    44.588867   -898.16155    1597.0115   -3094.6513    2.1627033   0.16995408   0.12505948 
   15800   -948.56584     43.39833   -905.16751    1554.3708      -8992.7    2.1564863   0.21670465   0.11344216 
   15900   -943.81102     42.15611   -901.65491     1509.879    6997.4034    2.1910756 0.0095055948   0.12755833 
   16000   -946.86159    50.660554   -896.20104    1814.4773    6011.8097    2.1892284   0.18889473   0.12003704 
   16100   -947.61825    45.432371   -902.18588    1627.2228   -7951.7755    2.1590841  0.030854134   0.11712323 
   16200   -948.58637     43.69466   -904.89171    1564.9843    -8422.978    2.1622225   0.13866721   0.10667569 
   16300   -948.94613    48.043229    -900.9029    1720.7342    5048.3064    2.1912612  0.043914811  0.094588675 
   16400   -944.11306    41.700382   -902.41268    1493.5565    4207.2273    2.1841584  0.032046016   0.11026164 
   16500   -951.49316    41.769434   -909.72372    1496.0296   -2627.2985    2.1830175  0.084805308   0.11032656 
   16600    -947.0839     43.75948   -903.32442    1567.3059   -1034.6716    2.1745827  0.062297155   0.11514204 
   16700   -947.31139    46.273829   -901.03756    1657.3607    507.43327    2.1787646   0.37147284   0.12087576 
   16800   -952.92422    43.999655   -908.92456    1575.9081   -1288.2131    2.1894036   0.40958277   0.13080492 
   16900   -946.95143    41.040932   -905.91049    1469.9374    23.546401     2.176517   0.13497564   0.12730671 
   17000   -948.99798    47.893939   -901.10404    1715.3872    426.64023    2.1796966  0.058296311   0.12407624 
   17100   -946.56008    41.847815   -904.71226     1498.837    1959.2883    2.1840096   0.26665415    0.1084606 
   17200   -950.38251    40.282172   -910.10034    1442.7613   -207.18895    2.1903221   0.14105088   0.10312188 
   17300   -946.55326    46.011559    -900.5417    1647.9672   -4958.3245    2.1626133   0.21384584   0.10651867 
   17400   -947.77467    45.339963   -902.43471     1623.913    800.75152    2.1818916     0.230375   0.12090104 
   17500   -950.99995    45.136192   -905.86376    1616.6147     7201.975     2.204882   0.22465397   0.11408765 
   17600   -943.49461    45.181192   -898.31342    1618.2265   -2958.9628    2.1637696   0.21117486   0.13021017 
   17700   -947.93416    48.803983   -899.13018    1747.9817   -9591.4469    2.1509198   0.43869789   0.13312346 
   17800   -949.42364    46.019678   -903.40396     1648.258    4907.0167    2.1937558   0.21689916   0.11858106 
   17900   -948.52331    44.374613    -904.1487    1589.3377    9946.1535    2.2089668   0.13065854   0.12481227 
   18000   -940.10607    45.315617   -894.79045    1623.0411   -5533.3682    2.1487287   0.11882824   0.12429335 
   18100   -946.75121    44.285068   -902.46614    1586.1306   -5645.4068    2.1621674   0.22306186   0.11291782 
   18200   -949.93451    46.253449   -903.68106    1656.6308    6057.0025    2.1979456  0.055791071   0.10786503 
   18300   -946.48183    45.966217   -900.51561    1646.3432    4696.4116    2.1925781   0.39637336    0.1101028 
   18400   -941.57286    45.787923   -895.78493    1639.9574   -7953.4318      2.14515  0.040791162   0.12783539 
   18500   -949.98898    44.270645   -905.71834     1585.614   -2818.8907     2.179789   0.27116363   0.12412167 
   18600   -947.56892    44.898688   -902.67024    1608.1082     9125.549    2.1998109   0.22449142   0.11717011 
   18700   -948.53579    49.366279   -899.16951    1768.1211     475.8451    2.1787029   0.19054785   0.11896727 
   18800   -942.67981    45.425171   -897.25464    1626.9649   -7690.2524     2.147818  0.012502278   0.11572621 
   18900   -950.52481    44.267502   -906.25731    1585.5014    1802.3388    2.1909529  0.021848278   0.11081072 
   19000   -950.26913    47.710157   -902.55897    1708.8048    7784.7777    2.2030508  0.033312873   0.11564821 
   19100    -947.1934    45.558083   -901.63532    1631.7253   -3148.7044    2.1707619   0.20636059    0.1221714 
   19200   -952.28266    43.427677   -908.85498    1555.4219   -8590.0712    2.1688087  0.083352269   0.10258886 
   19300   -950.05188    42.570554   -907.48132    1524.7229    1804.6549    2.1907799   0.26624497   0.11555176 
   19400   -949.42828    47.633137   -901.79514    1706.0462    2422.8084    2.1878399    0.2030223     0.119269 
   19500   -944.27944     41.78333   -902.49611    1496.5273    276.68127    2.1739722  0.028515673   0.13688116 
   19600   -950.02478    38.943339   -911.08145    1394.8092   -1475.3375    2.1838418  0.041555879   0.12543539 
   19700   -946.02263    42.641857   -903.38077    1527.2767    2214.3492    2.1802071   0.45497038   0.11816281 
   19800   -946.71631    45.081911    -901.6344    1614.6706    3877.4756    2.1872259   0.19490828   0.12255569 
   19900   -948.56883    41.350777   -907.21806    1481.0349    585.79569    2.1815234  0.030992978   0.10921268 
   20000   -949.28522    41.323572   -907.96165    1480.0605   -2421.8502    2.1764986   0.13397106   0.11583883 
   20100   -945.46811    44.601946   -900.86616      1597.48   -115.03634    2.1753981   0.17866679   0.11871043 
   20200   -946.31838    43.219619   -903.09876      1547.97    2362.7604    2.1835071   0.13918933   0.11626848 
   20300   -950.16969    42.506929   -907.66276     1522.444   -1393.9672    2.1799523  0.031715414   0.10977681 
   20400   -947.41974    43.509303   -903.91044    1558.3455   -144.04452    2.1775973   0.32902329   0.12069796 
   20500   -945.13203    45.230056   -899.90198    1619.9766    4946.3442    2.1846405  0.016418641   0.12324786 
   20600   -944.13454    41.328163   -902.80638    1480.2249    -384.6079    2.1709809   0.21590582   0.11849531 
   20700   -946.64956    41.098698   -905.55086    1472.0063   -3595.3734    2.1684338  0.048602217   0.11058081 
   20800   -946.42355    38.094842   -908.32871    1364.4191    7161.0573    2.1993303  0.054036167   0.10945572 
   20900   -947.01363    48.707521   -898.30611    1744.5268    345.12147    2.1781054  0.063948161   0.11412196 
   21000   -945.88736    45.535262    -900.3521    1630.9079   -1577.3377    2.1712518  0.052973423   0.11622948 
   21100   -948.72098    45.602789   -903.11819    1633.3265   -3927.0856    2.1723374  0.044204876    0.1205465 
   21200   -949.51557    45.431237   -904.08433    1627.1822    1601.1488    2.1869864  0.096329141   0.11010722 
   21300   -941.02752    47.010886   -894.01664    1683.7595    4289.1915    2.1775525  0.028503838   0.12510502 
   21400    -945.2734    45.724492   -899.54891    1637.6855    1351.5979    2.1752785   0.10702888    0.1112292 
   21500   -948.43735    44.336166   -904.10118    1587.9607   -6261.7749    2.1659789   0.17218995   0.11308348 
   21600   -948.39442    45.972506   -902.42191    1646.5684     -787.556    2.1803884   0.23658498   0.11953892 
   21700   -943.25277    49.949136   -893.30364    1788.9969    6021.3033     2.180989  0.035340832   0.11732447 
   21800   -946.35649    44.125045   -902.23144    1580.3991    1317.9129    2.1846097  0.053514866   0.10781955 
   21900   -947.50327    43.096078   -904.40719    1543.5452   -9489.2473    2.1588678  0.045759383   0.12601437 
   22000   -945.06412    46.160443   -898.90368    1653.2997   -2214.6087    2.1711759  0.056233727   0.12299101 
   22100   -942.34091      47.8133   -894.52761     1712.499    8299.9025    2.1950309   0.14369978   0.14051582 
   22200   -947.77836    44.206988   -903.57137     1583.334    2617.0326    2.1893109   0.18317387   0.12654297 
   22300   -946.35961     42.92357   -903.43604    1537.3666   -8480.6072    2.1547938   0.50932078   0.11621958 
   22400   -944.49361    45.835088   -898.65852    1641.6466   -1561.2423    2.1667129   0.36320441   0.11758623 
   22500   -940.78591    46.299574   -894.48633    1658.2828    14331.542    2.1981924   0.14037877   0.12172417 
   22600   -950.10764    45.334312   -904.77333    1623.7106    3702.5103    2.1977373   0.22747164   0.11157159 
   22700   -946.58769    43.044591    -903.5431    1541.7011   -9860.6492    2.1499336   0.26382784   0.12039749 
   22800     -944.766    42.786985   -901.97901    1532.4747   -2676.0939    2.1666896   0.10551038   0.11471375 
   22900   -951.25832    43.284999   -907.97332    1550.3117    8454.2297    2.2069963  0.040835659    0.1143805 
   23000   -953.49488     44.58719   -908.90769    1596.9515    393.95885    2.1947156  0.046935155    0.1130699 
   23100   -948.22767    45.195299   -903.03237    1618.7317   -4656.1995    2.1695276  0.082846159    0.1188835 
   23200   -946.46812    44.420237   -902.04788    1590.9718   -590.52899    2.1749142   0.31577279   0.11997945 
   23300   -955.21653    45.748793   -909.46773    1638.5559    -976.2288    2.1946496  0.049489369   0.10606763 
   23400   -950.75045    43.786263   -906.96419    1568.2651   -1081.8763    2.1867671   0.14727536   0.11124699 
   23500   -946.30682    44.184426    -902.1224    1582.5259   -1317.3174    2.1765236   0.21168614   0.11875131 
   23600   -951.24238    48.306287    -902.9361     1730.156   -2813.0278    2.1785041   0.09828962   0.11027192 
   23700   -954.75648    43.502523   -911.25395    1558.1026     1805.868    2.2010915  0.042520045   0.12102683 
   23800   -949.13195    45.166854   -903.96509    1617.7129   -1811.8956    2.1801672  0.040113896   0.11675558 
   23900   -950.68871    48.641784   -902.04692    1742.1723   -3223.5585     2.179294  0.069828098   0.11617056 
   24000   -944.70472    40.550125    -904.1546    1452.3584    766.04467    2.1843703   0.19212877   0.13993414 
   24100   -951.17176    39.016797   -912.15496    1397.4402    761.93033    2.1958405  0.068732824   0.12204614 
   24200   -947.36894    43.323403   -904.04553    1551.6872   -2417.6093    2.1770046   0.18421502   0.13240237 
   24300   -943.99785    41.716772   -902.28107    1494.1435    7135.6202    2.1924372   0.21900051   0.12592627 
   24400   -948.72471     45.76898   -902.95573    1639.2789    775.28155    2.1900412   0.11747196   0.11782021 
   24500   -946.31523    42.473763   -903.84146    1521.2562   -7078.8924    2.1646387  0.091121073   0.14197683 
   24600   -953.37549    40.348131   -913.02736    1445.1237   -25.493261    2.1975585   0.10773638   0.11475898 
   24700   -947.81683    41.303965   -906.51287    1479.3582    6145.3317    2.1990264   0.31890645    0.1323539 
   24800   -945.49211    42.617525   -902.87459    1526.4052   -962.27632    2.1770204   0.18385597   0.13509543 
   24900   -949.23319      47.4765   -901.75668    1700.4361   -6399.0783    2.1654847   0.27468002   0.12686363 
   25000   -954.28134    43.527626   -910.75371    1559.0017   -1037.2775    2.1968044   0.24586275   0.12786614 
   25100   -946.54213    40.581358   -905.96077    1453.4771    4364.9339    2.1932133   0.15576831   0.12804179 
   25200    -947.1192     45.23369   -901.88551    1620.1067    -2141.628    2.1784533   0.10383219    0.1334989 
   25300   -947.27893    43.657306   -903.62163    1563.6464   -6696.2179    2.1679108  0.036912392   0.13230606 
   25400   -952.42072    41.394786   -911.02594    1482.6111    2766.4668    2.2018029  0.046694441   0.11630275 
   25500   -947.96887    45.887934   -902.08094    1643.5394    3128.9652    2.1916761  0.027603728   0.11654379 
   25600     -945.862    43.480688   -902.38131    1557.3206   -3651.7782    2.1706379  0.036612667   0.12730115 
   25700   -944.89523    39.345529   -905.54971    1409.2141   -4109.6457    2.1711881   0.13373992    0.1239961 
   25800   -954.16576    42.758463    -911.4073    1531.4531     6017.882     2.211458  0.025824856   0.12104816 
   25900   -947.83825    46.265049    -901.5732    1657.0463    2126.6973    2.1867973  0.036538498   0.13355462 
   26000   -945.74308    43.182056   -902.56102    1546.6246    -7131.899    2.1625205   0.10080135   0.13610658 
   26100   -948.21441    44.117838   -904.09657     1580.141   -2761.7516    2.1784225 0.0078288857   0.13860887 
   26200   -949.61766    38.945719   -910.67194    1394.8944    12912.768     2.224558  0.040078988   0.11255239 
   26300   -948.61201    41.424365   -907.18764    1483.6705     3150.118    2.1949552  0.053204771   0.12133203 
   26400   -947.20768    43.768379    -903.4393    1567.6246   -10363.549    2.1570461   0.19859896    0.1336517 
   26500   -943.93016    40.819885   -903.11028    1462.0203   -1334.3351    2.1747491  0.073544066   0.12315136 
   26600   -949.88457     49.09965   -900.78492    1758.5714    10779.272    2.2096932  0.015556572   0.11937644 
   26700   -943.71377    51.938949   -891.77482    1860.2648   -2117.8434    2.1626351   0.18020004   0.14056727 
   26800   -945.39588    43.931243   -901.46463    1573.4578    -6277.204    2.1556525   0.12276262   0.12553711 
   26900    -943.5269    40.352827   -903.17407    1445.2919    4227.5932    2.1831829    0.2359047   0.13855639 
   27000   -947.48027    45.113353   -902.36692    1615.7967    9364.7117    2.2024118    0.2457869   0.12532694 
   27100   -941.39313    48.833632    -892.5595    1749.0436   -2780.1904    2.1604096  0.036309149   0.10582413 
   27200   -942.48382    42.105534   -900.37828    1508.0675   -2153.2062     2.165107   0.29442811   0.13119777 
   27300   -946.26754    42.977244    -903.2903     1539.289    1691.5148    2.1794001  0.054312551   0.11585723 
   27400   -948.36729    45.098266   -903.26903    1615.2564    1185.1145    2.1847205  0.068035356   0.12600766 
   27500    -941.2946    47.788586   -893.50602    1711.6138     488.9469    2.1613516  0.095254275   0.12044754 
   27600    -945.8533    44.359425   -901.49387    1588.7937    791.65202    2.1785647  0.029429806   0.11267018 
   27700   -948.12184    44.256123   -903.86571    1585.0938   -1392.6955    2.1765225    0.1657852   0.11924671 
   27800   -947.56304    46.208911   -901.35413    1655.0356   -1344.9041    2.1761357   0.25484314   0.12753164 
   27900   -940.83894    47.837002   -893.00194    1713.3479    1291.3743    2.1654888   0.10942367   0.12268783 
   28000   -949.64222    46.468519    -903.1737    1664.3338     2779.103    2.1911417  0.084738427   0.11764905 
   28100   -947.83515    44.650837   -903.18431    1599.2311   -554.41366    2.1752853  0.070874931   0.11820441 
   28200   -947.85349    46.504367   -901.34912    1665.6178    -6130.213     2.166314   0.14632366   0.12213177 
   28300   -941.64494    49.023123   -892.62182    1755.8305    3883.6244    2.1759717   0.26733761   0.13848054 
   28400   -943.39664    45.625825   -897.77082    1634.1516     7210.647    2.1854873  0.091287539   0.12917909 
   28500   -947.48101    45.189473   -902.29154    1618.5231   -10270.857    2.1527813   0.12676197   0.11751372 
   28600   -946.71846    42.836617   -903.88185    1534.2523   -3154.5621    2.1713666   0.14999762    0.1135264 
   28700   -947.81995    44.417922   -903.40203    1590.8889    13263.449    2.2134209   0.17316049   0.11698214 
   28800   -942.48506    48.531029   -893.95403    1738.2054   -436.47654    2.1633536    0.2530622   0.12240117 
   28900   -947.10081    45.262855   -901.83795    1621.1513    -11017.13    2.1495862   0.33306173   0.12326997 
   29000   -949.01088    45.160535   -903.85034    1617.4866    2564.4807    2.1862906   0.10164357   0.10969044 
   29100   -951.02082    49.374148   -901.64667    1768.4029    10293.916    2.2099919   0.13552305   0.10796205 
   29200   -942.54911    47.449453   -895.09966    1699.4673    -5400.611    2.1519218  0.075190644   0.12668466 
   29300   -945.00823    40.306901   -904.70133     1443.647   -4538.5175     2.167941   0.10097589   0.11916303 
   29400   -945.52976     42.24171   -903.28805    1512.9449    5639.5326    2.1896653   0.10834689   0.13089413 
   29500   -943.59235    44.892404   -898.69995    1607.8831    4498.4605    2.1821957   0.14644506   0.11682958 
   29600   -943.44763    46.807005   -896.64062    1676.4572   -4562.8175    2.1582391  0.096632129   0.13074868 
   29700   -949.22121     44.09507   -905.12614    1579.3255    1158.3099    2.1844305  0.028067589   0.11349103 
   29800   -948.51794    46.167959   -902.34998    1653.5689    4572.0001     2.190046    0.1646211   0.11713803 
   29900   -945.23063    45.184274   -900.04635    1618.3368   -524.01513    2.1706766  0.094023963    0.1166071 
   30000   -950.63974    43.379664   -907.26008    1553.7022   -5369.8936    2.1684097   0.20978675   0.11178779 
   30100   -951.76382    44.354435   -907.40938     1588.615   -480.85967    2.1852556  0.031028357   0.10562983 
   30200   -948.09246    45.802037   -902.29042    1640.4628    7649.1627    2.1968533 0.0097219565   0.10941559 
   30300    -946.2547     44.76571   -901.48899    1603.3454   -910.35277    2.1749763   0.14470949   0.12962586 
   30400   -949.44387    40.744724   -908.69915    1459.3282   -9565.0708    2.1621014   0.30285349   0.12630029 
   30500   -951.84073    44.395672   -907.44506     1590.092   -1932.0046    2.1845202   0.11907497   0.12357353 
   30600   -952.38108    51.411293   -900.96979    1841.3661    7656.0638    2.2059399  0.056043749   0.10926609 
   30700   -951.22133    47.805254   -903.41607    1712.2108   -3626.6119    2.1745099  0.056660278    0.1156651 
   30800   -950.43348    39.745627   -910.68785    1423.5442    -11294.35    2.1579026  0.032522214    0.1193844 
   30900   -946.24012    41.662575   -904.57754    1492.2024    3540.3224    2.1879244   0.15162758   0.12880873 
   31000   -947.57424    46.977826   -900.59641    1682.5754    11216.303     2.205251   0.13608621   0.11762187 
   31100   -948.76031    43.182585   -905.57773    1546.6436    -1935.874    2.1745863   0.22631517   0.10850999 
   31200   -951.13201    44.209546   -906.92246    1583.4256   -5963.7277    2.1710814  0.044210731   0.10963724 
   31300   -943.05476    44.888224   -898.16653    1607.7334   -1424.0447    2.1665981    0.1098165   0.11897774 
   31400   -945.82181     43.40463   -902.41718    1554.5964    5174.5357    2.1848827   0.19169938   0.12458316 
   31500    -949.4212     44.18654   -905.23466    1582.6016    454.20061    2.1843016    0.1783857   0.12263359 
   31600   -943.93143    47.306421   -896.62501    1694.3444   -1938.9225    2.1625913   0.15895251   0.13000222 
   31700   -948.46596    48.574753    -899.8912    1739.7715   -69.736783    2.1756386   0.15038541   0.12155793 
   31800   -949.12307    44.590167    -904.5329    1597.0581    2309.5868    2.1852659  0.038803095   0.10406795 
   31900   -949.80583    48.259679   -901.54615    1728.4867   -1501.5082    2.1780695   0.42421967   0.11736834 
   32000   -940.96867    45.375189   -895.59348    1625.1747   -1689.6514    2.1616809   0.41437397   0.14191178 
   32100    -949.0405    43.999812   -905.04069    1575.9137      619.706    2.1876951   0.22341583    0.1057791 
   32200   -952.12645    49.027584   -903.09887    1755.9903   -31.424368    2.1881742  0.069290816   0.11576034 
   32300    -946.2851    49.084961   -897.20014    1758.0453   -3942.1257    2.1640334   0.19711943   0.11741456 
   32400   -948.36407    44.716715   -903.64736    1601.5905   -7690.4202    2.1650946   0.16278315   0.12358546 
   32500   -949.80206    44.736309   -905.06575    1602.2924    1554.9375    2.1888479   0.15916966   0.12525308 
   32600   -947.89067     48.07493   -899.81574    1721.8696    7847.5729    2.1962731  0.090193508   0.12740426 
   32700   -948.68908    45.705883    -902.9832     1637.019   -6541.9748    2.1659557   0.21584504   0.11081395 
   32800   -949.10128    40.693761   -908.40752    1457.5029   -6702.0153    2.1679674   0.40663506   0.11307733 
   32900   -946.07962    44.720892   -901.35873    1601.7402    6041.1682    2.1950713   0.60020954   0.11953185 
   33000   -946.02162    44.355391   -901.66623    1588.6493    8137.3915    2.1965337   0.30639078   0.11926374 
   33100   -947.69515    37.723807   -909.97135      1351.13   -4704.9997    2.1720165   0.20708421   0.11741108 
   33200   -943.09316     40.04031   -903.05285    1434.0987   -4949.9159    2.1579463    0.1032671   0.10112356 
   33300    -948.4267    48.146513   -900.28018    1724.4335     8060.757    2.1972924  0.039639147   0.11274128 
   33400   -949.51201    43.551759   -905.96025    1559.8661    4949.1235     2.199019   0.11757156   0.10630537 
   33500   -948.18503    44.788687   -903.39634    1604.1683    -8164.804    2.1600368   0.28442668   0.12414135 
   33600   -945.77883    46.917654   -898.86118    1680.4202   -6978.3327    2.1586805   0.14650047   0.13201432 
   33700   -950.30403    46.639632    -903.6644    1670.4625    2808.6463    2.1928737  0.047589778   0.12503572 
   33800   -947.90002    42.603134   -905.29689    1525.8897    4377.7593    2.1921154    0.1073369   0.11967828 
   33900   -945.27443    49.050762   -896.22367    1756.8204   -6875.1786    2.1557253   0.42105482   0.12236543 
   34000   -947.90046     44.27696    -903.6235    1585.8401    856.68795    2.1796664   0.26492887   0.11747103 
   34100   -948.81764    44.327627   -904.49001    1587.6548     1129.023    2.1856856    0.1630837    0.1164132 
   34200   -945.86252     48.73278   -897.12974    1745.4314    -2584.942    2.1690709   0.12124233   0.12354415 
   34300   -947.80572    45.214971   -902.59075    1619.4363   -2417.5984    2.1723991  0.023809061   0.11512885 
   34400   -948.28555    42.643883   -905.64166    1527.3493   -2534.4558    2.1755079   0.22189366   0.11953639 
   34500   -944.49012    44.712893   -899.77722    1601.4537    3511.5899     2.181062  0.035853273   0.12681696 
   34600   -946.66776    43.928473   -902.73928    1573.3586    2139.0128     2.184341   0.15996678   0.12762912 
   34700   -949.41097    41.786718   -907.62425    1496.6487   -3116.4958    2.1789793  0.071582082   0.11870889 
   34800   -946.33841    44.968504   -901.36991    1610.6087   -1019.4179    2.1734068   0.18455777   0.11706357 
   34900   -952.03512    50.948858   -901.08626    1824.8033   -293.16996    2.1839884  0.089968715   0.11254683 
   35000   -951.36091    42.424639   -908.93627    1519.4967    2031.4295    2.1973353  0.062997059   0.10641431 
   35100   -946.07208    44.502903   -901.56918    1593.9326   -6688.7986    2.1606893   0.27071375   0.11926703 
   35200   -947.00953    45.468318   -901.54121    1628.5103   -4824.8148    2.1688794  0.012797986   0.12386498 
   35300   -951.06327    43.874023   -907.18925    1571.4084    9780.4767    2.2123321   0.11648775   0.10435059 
   35400   -948.23498    47.379805   -900.85518    1696.9728    3618.1297    2.1899768   0.12307918   0.12748227 
   35500   -941.85779    41.374499   -900.48329    1481.8845   -8558.0464    2.1495589    0.4439667   0.13490755 
   35600    -946.7986    40.907546   -905.89105      1465.16   -3494.3167    2.1687841  0.060052365   0.10603642 
   35700    -948.7076    45.664981   -903.04262     1635.554    11174.929    2.2070984  0.076415755   0.11876087 
   35800   -942.83185    45.616365   -897.21548    1633.8128    3228.6461    2.1770894  0.038174704   0.11489674 
   35900   -946.60742    41.197951   -905.40946    1475.5612   -8398.4857    2.1608969  0.047471875   0.11512196 
   36000   -949.38523    45.836167   -903.54906    1641.6853   -4626.3422    2.1730454  0.077378825    0.1176683 
   36100   -947.35774    51.573187   -895.78455    1847.1645    4969.4944    2.1885317   0.19118953   0.10894393 
   36200   -946.71295    42.250678   -904.46227    1513.2661    4500.3443    2.1899688   0.34416924   0.12063918 
   36300   -947.84553    43.213709   -904.63182    1547.7583   -5583.4734    2.1637065   0.27361846   0.11480462 
   36400   -946.15205    47.949117   -898.20293    1717.3635   -3210.8399    2.1669377    0.2888144   0.11100573 
   36500   -949.40432    43.214708   -906.18962    1547.7941    5782.6164    2.1973253  0.025655904   0.12269198 
   36600    -948.8886    43.663455   -905.22514    1563.8666   -1306.7063    2.1806683  0.058912379   0.11634581 
   36700   -945.10421    45.352906   -899.75131    1624.3766   -2683.6787     2.165018   0.10039514   0.12055408 
   36800   -948.52693    41.930147   -906.59678    1501.7858    1316.9172    2.1855371  0.063330749   0.11014745 
   36900    -947.7833    41.427324   -906.35598    1483.7765    3777.9258    2.1879614  0.070838137   0.10308882 
   37000   -945.81892    45.746563   -900.07236     1638.476   -1067.8076    2.1706233   0.16403138   0.11246953 
   37100   -952.84882    47.184286   -905.66454      1689.97   -3245.6138    2.1798822   0.14643158   0.10768333 
   37200     -950.832    43.831488   -907.00051    1569.8849    877.97407    2.1889161   0.19698827   0.12223997 
   37300     -946.231    47.109523   -899.12148    1687.2923   -414.43717    2.1719634    0.2827172    0.1146075 
   37400   -950.85042    46.233976   -904.61644    1655.9334   -3952.3516    2.1736379   0.36418804   0.10801209 
   37500   -954.07481     48.02793   -906.04688    1720.1863   -3791.6242    2.1809146   0.27839603    0.1089581 
   37600   -947.45417    50.065422   -897.38875    1793.1619    475.77975    2.1746608  0.077890582   0.11654271 
   37700   -949.86078    46.162076   -903.69871    1653.3582   -4833.2898    2.1740987  0.099405388   0.11647994 
   37800   -951.19558    45.438256   -905.75733    1627.4336   -6684.7462    2.1685741  0.072330861   0.10836719 
   37900   -943.20295     46.49431   -896.70864    1665.2576    3259.6026    2.1702241   0.19390637  0.099946124 
   38000   -949.88638    46.765007   -903.12137     1674.953    8063.8073     2.197554   0.28102856   0.10807842 
   38100   -947.40778    41.827259   -905.58053    1498.1007   -1006.8172    2.1724428   0.31263895   0.11738985 
   38200   -943.20397     44.62565   -898.57832     1598.329   -6919.0461      2.14684     0.216146   0.11252821 
   38300    -950.6003    47.514053   -903.08624    1701.7811    294.32455    2.1825879   0.14019009   0.10752398 
   38400   -948.63002    42.977434   -905.65258    1539.2958    8250.5966    2.2009539  0.048204109    0.1033291 
   38500   -945.13864    44.339329   -900.79931     1588.074   -1741.0954    2.1674166 0.0012395346   0.11575106 
   38600    -944.2646    43.571955   -900.69265    1560.5894   -7515.2512    2.1507088    0.1533505    0.1307159 
   38700   -950.58221    42.513962   -908.06824    1522.6959    5866.3581    2.1984614  0.055404586   0.10760663 
   38800    -947.3862     46.81968   -900.56652    1676.9111    7238.5846    2.1938173   0.61744896   0.10984538 
   38900   -946.23074    44.051462   -902.17928    1577.7636   -5641.4275    2.1609742   0.29086077   0.11062896 
   39000   -951.11186    41.515287   -909.59657     1486.927   -7740.0418    2.1683882  0.092116326   0.10218099 
   39100   -947.05063    44.779962   -902.27067    1603.8558    5845.2359    2.1904944   0.18125049   0.12206258 
   39200   -949.82475    49.510196   -900.31456    1773.2757    6106.8932    2.1990592   0.11546657   0.11967675 
   39300   -949.48957    41.861001   -907.62857    1499.3093   -5647.6867     2.171921   0.01722929   0.11434218 
   39400   -943.52045    42.098893   -901.42155    1507.8297   -5193.9322     2.159877   0.19444567   0.12988703 
   39500    -947.4324    48.240054   -899.19235    1727.7838    3223.0562    2.1866369   0.26842396   0.12051372 
   39600   -952.89577    47.656884   -905.23888    1706.8968    560.64915    2.1887415  0.021951693   0.10466675 
   39700   -948.58336    47.987691   -900.59567     1718.745   -4144.8014    2.1712157   0.16231844   0.12224806 
   39800   -941.41687    43.530732   -897.88614     1559.113   -910.71198     2.162496   0.16370664   0.11298262 
   39900   -949.08436    43.605064    -905.4793    1561.7753    1205.8334    2.1868826   0.16418557   0.10586141 
   40000    -946.2527    44.623473   -901.62923     1598.251    4059.0461    2.1842451  0.046067557   0.11726211 
   40100   -943.53429    45.866229   -897.66806     1642.762   -1869.4618    2.1639105   0.13969157    0.1148884 
   40200   -947.01147    39.882006   -907.12946    1428.4288    1369.3089    2.1858203  0.086118872   0.12272369 
   40300   -947.17642    44.122084   -903.05434     1580.293    841.49868    2.1820603  0.098685287   0.12380409 
   40400    -946.3059    47.007879   -899.29802    1683.6518   -1071.1573    2.1726033   0.01238201    0.1223893 
   40500   -952.08633    43.534639   -908.55169    1559.2529   -1595.2691    2.1858684   0.23199706    0.1142187 
   40600   -949.88998      45.4061   -904.48388    1626.2818   -4954.3602    2.1708071  0.080431277   0.11927656 
   40700    -947.3905     47.33278   -900.05772    1695.2885   -1619.3932    2.1738899   0.19046312   0.12044064 
   40800   -950.46706    43.664196   -906.80286    1563.8932    4378.5369    2.1958343   0.12967897   0.11445905 
   40900   -950.41632    43.839488   -906.57683    1570.1715   -2862.2119    2.1789661  0.064660461   0.10906501 
   41000   -945.03975    44.100983   -900.93876    1579.5373   -4877.6255    2.1627637   0.21601797   0.13041389 
   41100    -948.1236    43.330701    -904.7929    1551.9486    2254.5773    2.1862357  0.089577197   0.10884318 
   41200   -949.70778    41.855012   -907.85276    1499.0947    6812.7499    2.2022169   0.14995095   0.11006381 
   41300   -946.95887    47.804005   -899.15486    1712.1661   -6545.4576    2.1594057   0.23664435   0.12095922 
   41400   -948.25937    44.333168    -903.9262    1587.8533   -5515.2002    2.1650506   0.11729307   0.11664433 
   41500    -947.4449    41.826631   -905.61827    1498.0782    7903.1086    2.2020787   0.23318479   0.12290795 
   41600     -940.994    44.862791   -896.13121    1606.8225    6074.8451    2.1803009   0.29097075   0.12720136 
   41700   -947.51411    45.103838   -902.41027    1615.4559   -6205.2747    2.1612608    0.1173908   0.12219138 
   41800   -951.08128    45.582244   -905.49904    1632.5907   -5795.0201    2.1703412   0.18971353   0.11177583 
   41900   -946.48311    48.607778   -897.87534    1740.9543     6893.231    2.1929566  0.061687924   0.12248355 
   42000     -945.054     45.42896   -899.62504    1627.1006    6477.1197    2.1868924   0.76950717   0.10794414 
   42100   -950.97108    44.901178    -906.0699    1608.1974   -12310.202      2.15672    0.4014251   0.11072613 
   42200   -944.44778    43.195365   -901.25242    1547.1013   -2037.9766     2.165741   0.09742263    0.1111498 
   42300   -942.27846    46.549387   -895.72907    1667.2302    11983.425    2.1963653    0.3474417   0.10880253 
   42400   -951.57431    45.974882   -905.59942    1646.6536    4829.8938    2.1958183  0.098262994   0.11459507 
   42500   -947.73792     43.76443   -903.97349    1567.4832   -11862.516    2.1505801  0.075018244   0.12432519 
   42600   -944.42611    44.934952   -899.49116     1609.407   -2227.0226    2.1641282  0.045943107   0.13134359 
   42700   -949.23941     41.59321    -907.6462    1489.7179    8912.7801    2.2018917   0.24942397   0.11361725 
   42800   -948.11405    43.483719   -904.63033    1557.4291   -129.08336     2.179923  0.030341009   0.11401612 
   42900   -945.56083    45.018669   -900.54216    1612.4054   -3829.1973    2.1641111  0.016881892   0.11365803 
   43000   -950.75988    43.921642   -906.83824     1573.114   -1919.8439    2.1818147   0.13276572   0.10746909 
   43100   -951.07795    45.558908   -905.51904    1631.7549    3123.7984     2.189914  0.017811284   0.10290921 
   43200   -946.92847    47.475486   -899.45298    1700.3997    -832.1457    2.1737037   0.01606271   0.10762724 
   43300   -950.62226    45.256138   -905.36612    1620.9108   -4541.5654    2.1715069     0.230443   0.10946841 
   43400   -948.91418    45.272247   -903.64194    1621.4877   -1536.9649    2.1804471  0.075049172   0.11916635 
   43500   -942.78057    45.692069   -897.08851    1636.5242    3577.8971    2.1764907   0.12956092    0.1332412 
   43600   -948.20499    43.620767   -904.58422    1562.3377   -1357.6503    2.1771101   0.34976704   0.12202524 
   43700   -950.36684     46.63088   -903.73596     1670.149   -5588.3229    2.1691321  0.074249981    0.1071066 
   43800   -944.72693    48.908727    -895.8182    1751.7332    1289.9462    2.1703148   0.06572649   0.11420009 
   43900   -948.07146    43.538694   -904.53277    1559.3981    7020.7263    2.2001833   0.17559757    0.1203491 
   44000    -948.4103    44.064877   -904.34543    1578.2441   -3487.3497    2.1689694 0.0063400021    0.1080887 
   44100   -945.28526    46.712357    -898.5729    1673.0672   -11188.821    2.1460099  0.058249413    0.1230155 
   44200      -947.13    40.110531   -907.01947    1436.6138    10376.533     2.203426   0.12832961   0.10402342 
   44300   -949.49532    44.466647   -905.02867    1592.6341    9494.9524    2.2005201  0.010379922   0.10066725 
   44400   -944.06286    43.126569   -900.93629    1544.6373   -6871.5948    2.1533788   0.30019269   0.13761615 
   44500   -947.45274     45.84441   -901.60833    1641.9805   -7353.7873    2.1557497   0.26254198   0.13110662 
   44600   -950.42559    42.815785    -907.6098    1533.5062    12338.117    2.2143624   0.19261088   0.11028649 
   44700   -945.56362    45.939674   -899.62394    1645.3925    6542.2179    2.1861969   0.21056837   0.12360067 
   44800   -949.24316    46.960366   -902.28279      1681.95   -9818.7408    2.1561388   0.14267131   0.10997431 
   44900   -952.98588    44.756253   -908.22963    1603.0067    -5021.877    2.1773045  0.089909544   0.11205313 
   45000   -947.36409    46.572253   -900.79184    1668.0492    6010.1188    2.1937935 0.0028362439   0.11936665 
   45100   -943.57437     43.14189   -900.43248     1545.186    5124.5837     2.185943   0.14099116   0.12584577 
   45200   -951.02483    44.425165   -906.59967    1591.1483     -4024.63    2.1738453   0.25771285   0.10852089 
   45300   -945.90972    45.359863   -900.54985    1624.6258     -1895.51    2.1735124  0.094858908   0.13573961 
   45400   -945.56133    46.967268   -898.59406    1682.1972    1653.7895    2.1826439  0.070213214   0.13991191 
   45500   -947.26934    41.642512   -905.62682    1491.4838    2008.3459    2.1859725   0.29337592   0.13733987 
   45600   -947.89077     46.56636   -901.32441    1667.8381   -3400.2881    2.1716341  0.059100493   0.13842494 
   45700    -944.1609    46.260946   -897.89995    1656.8993    689.20337    2.1739418   0.21425009   0.12455933 
   45800   -950.87416    45.109403   -905.76475    1615.6552    3317.2676    2.1938464  0.026038423    0.1278948 
   45900   -947.74712    46.139761   -901.60736    1652.5589    2336.3892     2.180373   0.15661714   0.12524692 
   46000   -945.83312    47.268903   -898.56422    1693.0007   -4880.4765    2.1625397  0.035018084   0.12461788 
   46100   -952.47459    45.014729   -907.45986    1612.2643   -675.05361    2.1903924  0.098689044    0.1174616 
   46200   -947.57085    45.681671   -901.88918    1636.1518    5254.5043    2.1959426    0.1041294   0.12253298 
   46300   -943.46195    43.499692   -899.96226    1558.0012   -1918.6587    2.1671282    0.3528027   0.13656736 
   46400   -950.11792    40.999209   -909.11871     1468.443   -8617.1657    2.1658167   0.35334727   0.13985392 
   46500   -947.67065    43.631074   -904.03958    1562.7068    3774.0219    2.1915217  0.090712393   0.14599085 
   46600   -946.04222    46.824474   -899.21775    1677.0828    12062.166    2.2039269   0.23916054   0.12818706 
   46700   -947.98662    41.285176   -906.70144    1478.6853   -6800.5803    2.1663766  0.086155576   0.13357193 
   46800   -948.93177    43.540217   -905.39155    1559.4527    -10665.64    2.1534082  0.064836755   0.10931285 
   46900   -947.52181    48.320368   -899.20144    1730.6604    5314.5667    2.1900442  0.077619248    0.1244431 
   47000   -948.68607    45.201971    -903.4841    1618.9707      7538.16    2.2010005   0.16129446   0.12097107 
   47100   -950.42717    42.428421   -907.99875    1519.6322   -5743.3353     2.171006   0.42410708   0.10835068 
   47200   -947.63125    49.142577   -898.48867    1760.1089   -9398.1283    2.1572665   0.10784227   0.13383159 
   47300   -951.93724    49.986798   -901.95044    1790.3458     4795.162       2.1977  0.045775558   0.12209834 
   47400   -949.27757    43.802276   -905.47529    1568.8387    4539.8602    2.1955469   0.15987125   0.13287841 
   47500    -941.6391    44.041546   -897.59755    1577.4084    -2845.743     2.157799   0.17045289   0.14097415 
   47600   -944.70537    43.611663    -901.0937    1562.0116   -1517.6035    2.1698607  0.059760335   0.12647859 
   47700   -949.63194    44.561804   -905.07013    1596.0422    3817.0219    2.1925127    0.0376898   0.10449248 
   47800   -948.49284    48.902053   -899.59078    1751.4942    476.33849    2.1813682   0.13380901   0.11849809 
   47900   -945.04469    45.191025   -899.85366    1618.5786   -3382.6703    2.1657441   0.13551413   0.11033794 
   48000   -953.00087    46.300028   -906.70084    1658.2991   -2315.6205    2.1841501   0.12430899   0.10921112 
   48100   -949.45097    48.710903   -900.74007    1744.6479    2454.9668     2.185647   0.35978201   0.11176562 
   48200   -946.02082    45.324218    -900.6966    1623.3491    642.93724    2.1752542   0.03568984   0.10506483 
   48300   -949.69959    40.962019   -908.73757     1467.111   -612.17181    2.1864971   0.22521219   0.13341118 
   48400   -945.54062    43.611822    -901.9288    1562.0173   -139.95031    2.1759512  0.064741663   0.12986122 
   48500   -941.17185     40.11007   -901.06178    1436.5972    3131.6046    2.1787211   0.11926866    0.1438077 
   48600   -949.77302    40.546131   -909.22689    1452.2154     700.9704    2.1923834  0.099095882   0.12187422 
   48700   -947.08389    45.074264   -902.00962    1614.3967   -1555.1999    2.1735618  0.017135408    0.1199091 
   48800   -946.87051    45.803866   -901.06664    1640.5284   -1768.2635    2.1757694  0.010221267   0.11215798 
   48900   -948.28962    40.790966   -907.49866    1460.9845    2926.2928    2.1904836   0.28439368   0.11930394 
   49000    -948.2515    46.543427   -901.70807    1667.0168   -1159.1098    2.1777761   0.25660025   0.10741469 
   49100   -946.17405    46.220214   -899.95384    1655.4404   -895.24207    2.1753214 0.0078759499   0.12156666 
   49200   -949.90406    44.177674   -905.72638    1582.2841   -3204.4934     2.181953  0.042876009   0.12725305 
   49300   -949.65242    46.680518    -902.9719    1671.9269   -1754.5846    2.1819214  0.014489067   0.11694331 
   49400    -944.1474    46.406083   -897.74132    1662.0976   -234.90596    2.1715408   0.13206148   0.14823939 
   49500   -948.86526    44.028068    -904.8372    1576.9257   -1026.6467    2.1835102   0.18729435    0.1247752 
   49600   -945.98077     43.02975   -902.95102    1541.1696    1662.8501    2.1809951  0.032899272   0.11377636 
   49700   -944.98553    48.786879   -896.19865    1747.3691   -2510.2105    2.1660048   0.14366679   0.11756795 
   49800   -950.49961    45.185267   -905.31434    1618.3724    1357.3233    2.1893795   0.15557587   0.10550217 
   49900   -948.19612    44.889027   -903.30709    1607.7622    1920.0832    2.1854747  0.017411059   0.11534576 
   50000   -939.95052    42.390596   -897.55992    1518.2774    -1426.259    2.1605302   0.35175987   0.13690734 
   50100   -948.28426    41.620421   -906.66384    1490.6926    234.64131    2.1844321   0.11044672   0.10892264 
   50200   -949.35736    44.571084   -904.78628    1596.3746     3076.791    2.1909257  0.097868904   0.12418014 
   50300   -944.15228    44.146706   -900.00557    1581.1749     1390.796     2.175406  0.030141022   0.11995021 
   50400   -948.68117    44.913082   -903.76809    1608.6237   -4995.6854    2.1674954   0.26942351    0.1095539 
   50500   -949.06633    41.306222   -907.76011    1479.4391    831.16488    2.1868149   0.22958144   0.12619018 
   50600   -945.36168    44.903261   -900.45842     1608.272    6915.2045    2.1916529   0.60322912   0.11406609 
   50700   -946.89368    43.562578    -903.3311    1560.2536   -1522.8716    2.1758032    0.1498989   0.12061402 
   50800   -951.48889    41.447483   -910.04141    1484.4985   -6031.8271    2.1729166   0.16374821   0.11175564 
   50900   -946.49756     44.96879   -901.52877     1610.619   -968.40651    2.1767036   0.20124194   0.11388561 
   51000   -946.07684    44.480151   -901.59669    1593.1177    8393.0398    2.1981201   0.22050394   0.12103102 
   51100   -952.34404     44.28572   -908.05832    1586.1539    -1108.435    2.1845094   0.29128312   0.11603905 
   51200   -943.12498    43.568891   -899.55609    1560.4797   -8629.1146    2.1491791   0.14755661   0.12572589 
   51300   -942.25537    41.940502   -900.31487    1502.1567    6615.9574    2.1856917  0.032207587   0.12522166 
   51400   -948.11443    43.500291   -904.61414    1558.0227    10551.276      2.20677   0.12855458   0.12814042 
   51500    -946.2402    45.348819   -900.89138    1624.2302   -4663.0543    2.1661163   0.38155903   0.12006161 
   51600    -943.0007    44.910622   -898.09008    1608.5356   -10260.662    2.1446561   0.26818282   0.12004617 
   51700   -950.68145    45.568713   -905.11274    1632.1061     4141.906    2.1930889   0.46905457  0.095326307 
   51800   -949.28057    47.348454   -901.93212    1695.8499    12293.493    2.2100748  0.053700581   0.10788498 
   51900   -943.10323    45.481537    -897.6217    1628.9837   -5682.6716    2.1517362  0.076444807   0.11067809 
   52000   -948.17765    41.243869   -906.93378    1477.2058   -10335.652    2.1545952   0.43088828   0.11649589 
   52100    -946.7828     42.30041   -904.48239    1515.0473    5093.2744    2.1916296   0.12253476    0.1097691 
   52200   -945.71886    46.219506   -899.49935    1655.4151    8629.9887    2.1938541   0.10362812   0.10546291 
   52300   -946.61699    42.443903   -904.17309    1520.1867   -2301.8056    2.1686703   0.13217215   0.11229255 
   52400   -950.33551    42.794804   -907.54071    1532.7547   -2506.5973    2.1783865   0.13317569   0.11127564 
   52500   -948.84788     48.59658    -900.2513    1740.5532    729.98776    2.1790632   0.15519361   0.12667967 
   52600   -950.39734    46.559918   -903.83742    1667.6074     421.8928    2.1812761   0.21443407    0.1053372 
   52700   -952.51636    43.285234   -909.23113    1550.3201   -2955.3993    2.1841691  0.090346678   0.10749386 
   52800   -946.58583    46.207652   -900.37818    1654.9905   -1055.2069    2.1672624   0.12939829   0.10746475 
   52900   -949.52931    46.932884   -902.59643    1680.9657    1307.2466    2.1828214  0.028513999   0.11027081 
   53000   -950.43668    42.557361   -907.87932    1524.2503    4643.1637    2.1968362  0.018218381   0.10757648 
   53100   -944.11301    45.493325   -898.61969    1629.4059   -3504.1564    2.1637216   0.29807073   0.10900658 
   53200   -946.44537    45.253013   -901.19236    1620.7988   -1216.7231    2.1694084   0.14531287  0.097252281 
   53300   -951.69649     45.85306   -905.84343    1642.2903    2538.7236    2.1953324   0.12343021   0.10469187 
   53400   -946.40845    44.919755   -901.48869    1608.8627    2236.4366    2.1855083  0.015674501   0.11330883 
   53500   -944.81259      46.1256   -898.68699    1652.0517   -6096.8924    2.1559563  0.063641865   0.13247339 
   53600   -946.89849    41.398467   -905.50003     1482.743   -3360.5643    2.1689235  0.039564847    0.1145558 
   53700   -946.89322    44.533823    -902.3594      1595.04    10368.044    2.1999799   0.14985721    0.1041207 
   53800    -944.1433    48.614236   -895.52906    1741.1856    6291.3414    2.1825116   0.14496112    0.1224802 
   53900   -947.13119    42.640109   -904.49109    1527.2141   -9034.7759    2.1565374   0.13551059   0.11884906 
   54000   -947.72626    43.604079   -904.12218      1561.74    -6816.188    2.1623492    0.3310519   0.11034071 
   54100   -948.30357    50.917307   -897.38626    1823.6733    7320.4787    2.1988186  0.066699765   0.11801411 
   54200   -949.49181    45.069524   -904.42228    1614.2269    3650.9331    2.1932263   0.20945836   0.10938653 
   54300    -950.5715    44.136299    -906.4352    1580.8022   -11561.806    2.1575119  0.033652891   0.11538916 
   54400   -942.97776    42.589052   -900.38871    1525.3854   -267.55164    2.1714994  0.039718752   0.13546464 
   54500   -945.34289    41.337826   -904.00507     1480.571    7976.5569    2.1975518   0.25281194   0.13481548 
   54600   -950.70782    43.007967   -907.69985    1540.3894    907.51033    2.1906162    7.0284874   0.14166483 
   54700   -946.78355    46.472556   -900.31099    1664.4784   -7520.3282     2.161598    5.4460755   0.14064496 
   54800   -948.87655    47.036921   -901.83963    1684.6919   -2063.7921    2.1754992    5.5535537   0.15224912 
   54900   -946.58219    38.731863   -907.85032    1387.2349    6725.9135    2.1994081    4.6527975   0.15559396 
   55000   -948.56603    49.115815   -899.45021    1759.1504   -4412.8907    2.1746225    4.3214748   0.15166472 
   55100   -943.93318    43.742132   -900.19105    1566.6845   -1537.4246      2.17048    1.9163819   0.13097546 
   55200   -945.56616    40.134684   -905.43147    1437.4788    1106.6965    2.1798426    1.8637583   0.14034089 
   55300   -943.34155    44.347559   -898.99399    1588.3687    5464.9314    2.1858508    2.1395065   0.13828794 
   55400   -943.28161    45.246091   -898.03551    1620.5509     1452.775    2.1731402    7.0289214     0.164961 
   55500   -947.26196    42.717049   -904.54491    1529.9698   -9436.9928    2.1568957    5.8180605    0.1602972 
   55600   -946.09735    45.775989   -900.32136    1639.5299     -3494.25    2.1677296     12.94668   0.12767138 
   55700   -944.74011    52.592591   -892.14752    1883.6759    11958.959    2.1948356    16.141689   0.12796503 
   55800   -946.13158    44.623197   -901.50838    1598.2411    4471.3124    2.1847535    19.020458   0.12128329 
   55900   -947.24407    44.702612   -902.54146    1601.0854   -15919.207    2.1384723    19.199959   0.13491934 
   56000   -941.66682    44.626637   -897.04018    1598.3643   -1663.4119    2.1640423    19.394669    0.1472742 
   56100   -950.26644    46.932454   -903.33399    1680.9503    12357.135    2.2178071    25.484576   0.13943242 
   56200   -950.85602    46.332691   -904.52333     1659.469   -2154.1199    2.1789234    23.416057   0.11833626 
   56300    -946.0984     46.82797   -899.27043    1677.2081   -8382.4498    2.1571764    21.789717   0.13979611 
   56400   -942.90897    41.632246   -901.27673    1491.1161     4305.932    2.1814834    23.953846    0.1338549 
   56500   -948.97871    42.652181   -906.32653    1527.6464    7216.0636    2.1976525    30.114357   0.14243449 
   56600   -945.94374    46.786036    -899.1577    1675.7061   -1409.5125    2.1673166    29.024439   0.14068044 
   56700   -944.93915    43.153571   -901.78558    1545.6044    -1348.577    2.1670024    32.056149   0.14086498 
   56800   -947.33648    40.370888    -906.9656    1445.9388    4856.1469    2.1903512    30.906387   0.14532645 
   56900   -945.16379    46.898939   -898.26485    1679.7499    4144.0239    2.1811597    32.532109   0.15308079 
   57000    -946.7186    45.087607     -901.631    1614.8746   -168.12408    2.1730871    31.985156   0.13281067 
   57100   -946.53419    39.717063   -906.81713    1422.5212   -2935.0116    2.1736226    26.209644    0.1425464 
   57200   -944.48951    46.251132   -898.23838    1656.5478    2600.0726    2.1749732    30.189489   0.13246432 
   57300   -944.07639    43.904109   -900.17228     1572.486    10737.334     2.197164    28.511161    0.1554174 
   57400   -947.71844    42.297846    -905.4206    1514.9554   -2173.6516    2.1779734    32.996662   0.15064108 
   57500   -943.57137    45.358257   -898.21311    1624.5683   -9578.9262    2.1487001       28.796   0.13762637 
   57600   -946.67992     47.71987   -898.96005    1709.1527     1307.724     2.181843    28.976031   0.15762359 
   57700   -948.41972    44.474577   -903.94514    1592.9181    9084.8569    2.2072583    29.391713   0.14086997 
   57800   -943.98038    43.371347   -900.60903    1553.4044   -4284.2774    2.1617433    34.848127   0.13250745 
   57900   -938.43431    40.454457   -897.97986    1448.9319   -9307.2849     2.135438     30.89678   0.15853892 
   58000   -949.67645    43.066187   -906.61026    1542.4747    6127.9935    2.2000797    27.651443   0.14607346 
   58100   -947.66644    47.180012   -900.48642    1689.8169     11099.84    2.2036088    31.253649   0.15852398 
   58200   -946.68992    46.557454   -900.13246    1667.5192    -6007.686    2.1610235    32.871532   0.13834402 
   58300   -950.30864    42.080964   -908.22767    1507.1875   -8250.8604     2.166288    28.221171   0.13561643 
   58400   -943.78491    41.423291   -902.36162     1483.632    4094.0309     2.184478    27.622787   0.11804091 
   58500   -942.81121    43.049006   -899.76221    1541.8593    6566.3919    2.1851486    34.370631    0.1240148 
   58600   -951.99068    44.280254   -907.71042    1585.9581   -3361.8755    2.1807285    34.175387   0.10944398 
   58700   -947.90807    45.809117   -902.09896    1640.7164   -4083.2958    2.1677286     34.58196   0.10935175 
   58800   -945.62328    45.994732   -899.62854    1647.3645    2813.4467    2.1805114    36.121318   0.12148345 
   58900   -951.13103    44.643122    -906.4879    1598.9547    1394.7045    2.1922848    32.128051    0.1215451 
   59000   -946.73561    45.613542   -901.12207    1633.7116   -2059.9588     2.170988    35.568525   0.12195343 
   59100   -945.00967    45.909484   -899.10018    1644.3112   -1937.3725    2.1652406    38.083368   0.11588556 
   59200   -946.57624    40.387882   -906.18836    1446.5475    3433.3851    2.1878745    33.332703   0.11792691 
   59300   -947.29069    46.067499   -901.22319    1649.9708    4397.9785    2.1862146    32.078861   0.10670512 
   59400   -946.34033    47.493492   -898.84683    1701.0447   -3902.8616     2.163506    32.624049   0.11641147 
   59500   -950.40942    43.082015    -907.3274    1543.0416   -6766.5478     2.170591    36.524437   0.11989246 
   59600   -949.33814    47.352257   -901.98588    1695.9861    4599.8935    2.1891432    35.157381   0.11948078 
   59700   -946.77565    48.708846    -898.0668    1744.5742    9018.7074    2.1954557    35.241689   0.11977679 
   59800   -947.07898    40.306045   -906.77293    1443.6164   -4714.6972    2.1661639    34.809151   0.11497363 
   59900    -948.2782    44.736964   -903.54123    1602.3158   -11203.571    2.1525142    33.136956   0.11468847 
   60000   -941.51033    43.696897   -897.81343    1565.0644    10892.508    2.1919602    33.223389   0.12114786 
   60100   -949.17499     43.63797   -905.53702    1562.9538    10231.053    2.2091032    28.984018   0.11192388 
   60200   -947.40777    43.110809   -904.29696    1544.0728   -8161.7784    2.1610026    36.349731   0.11691565 
   60300    -945.3705    45.965255   -899.40524    1646.3087   -7845.5959    2.1537552    33.231631   0.12033124 
   60400   -948.63927    43.160762   -905.47851     1545.862    6059.9842    2.1986688    31.414528   0.11401931 
   60500   -949.71728    44.739334   -904.97795    1602.4007    5992.6151    2.2007946    29.542779    0.1265012 
   60600   -944.94132    46.476535   -898.46478    1664.6209   -7192.8044    2.1573384    33.282109   0.13028361 
   60700   -949.44133    43.410661   -906.03067    1554.8125    -5196.397    2.1703634    34.236716   0.11738505 
   60800   -949.50968       45.352   -904.15768    1624.3442    3682.3078    2.1930613    34.313304    0.1199708 
   60900   -945.65701    48.752407    -896.9046    1746.1344    4859.4799    2.1831024    31.501892   0.11241396 
   61000   -950.10607    44.814586   -905.29148    1605.0959   -3859.0891    2.1733383    30.476933   0.11337262 
   61100   -947.38874    43.083176   -904.30557    1543.0831   -4838.5139    2.1708828    28.187362   0.11972594 
   61200   -944.66872    47.115775   -897.55295    1687.5162     1792.188    2.1783434    32.018105   0.12771507 
   61300   -948.57218     42.80891   -905.76327    1533.2599    6560.8172    2.1977083    36.887353   0.10989174 
   61400   -947.60108    43.190796   -904.41028    1546.9377   -2552.3439    2.1742778    34.707401   0.11298434 
   61500   -945.07544    46.282339    -898.7931    1657.6655   -5105.7049    2.1623277    34.514688   0.13817612 
   61600   -950.34372    43.491631   -906.85209    1557.7125    1084.3184    2.1893288    33.059809   0.11856189 
   61700    -947.2978    43.369998   -903.92781     1553.356    3313.4195    2.1861027    31.782505   0.11881408 
   61800   -944.16161    44.905607     -899.256     1608.356   -945.92682    2.1706192    33.840237   0.12338907 
   61900   -952.62574    45.218519   -907.40722    1619.5634   -3671.7878    2.1829777    34.157029  0.093479726 
   62000   -948.92483    45.454882   -903.46995     1628.029   -90.797975    2.1816999    31.298795   0.11632555 
   62100   -946.52655    47.196561   -899.32999    1690.4096   -143.48265    2.1756333    30.105253   0.11458846 
   62200   -950.64238    43.475167   -907.16721    1557.1228   -408.38369    2.1848937    32.116966    0.1061954 
   62300   -945.90483    43.213113   -902.69172     1547.737   -221.48557    2.1773857    33.785162    0.1248249 
   62400   -944.51459    45.280594   -899.23399    1621.7867    1084.3285    2.1773252     34.13151   0.12760375 
   62500   -950.04772    43.353201   -906.69452    1552.7545    1515.6956    2.1891617    33.852576   0.12482482 
   62600   -950.08736    48.170921   -901.91644    1725.3077   -2948.6687    2.1778188    31.711497    0.1142843 
   62700   -943.91429    45.095829   -898.81847    1615.1691    1353.4671    2.1719012    35.070691   0.11385823 
   62800   -950.09551     43.46563   -906.62988    1556.7812    1610.7667    2.1898138    33.453362   0.11033901 
   62900   -950.36534    48.842275   -901.52306    1749.3532    653.15871    2.1829675    31.665777   0.10338398 
   63000   -945.91992    46.635978   -899.28394    1670.3316   -1089.4854    2.1695058    33.014282   0.11962682 
   63100    -949.1104    41.788473   -907.32193    1496.7116   -742.42465    2.1826946    34.118869   0.12504903 
   63200    -946.2275    44.931847   -901.29566    1609.2958    2985.0531    2.1830705    35.135379    0.1270302 
   63300    -947.3115    47.430419   -899.88108    1698.7856    749.23207    2.1807951    34.285997   0.13072842 
   63400    -949.4867    41.854608   -907.63209    1499.0803    117.85959    2.1828435    34.889502    0.1204854 
   63500   -946.83837    45.722928   -901.11545    1637.6295   -3097.0893     2.166267    35.211891   0.11617614 
   63600   -943.48469    43.331488   -900.15321    1551.9767    5057.2627    2.1828151    33.981622   0.13029316 
   63700    -949.2977    42.161905    -907.1358    1510.0865    7576.0688    2.1991757    32.822521   0.10613852 
   63800   -944.00563    43.968871   -900.03676    1574.8055   -4562.9183    2.1593541    33.140134   0.12638611 
   63900   -947.35759    46.022157   -901.33544    1648.3468    -7034.956    2.1628829     32.49165   0.12076756 
   64000   -950.65793    44.145143   -906.51279    1581.1189    4793.3847    2.1967421    35.572112   0.10057638 
   64100   -945.48303    46.292373   -899.19065    1658.0249    5344.2825    2.1891876    31.425192   0.13477147 
   64200   -946.40905    45.944155   -900.46489     1645.553   -5536.4414    2.1626352    32.882704   0.13762056 
   64300   -948.78322    41.632674   -907.15054    1491.1314   -7635.0139    2.1656559    34.267756   0.11955914 
   64400   -946.41852    45.657923    -900.7606    1635.3012    6121.3117    2.1954084     33.03527   0.14132797 
   64500   -947.67008    49.202748   -898.46734     1762.264    8797.1321    2.1986637    36.890453   0.11901893 
   64600   -950.18844    43.500494   -906.68794    1558.0299   -6647.3822    2.1665979    33.308216   0.11077551 
   64700   -945.36455    42.797178   -902.56737    1532.8397   -8368.6198    2.1549016    34.627239   0.12220164 
   64800   -947.19628    49.607366   -897.58891    1776.7559    5728.0124    2.1909162    31.593479   0.10294508 
   64900      -949.63    43.499573   -906.13043    1557.9969     10570.09    2.2070762    33.072186    0.1226472 
   65000   -947.24861    44.068169   -903.18044     1578.362   -5904.9081    2.1600422    37.239469   0.12210214 
   65100   -945.04157    45.737086   -899.30448    1638.1365   -5844.6326    2.1584403    30.749414   0.13270354 
   65200   -948.87033    42.490902   -906.37943      1521.87    5918.9151    2.1943169    30.302108    0.1224527 
   65300   -948.67295    45.196977   -903.47597    1618.7918     4586.754    2.1884555    30.890952   0.10364362 
   65400   -946.75702    47.648021     -899.109    1706.5793   -5521.9726    2.1639171    35.473315   0.10665265 
   65500   -948.32687    41.698941   -906.62793    1493.5049   -1647.7487    2.1780626    32.774558   0.10767358 
   65600   -947.77669    44.787487    -902.9892    1604.1253    2996.0908    2.1857815    34.682134   0.10120177 
   65700   -946.95374    48.727927   -898.22582    1745.2576    843.66255    2.1776935    32.022864   0.11515767 
   65800   -949.24311    42.779423   -906.46368    1532.2038   -2028.4248    2.1786322    34.874541   0.11334002 
   65900   -947.66437     44.98072   -902.68365    1611.0463   -4606.1109     2.169491    29.550306   0.11220688 
   66000   -943.48062    45.511829   -897.96879    1630.0687     3311.334    2.1777438     37.27312   0.12564532 
   66100   -949.80351    43.789754   -906.01375    1568.3902    5440.2088    2.1975293    31.801004   0.10319837 
   66200   -945.70394    42.909386   -902.79455    1536.8586    -4181.675    2.1677176    31.545488   0.11211508 
   66300   -944.15283    44.838398   -899.31443    1605.9488   -6604.7502    2.1572439    32.010789   0.13420589 
   66400   -949.48463    42.789751   -906.69488    1532.5737    7055.8393    2.2023794    30.546478   0.11860075 
   66500   -950.49932    48.257237   -902.24209    1728.3992    6447.0133    2.2012422    33.594037   0.11346037 
   66600   -943.64482    43.770316   -899.87451     1567.694   -8705.2306    2.1498261    38.405782   0.11898267 
   66700   -951.16788    42.899807   -908.26807    1536.5155   -10591.505    2.1607777    31.831417   0.10811233 
   66800   -952.07092     48.35763   -903.71329    1731.9949    6630.0275    2.2040434    32.444232   0.11899854 
   66900   -945.68377    47.156939   -898.52683    1688.9906    7790.8437    2.1935037    31.619418   0.13654245 
   67000   -947.81116    41.671918   -906.13924     1492.537   -7429.5499    2.1609629    34.124719   0.12238892 
   67100   -949.73881    44.363328   -905.37548    1588.9335   -8890.6811    2.1646525    36.497596   0.12727923 
   67200   -945.62509    47.245952   -898.37913    1692.1787    5419.7622    2.1865967    30.598233   0.12680938 
   67300   -948.83774    43.802753   -905.03498    1568.8558    3450.6029    2.1904972    32.240049   0.11037716 
   67400    -949.5112    43.663514   -905.84768    1563.8687   -6749.5462    2.1719456     33.82878   0.12596412 
   67500   -943.37299    45.409892    -897.9631    1626.4177   -3359.5263    2.1583831    34.340442   0.12340663 
   67600   -948.48085    43.895019   -904.58584    1572.1604    4425.9279    2.1904161    30.939882   0.11397455 
   67700   -948.46776    43.335765     -905.132      1552.13    3811.7834    2.1897635    33.517577   0.12367843 
   67800   -943.28405     45.80056   -897.48349      1640.41   -4064.0914    2.1575146     28.49252   0.12080846 
   67900   -949.60786    44.026337   -905.58153    1576.8637   -2000.2182    2.1780911    34.367818   0.12166426 
   68000   -946.17048    41.720835   -904.44964     1494.289    5954.9669     2.188934    33.076761   0.11946252 
   68100   -945.39729      47.7379   -897.65939    1709.7984   -259.96531    2.1734521    34.853248   0.11343744 
   68200   -951.35992    45.990818    -905.3691    1647.2243   -4604.4688    2.1735572    32.855164   0.11581326 
   68300   -951.50194    46.115536   -905.38641    1651.6913   -7005.9048    2.1709935    34.247668   0.11714892 
   68400   -946.42436    47.864825   -898.55954    1714.3444    2393.9061    2.1824867    31.054239   0.11875288 
   68500   -949.65486    44.131369   -905.52349    1580.6256    7712.6292    2.2020292    32.909942   0.11183542 
   68600   -949.02181    42.667975   -906.35384    1528.2121   -10872.727    2.1597592    31.033156   0.12980616 
   68700   -943.25711    42.470061   -900.78705    1521.1236   -6966.9835     2.152601     34.32282    0.1191935 
   68800   -950.59165    47.546715   -903.04493    1702.9509    10162.714     2.209592    29.406786   0.11623033 
   68900   -950.74667    42.312032   -908.43464    1515.4635    9213.2554    2.2118869    33.252564   0.12452916 
   69000    -945.7212    45.625732   -900.09547    1634.1482   -11463.045    2.1454621    38.084909   0.12940207 
   69100   -947.80282    45.327832   -902.47499    1623.4786   -7546.2058    2.1641391    37.415132   0.11569414 
   69200   -951.50239    45.365758   -906.13663    1624.8369    8754.7131    2.2104144    34.410428   0.11310948 
   69300   -940.40397    43.277008   -897.12696    1550.0255    7345.7491     2.184625    34.258923    0.1234845 
   69400   -943.08582    41.808886   -901.27693    1497.4427   -3732.8966    2.1615781    33.521682   0.12163775 
   69500   -948.74711    42.785355   -905.96176    1532.4163   -4008.8633    2.1727255     33.64499   0.12092955 
   69600   -945.59051     46.42806   -899.16245    1662.8847    7037.5218    2.1902649    33.124914   0.12502358 
   69700   -949.04189    49.784062   -899.25782    1783.0846    785.09026     2.182515    34.459584   0.10202167 
   69800     -946.235    40.101398    -906.1336    1436.2866   -4094.5331     2.167982     33.22472   0.12312936 
   69900   -946.94237    45.813212   -901.12915    1640.8631   -272.17058    2.1729119    35.254435   0.10748706 
   70000    -943.4663    46.312268   -897.15403    1658.7375    5923.5218    2.1828316    34.749445   0.10814397 
   70100   -948.45421     42.03103   -906.42318    1505.3991    5285.0215    2.1919977    31.797889   0.12252322 
   70200   -943.34094    40.690853   -902.65009    1457.3988   -2347.0151    2.1620182    36.882761   0.10343917 
   70300   -945.50125    46.344546   -899.15671    1659.8936   -3731.7137    2.1611936    30.961073   0.11668452 
[...]
  186800   -941.01846     44.15227   -896.86619    1581.3742   -12422.408    2.1344481    111.31425   0.14370387 
  186900   -949.35668    46.874792   -902.48189    1678.8851    9525.9157    2.2057967    103.09612   0.11590207 
  187000    -950.3391    46.315756   -904.02335    1658.8624      7682.78    2.2055342    106.04585   0.11165715 
  187100   -943.65614    44.375247   -899.28089    1589.3604   -5535.1232    2.1532635    106.20302   0.12559137 
  187200   -941.38409    43.940996    -897.4431    1573.8071   -4644.0396    2.1539171    100.52223   0.12891352 
  187300   -946.87837    42.071392   -904.80698    1506.8447    5904.7983    2.1981483    97.008695   0.12127034 
  187400   -946.54645    44.795724   -901.75072    1604.4204     4377.524    2.1889063    100.43532    0.1166022 
  187500   -944.22437    46.280091   -897.94428     1657.585   -5472.9189    2.1579349    102.83386   0.13699139 
  187600   -947.29559    39.422739   -907.87285    1411.9796     1824.941      2.18665    101.09162    0.1319813 
  187700   -947.22279    43.511583    -903.7112    1558.4271     3688.581    2.1866254    100.37436   0.13658911 
  187800   -946.82214    46.777941    -900.0442    1675.4162    301.54034    2.1774322    104.16696   0.12506238 
  187900   -950.50361    42.980211    -907.5234    1539.3953   -5436.7444    2.1738091    98.649109   0.11323253 
  188000   -949.37016    43.106324   -906.26383    1543.9122   -1201.8963    2.1791485    100.29173   0.11955441 
  188100   -945.83349    45.705734   -900.12775    1637.0136    6803.0696     2.191944    104.97421   0.12919531 
  188200   -946.16677    40.963987   -905.20279    1467.1814    438.81779    2.1805394    100.99126   0.13093181 
  188300   -949.98027    40.265251   -909.71502    1442.1553   -9083.9253    2.1612801    99.903399   0.12584793 
  188400   -948.89714    47.802755   -901.09439    1712.1213   -2180.9588    2.1718121    100.87571   0.12318488 
  188500   -948.98849    47.584225   -901.40427    1704.2944    15215.132    2.2169821    104.04878   0.12348721 
  188600   -947.93974    40.957097   -906.98264    1466.9347   -347.69242    2.1829208    100.67299   0.13357274 
  188700   -941.96095    44.228918   -897.73204    1584.1194   -15904.722    2.1252684    108.95234   0.13773744 
  188800   -940.31142    40.032891   -900.27852     1433.833    7140.6978      2.18181     103.1659   0.13260988 
  188900   -950.43051    46.591089   -903.83942    1668.7239    8288.6887    2.2075994    100.50974   0.11423851 
  189000   -948.49679    45.952804   -902.54398    1645.8628   -1865.3525    2.1737277    104.16345   0.12147722 
  189100   -943.75471    48.251438   -895.50327    1728.1915   -9002.6591    2.1464327    102.28098   0.13825287 
  189200   -949.97116    44.800208   -905.17095     1604.581    3782.0287    2.1927242    99.594883   0.12734584 
  189300    -946.5459    43.482037   -903.06387    1557.3689    7598.2146    2.1917728    104.10972   0.11568247 
  189400   -946.59397    48.094482   -898.49949    1722.5699   -3724.9444     2.162059    102.68052   0.13071582 
  189500   -946.41337    44.397141   -902.01623    1590.1446     -5815.73    2.1619415    105.61523   0.13282881 
  189600   -948.60954    42.658822   -905.95072    1527.8843    4144.6126    2.1915879    102.15408   0.13326814 
  189700   -946.50362    45.130444   -901.37317    1616.4088    5898.2886    2.1926576     97.08992   0.12789748 
  189800   -946.75261    44.846604     -901.906    1606.2427    -4543.557    2.1614492    97.480991   0.12270299 
  189900   -951.76711    41.266618    -910.5005    1478.0206   -4227.6065    2.1791882    100.36732   0.12265886 
  190000   -947.93813    44.763435    -903.1747    1603.2639      4825.11    2.1929959    103.50854   0.11544489 
  190100   -947.18261    45.955118   -901.22749    1645.9457    3102.0097    2.1857987    103.93673   0.14054802 
  190200   -952.65034    44.755609   -907.89473    1602.9836    -8100.968    2.1677969    97.083315   0.12092537 
  190300   -952.26159     45.62824   -906.63335    1634.2381   -8374.3048    2.1667557    100.30123   0.12288092 
  190400   -943.77442    43.655304   -900.11911    1563.5747      14218.8    2.2075551    101.23428    0.1328679 
  190500   -948.63108    45.417575   -903.21351    1626.6928    4019.7839    2.1891815    106.32029   0.12334566 
  190600   -948.04014    39.575121   -908.46501    1417.4373   -17302.568    2.1398459    107.54212   0.13545538 
  190700   -946.36597    42.600079   -903.76589    1525.7804   -1183.2222    2.1717479    100.75643   0.13004795 
  190800    -946.9583    47.743609   -899.21469    1710.0029    14952.347    2.2126492    91.160525   0.12654908 
  190900   -946.63045    42.668766   -903.96169    1528.2405   -555.50343    2.1753988    96.052119   0.11932043 
  191000   -946.36101     42.56035   -903.80066    1524.3574   -6288.7991    2.1580037    103.20974   0.11468117 
  191100   -942.44984    47.703336   -894.74651    1708.5605   -1301.2055    2.1643669    104.78506   0.14274595 
  191200   -947.16803    45.190869   -901.97716     1618.573    8656.2865    2.2006221    96.254401   0.12675886 
  191300     -951.583    47.188634   -904.39437    1690.1257   -2307.1609    2.1814203    101.51925   0.10852007 
  191400   -943.84538    45.791331   -898.05404    1640.0794   -6872.8875    2.1539244    99.365229   0.13532105 
  191500   -946.65373    48.730914   -897.92282    1745.3646   -1177.3815    2.1695246    102.76719     0.118382 
  191600   -947.58353    43.553143   -904.03039    1559.9156     7871.649    2.2010635    101.76781   0.11847809 
  191700   -944.68739    42.442792    -902.2446    1520.1469    3493.5429    2.1838295    105.21451   0.12727705 
  191800    -944.9172    47.760801    -897.1564    1710.6187   -10421.879    2.1495117    101.60474   0.11708484 
  191900   -947.07625    41.520277   -905.55597    1487.1057   -3204.5392    2.1763057    102.51901   0.12758222 
  192000   -948.79388    43.590719   -905.20316    1561.2615    5182.8998    2.1983024     102.2877   0.11421764 
  192100   -946.24036    44.248841   -901.99152     1584.833    3564.8828    2.1875496     98.46069   0.12200152 
  192200   -943.66123    42.277674   -901.38355     1514.233   -7764.8751    2.1540492    104.37987   0.13943057 
  192300   -953.39256    42.173772   -911.21879    1510.5116   -1474.5482    2.1892417    99.897188   0.10607124 
  192400    -948.2502    43.495018   -904.75518    1557.8338    9592.9826    2.2092949    104.22591   0.11067968 
  192500   -946.01703    44.852639   -901.16439    1606.4589    1014.3663     2.178951    98.310932   0.12719286 
  192600   -947.46073    43.701772   -903.75895     1565.239   -15710.471    2.1394316    105.62505   0.11322524 
  192700   -952.37005    42.493922   -909.87613    1521.9782    954.73684    2.1947002    96.648417   0.10885622 
  192800   -946.83699    46.402114   -900.43488    1661.9554    15049.488    2.2168337    100.93683   0.12480164 
  192900   -946.42515    44.604572   -901.82058     1597.574   -1146.3137    2.1738349    101.98685   0.11741479 
  193000   -947.97394    42.220061   -905.75388    1512.1695   -10324.697    2.1576912    107.25525   0.12588525 
  193100   -951.17484    44.551722   -906.62312    1595.6811    3053.3964     2.194858     102.0207   0.11600425 
  193200   -944.69986    46.584434   -898.11543    1668.4855    3952.8145     2.183583    104.41092   0.12281083 
  193300    -946.7285    44.106819   -902.62168    1579.7463   -4173.9099     2.169035    102.98196   0.12160342 
  193400    -950.3614    45.075595   -905.28581    1614.4444   -2511.6528    2.1770852    96.488017   0.10731472 
  193500   -948.72807    49.607667    -899.1204    1776.7667    4051.2782     2.189753    106.25584   0.10321738 
  193600   -944.09075    46.096577   -897.99418    1651.0122    2506.6195    2.1770119    102.96552   0.11777382 
  193700    -947.8927    43.482972   -904.40973    1557.4024   -7983.7398     2.164382    101.67166   0.12144594 
  193800   -948.56365    45.978001   -902.58565    1646.7653   -2348.3991     2.175799    103.09911   0.12315215 
  193900   -942.06772    48.147811   -893.91991      1724.48    6389.4022    2.1841467    104.09692   0.12635546 
  194000   -946.29947    43.622399   -902.67707    1562.3961    3918.4506    2.1883582    102.02667   0.12778662 
  194100   -944.79937    40.509429   -904.28994    1450.9009   -7059.1934    2.1562252     102.7202   0.12569166 
  194200   -942.06135    43.676172   -898.38518    1564.3221   -1103.9242    2.1639822    102.07606   0.12607346 
  194300   -946.76144    49.131066   -897.63038    1759.6966     13303.68    2.2058253    107.60813   0.11987535 
  194400   -952.54499    47.625873   -904.91912    1705.7861    1951.1715    2.1912189    98.113762   0.11266575 
  194500   -945.63157    42.390907   -903.24066    1518.2886    -15657.92    2.1339144    102.52111   0.12270421 
  194600   -946.58596    45.646483   -900.93948    1634.8915   -7459.9512    2.1637714    100.38151   0.14189142 
  194700   -952.81881    45.080682   -907.73813    1614.6266    22806.998    2.2452121    100.48889   0.11792304 
  194800   -947.52695    41.060015   -906.46694    1470.6208    2055.2594    2.1855821    102.13437   0.11924317 
  194900   -943.55284    41.061077   -902.49177    1470.6589   -8100.5977     2.150008    106.34736   0.13310838 
  195000   -946.31961     43.55453   -902.76508    1559.9653    1192.9622    2.1777068    99.890131   0.12539656 
  195100   -950.77444    41.079054   -909.69538    1471.3027    7751.5982    2.2064573    97.784293   0.11495457 
  195200   -951.13773     46.54372   -904.59401    1667.0273   -2187.4632    2.1806286    101.41868   0.13332296 
  195300   -949.74715    47.697922   -902.04923    1708.3666   -6122.4749    2.1649722    95.446496   0.12178031 
  195400   -946.05283    42.492548   -903.56028     1521.929    819.85401    2.1770522    99.254275   0.11619404 
  195500   -949.43381    40.452806   -908.98101    1448.8728     4617.043    2.1965218    108.26881   0.12517349 
  195600   -952.08014    41.815683   -910.26446    1497.6861     2051.989    2.1946971    99.446078   0.10675768 
  195700   -945.82846    42.927938   -902.90052    1537.5231   -5642.6053    2.1609561    103.00721   0.12962408 
  195800   -944.74993    41.490088   -903.25984    1486.0245   -2799.5226    2.1680843     102.8188   0.12495864 
  195900   -948.03962    46.497093   -901.54253    1665.3572    6569.4714    2.1975625     98.86465    0.1154645 
  196000    -942.8506    51.458332   -891.39226    1843.0508   -1556.3607    2.1614093    98.891501   0.13860895 
  196100   -945.67718    45.310732   -900.36645    1622.8661   -4030.9682     2.161896    103.20512    0.1306248 
  196200   -946.16073    42.960703   -903.20003    1538.6966   -958.29199    2.1753998    96.971362   0.13848634 
  196300    -944.9743    41.997224   -902.97708    1504.1883    8656.2857    2.1946729    107.09839   0.12768372 
  196400   -944.75781    50.943344   -893.81447    1824.6058   -1377.7113    2.1679504    99.807592   0.14134004 
  196500   -948.96246    49.456165    -899.5063    1771.3405   -8254.4356    2.1593642    108.58268   0.12122716 
  196600    -949.0928    45.210379   -903.88242    1619.2718    -4189.838     2.173333    95.672849   0.11540559 
  196700   -946.93495    44.844518   -902.09043     1606.168    9832.8571    2.2018026    101.15923   0.12288566 
  196800   -942.49477    49.684458   -892.81031    1779.5171    239.77525    2.1670112    100.04468   0.12773104 
  196900   -944.36243    43.198821    -901.1636    1547.2251   -6992.3042    2.1565009    106.66418   0.13666062 
  197000   -947.82894    44.251248   -903.57769    1584.9192   -3171.5321    2.1721941    104.27794   0.12129592 
  197100   -947.71275    46.004601   -901.70815     1647.718    9739.8905    2.2034191    96.932892   0.14011565 
  197200   -942.71786    50.328286   -892.38958    1802.5767    3227.6901    2.1728637     102.4974   0.13864973 
  197300   -948.78356    48.351189   -900.43237    1731.7643   -11886.468    2.1529242    97.992458   0.13510632 
  197400   -946.97811    43.423823   -903.55429    1555.2839   -4306.4502    2.1680888    109.51803   0.13173774 
  197500   -945.06626    43.701449   -901.36481    1565.2274    12134.388    2.2042596    96.364179   0.12040408 
  197600   -941.22765     47.48573   -893.74192    1700.7666     5433.281    2.1811325    92.928666   0.12453085 
  197700   -945.42218    46.217419   -899.20476    1655.3403   -9854.6684    2.1482029    100.62981   0.13242458 
  197800    -949.2714    45.660736   -903.61066     1635.402   -6553.5472    2.1664538    98.643649   0.11481186 
  197900    -945.1795    43.298949   -901.88055    1550.8113     11197.81    2.2018102    104.63338   0.14132724 
  198000    -945.9533    49.955858   -895.99745    1789.2377    2175.8774    2.1805645     104.8077   0.12618505 
  198100   -946.06099    48.573066   -897.48793    1739.7111   -9012.1265    2.1545237    93.943646   0.14072784 
  198200   -950.31009    46.900882   -903.40921    1679.8195   -4280.5469     2.178526    103.90366   0.12929387 
  198300   -947.63684    44.721478   -902.91537    1601.7611    4626.7013    2.1939239    96.801769   0.12390868 
  198400   -944.08535    46.302071   -897.78328    1658.3723     1102.375    2.1788246    104.32381    0.1431501 
  198500   -944.03352    47.933206   -896.10031    1716.7936   -6707.2926    2.1553593    102.12095    0.1210581 
  198600    -946.0992    42.884156   -903.21504    1535.9549    373.18652     2.177852    102.04555   0.12143549 
  198700   -948.64299    45.993469   -902.64952    1647.3193    7379.8607    2.1999838    100.59623   0.11771168 
  198800   -945.83131      47.0171   -898.81421     1683.982    1453.8696    2.1786105    107.38182   0.12392538 
  198900   -940.73778    45.506094   -895.23169    1629.8633   -8814.3193    2.1443476    104.68673   0.13689647 
  199000   -948.01474    44.419815   -903.59493    1590.9567   -129.49415    2.1830142    103.77473   0.12315043 
  199100   -949.27076    46.841441   -902.42932    1677.6905    10215.814    2.2086461    102.44702   0.12316453 
  199200    -946.1045    45.505512   -900.59899    1629.8424   -293.03246    2.1725329    106.72193   0.11761286 
  199300   -944.06498    51.123681    -892.9413    1831.0648   -14836.719    2.1331547    105.78261   0.12548755 
  199400   -951.12634    47.915544   -903.21079     1716.161    4754.6011    2.1977815    103.74719   0.11016422 
  199500    -950.4485    47.716834   -902.73166    1709.0439    4803.4302    2.1995348    100.71765   0.11412609 
  199600   -946.05881    44.578943   -901.47987    1596.6561   -2735.6777    2.1715451    105.20323   0.12017781 
  199700    -945.4266    53.663578   -891.76303    1922.0348   -6472.4882    2.1549741    105.52691   0.11438485 
  199800   -948.04331    46.543866   -901.49944    1667.0325    5076.9052    2.1925825    98.392222   0.11072256 
  199900   -947.77668    44.636492   -903.14019    1598.7173   -511.83919     2.182617    102.08949   0.12247638 
  200000    -945.9519    43.250213   -902.70168    1549.0658    -4232.851    2.1675396    100.99465   0.13041576 
  200100   -940.09583    46.495479   -893.60035    1665.2994    2021.7265    2.1681998    107.79143   0.13690526 
  200200   -946.26324     47.44502   -898.81822    1699.3086    5834.6203    2.1944638     101.1936   0.12700377 
  200300   -944.27865    41.269622   -903.00903    1478.1282   -3530.6792    2.1687848    97.954711   0.11950853 
  200400   -947.90193    44.388408   -903.51352    1589.8318   -4829.0403    2.1672891    100.91483   0.12236144 
  200500   -946.87274    45.407765   -901.46498    1626.3415    6037.9835    2.1949749     106.2617   0.11573422 
  200600   -940.35489    46.178111   -894.17678    1653.9325    578.20646    2.1668332     96.05098   0.12789621 
  200700   -943.32695    41.630611   -901.69634    1491.0575   -5807.4434     2.156241    99.555114   0.11432404 
  200800   -948.95578    45.051221   -903.90456    1613.5713    790.85328    2.1815818    94.668334   0.10284233 
  200900   -948.79354    46.548567   -902.24498    1667.2008     10732.08    2.2088578    99.907085   0.11119038 
  201000   -941.68423    47.691742   -893.99249    1708.1453   -6111.7202    2.1501998    98.807043   0.12629234 
  201100   -946.95298    43.545717   -903.40726    1559.6497   -12345.005    2.1489596    103.75328   0.12326783 
  201200   -946.88076    43.528656    -903.3521    1559.0386    9274.2274    2.2002012    102.49181   0.12472148 
  201300   -949.06613    49.135073   -899.93105    1759.8401    12913.561    2.2111839     99.96983   0.11502832 
  201400   -939.56165    42.476731   -897.08492    1521.3625   -9805.2911     2.133253    107.60713   0.11983541 
  201500   -947.68206    40.517932   -907.16413    1451.2054   -4067.2722    2.1656991    100.41054  0.098410856 
  201600   -948.46567    45.352643   -903.11302    1624.3672    7587.1785    2.1956615    100.96201   0.10227938 
  201700   -944.41188    44.106954   -900.30493    1579.7511    4303.2701    2.1760866    103.51704   0.11384327 
  201800   -946.61983    46.412827     -900.207    1662.3391   -5028.5369    2.1539837     103.6768   0.11171445 
  201900   -952.93918    44.808144   -908.13104    1604.8652    1043.6326     2.189104    96.450478   0.10384493 
  202000   -950.09065    47.122843   -902.96781    1687.7693    3451.2261    2.1894322    96.001678   0.11315432 
  202100   -945.96272    44.639447   -901.32327    1598.8231   -1572.0959    2.1659957    97.314343   0.11714154 
  202200    -949.4874    40.921981   -908.56542     1465.677   -6609.3414    2.1671714    104.53514   0.12229285 
  202300    -949.5652    42.458851   -907.10634    1520.7221    1931.5147    2.1872507    99.543528   0.11019144 
  202400    -949.7369    48.766199    -900.9707    1746.6284    5927.7615    2.1927228    97.041454   0.11429772 
  202500   -947.75204    43.525991   -904.22605    1558.9432   -3086.9882    2.1694218    96.746223   0.11031487 
  202600   -953.40333    42.179529    -911.2238    1510.7178   -8364.8245    2.1708871    100.76732   0.09966156 
  202700   -947.09102    44.522153   -902.56886    1594.6221    3163.5766    2.1820759     94.77918    0.1128093 
  202800    -950.0039    48.771224   -901.23268    1746.8084    9260.4562    2.2017087    103.07997   0.10353651 
  202900   -949.95073     43.74835   -906.20238    1566.9072   -4502.2749    2.1716183    100.71092   0.10978692 
  203000    -945.3014     38.33291    -906.9685    1372.9458    -10504.46    2.1521228     100.5896   0.12318619 
  203100   -945.46082    46.757783   -898.70304    1674.6942    2759.9092    2.1761913    107.13618     0.121776 
  203200   -945.33046     44.02315   -901.30731    1576.7496     12317.26    2.2012839    99.686978   0.11542444 
Loop time of 143.687 on 1 procs for 200000 steps with 217 atoms

Performance: 360.784 ns/day, 0.067 hours/ns, 1391.912 timesteps/s
100.0% CPU use with 1 MPI tasks x no OpenMP threads

MPI task timing breakdown:
Section |  min time  |  avg time  |  max time  |%varavg| %total
---------------------------------------------------------------
Pair    | 138.94     | 138.94     | 138.94     |   0.0 | 96.70
Neigh   | 1.5384     | 1.5384     | 1.5384     |   0.0 |  1.07
Comm    | 0.90503    | 0.90503    | 0.90503    |   0.0 |  0.63
Output  | 0.069623   | 0.069623   | 0.069623   |   0.0 |  0.05
Modify  | 1.916      | 1.916      | 1.916      |   0.0 |  1.33
Other   |            | 0.3192     |            |       |  0.22

Nlocal:    217 ave 217 max 217 min
Histogram: 1 0 0 0 0 0 0 0 0 0
Nghost:    953 ave 953 max 953 min
Histogram: 1 0 0 0 0 0 0 0 0 0
Neighs:    4121 ave 4121 max 4121 min
Histogram: 1 0 0 0 0 0 0 0 0 0
FullNghs:  8242 ave 8242 max 8242 min
Histogram: 1 0 0 0 0 0 0 0 0 0

Total # of neighbors = 8242
Ave neighs/atom = 37.9816
Neighbor list builds = 2594
Dangerous builds = 34
Total wall time: 0:02:26
