LAMMPS (3 Mar 2020)

# ---------- 1. Initialize simulation ----------
units metal
atom_style atomic
dimension 3
boundary p p p
read_data /home/modeler/RemLabs/Project/arrhenius_2/T1750.0/n3_T1750.0_timestep3.000000e-03_eqsteps3200_time300_rseed3322/20201205-072652/lammps.data
  orthogonal box = (0 0 0) to (17.469 17.469 17.469)
  1 by 1 by 1 MPI processor grid
  reading atoms ...
  217 atoms
  read_data CPU = 0.0010915 secs

pair_style meam/c
pair_coeff * * library.meam Li Si LiSi.meam Li Si
Reading potential file library.meam with DATE: 2012-06-29
Reading potential file LiSi.meam with DATE: 2020-11-07

group Li type 1
1 atoms in group Li
group Si type 2
216 atoms in group Si

velocity all create 1750.0 3322 dist gaussian

# ---------- 2. Specify equilibration ensemble  ----------
fix 1 all npt temp 1750.0 1750.0 0.15 tchain 2 iso 1.0 1.0 1.0 pchain 2
# fix 1 all nvt temp 1750.0 1750.0 0.15

# ---------- 3. Run equilibration -------------
timestep 0.003
run 3200
Neighbor list info ...
  update every 1 steps, delay 10 steps, check yes
  max neighbors/atom: 2000, page size: 100000
  master list distance cutoff = 6
  ghost atom cutoff = 6
  binsize = 3, bins = 6 6 6
  2 neighbor lists, perpetual/occasional/extra = 2 0 0
  (1) pair meam/c, perpetual
      attributes: full, newton on
      pair build: full/bin/atomonly
      stencil: full/bin/3d
      bin: standard
  (2) pair meam/c, perpetual, half/full from (1)
      attributes: half, newton on
      pair build: halffull/newton
      stencil: none
      bin: none
Per MPI rank memory allocation (min/avg/max) = 8.895 | 8.895 | 8.895 Mbytes
Step Temp E_pair E_mol TotEng Press Volume 
       0         1750   -951.04357            0   -902.18323   -114441.46    5330.9442 
    3200    1732.5885   -941.04978            0   -892.67558    7254.8258    4621.8584 
Loop time of 2.25579 on 1 procs for 3200 steps with 217 atoms

Performance: 367.694 ns/day, 0.065 hours/ns, 1418.572 timesteps/s
99.9% CPU use with 1 MPI tasks x no OpenMP threads

MPI task timing breakdown:
Section |  min time  |  avg time  |  max time  |%varavg| %total
---------------------------------------------------------------
Pair    | 2.1588     | 2.1588     | 2.1588     |   0.0 | 95.70
Neigh   | 0.04772    | 0.04772    | 0.04772    |   0.0 |  2.12
Comm    | 0.014877   | 0.014877   | 0.014877   |   0.0 |  0.66
Output  | 2.4495e-05 | 2.4495e-05 | 2.4495e-05 |   0.0 |  0.00
Modify  | 0.02954    | 0.02954    | 0.02954    |   0.0 |  1.31
Other   |            | 0.004797   |            |       |  0.21

Nlocal:    217 ave 217 max 217 min
Histogram: 1 0 0 0 0 0 0 0 0 0
Nghost:    957 ave 957 max 957 min
Histogram: 1 0 0 0 0 0 0 0 0 0
Neighs:    4122 ave 4122 max 4122 min
Histogram: 1 0 0 0 0 0 0 0 0 0
FullNghs:  8244 ave 8244 max 8244 min
Histogram: 1 0 0 0 0 0 0 0 0 0

Total # of neighbors = 8244
Ave neighs/atom = 37.9908
Neighbor list builds = 81
Dangerous builds = 2

# ---------- 4. Describe computed properties----------
compute msdli Li msd
compute msdsi Si msd
thermo_style custom step pe ke etotal temp press density c_msdli[4] c_msdsi[4]
thermo 100

# ---------- 3. Run production -------------
timestep 0.003
run 100000
Per MPI rank memory allocation (min/avg/max) = 9.665 | 9.665 | 9.665 Mbytes
Step PotEng KinEng TotEng Temp Press Density c_msdli[4] c_msdsi[4] 
    3200   -941.04978    48.374203   -892.67558    1732.5885    7254.8258    2.1820894            0 3.1799243e-32 
    3300   -944.92425    48.869382   -896.05487     1750.324    7347.6994    2.1874686   0.39505466   0.10717219 
    3400   -935.34502    48.222716    -887.1223    1727.1628    -9144.849    2.1266518   0.31292916   0.14625123 
    3500   -940.30943    49.116321   -891.19311    1759.1685   -1317.8304    2.1591106     0.265821   0.13371702 
    3600    -945.2687    50.520675   -894.74803    1809.4674    8407.6895    2.1908236   0.27405924   0.13702041 
    3700   -944.52132     52.15977   -892.36155    1868.1738   -5029.2486    2.1556537   0.33098732   0.11441055 
    3800   -942.05118    55.366352   -886.68482    1983.0219   -11815.898    2.1291115  0.018791676   0.10549341 
    3900   -945.46283    48.540988   -896.92184    1738.5622     9831.849    2.1962115   0.19178338   0.13470817 
    4000   -945.27049    52.057952   -893.21254    1864.5271     1700.754    2.1720462   0.14517239   0.11192933 
    4100   -942.78595    52.260914   -890.52504    1871.7964   -11683.623    2.1289292   0.68325953   0.11997879 
    4200   -944.60004    44.695999   -899.90404    1600.8486    6450.1733    2.1846271   0.50108607   0.11782753 
    4300   -945.19789    49.477376   -895.72051    1772.1002    7365.2665    2.1869769   0.35292832   0.12647292 
    4400   -938.87469    47.461771   -891.41292    1699.9085    -2360.411    2.1491853   0.14881559   0.15432792 
    4500   -942.71589    47.341917   -895.37397    1695.6158    -5420.776    2.1535435    0.3636818   0.14102054 
    4600   -946.45055    47.277037   -899.17352     1693.292    8500.6222    2.1948802   0.49557717   0.12917391 
    4700   -940.63861    50.961037   -889.67757    1825.2395   -2492.3688    2.1557787   0.12178219   0.14327558 
    4800   -944.34023    50.126468   -894.21376    1795.3483   -8821.1939    2.1474306   0.20750543   0.13610695 
    4900   -944.17368    46.943013   -897.23067    1681.3285    5090.9206    2.1825097   0.45291067   0.13339039 
    5000   -938.32849     51.58138   -886.74711     1847.458     5330.763    2.1683556   0.47604461   0.15325496 
    5100   -941.46856    50.141045   -891.32751    1795.8704   -2730.4945    2.1522281   0.54210145   0.12355815 
    5200   -944.33126    47.790348   -896.54091    1711.6769   -1607.3284    2.1648288   0.15316464    0.1357801 
    5300   -939.61301    48.145765   -891.46725    1724.4067    8230.5436    2.1821066  0.050068302   0.14905715 
    5400   -937.87225     50.07617   -887.79608    1793.5468   -2855.4419    2.1479885   0.38591481   0.14492898 
    5500   -938.76683    41.943882   -896.82295    1502.2777   -3130.7844    2.1557368   0.28615548   0.15666369 
    5600   -939.82199    47.075658   -892.74633    1686.0794     6857.819    2.1791861   0.18780315   0.13918156 
    5700    -936.1939    49.392337   -886.80156    1769.0544     4272.637    2.1615156   0.43182009   0.14210785 
    5800   -945.28164    48.591591   -896.69005    1740.3746   -7327.2245    2.1522517   0.25029114   0.12385626 
    5900    -941.3968    46.009097    -895.3877     1647.879   -1670.7475    2.1616452    0.7177712   0.13302864 
    6000   -941.29486    52.225571   -889.06929    1870.5306    7741.3821    2.1831773   0.30895786   0.13338133 
    6100   -944.43244    48.177835    -896.2546    1725.5553    -2331.937    2.1628167   0.32506533   0.12450963 
    6200    -947.3653    49.336995   -898.02831    1767.0723   -8243.5091    2.1519569   0.14355382   0.12465582 
    6300   -939.83919     49.53332   -890.30587    1774.1039    5343.9989    2.1787229  0.045255186    0.1567733 
    6400   -944.81637    50.586768    -894.2296    1811.8346    3770.6577    2.1789219   0.16340941   0.13540512 
    6500    -944.2833    43.478828   -900.80448    1557.2539   -5792.8077    2.1566318   0.34199474   0.13315795 
    6600   -937.98118    46.758204   -891.22298    1674.7093   -337.05665    2.1598033   0.53136478   0.13158188 
    6700   -940.06165    48.966716   -891.09493    1753.8102    12468.199    2.1937197   0.62622096   0.13306752 
    6800   -944.77998    46.490684   -898.28929    1665.1277   -4842.9385    2.1609728   0.24204371   0.11984584 
    6900   -939.22996    49.047643   -890.18231    1756.7087   -8786.5934    2.1374082   0.99886121   0.12916841 
    7000   -935.96357    48.788777   -887.17479     1747.437    11834.888    2.1835756   0.12281118   0.14137868 
    7100   -944.06536     49.55595   -894.50941    1774.9144     1872.677    2.1753239   0.34581567     0.128947 
    7200    -940.2648     45.52719   -894.73761    1630.6188    -9418.833    2.1402876   0.26513478   0.15330849 
    7300   -938.54909    53.573856   -884.97523    1918.8212    546.03741    2.1593719   0.12410828   0.13088845 
    7400   -943.61442     50.78145   -892.83297    1818.8074    4153.6194    2.1808019     0.241791   0.13763189 
    7500   -944.79299    48.582034   -896.21095    1740.0323   -3899.5883    2.1624706   0.27118918   0.12340874 
    7600   -940.79598    52.810137   -887.98584    1891.4676   -3906.6255    2.1527541   0.25411765    0.1209118 
    7700   -940.08358    47.987444   -892.09614    1718.7362    3798.3712    2.1715941   0.36899931   0.12601251 
    7800   -942.62456    46.137347   -896.48721    1652.4724   -841.56955     2.169537   0.68488262    0.1249695 
    7900   -941.85948    51.066254   -890.79322     1829.008   -1960.5204    2.1610758   0.52166106    0.1321535 
    8000   -942.07175    52.944317   -889.12743    1896.2734    -24.39978    2.1625629   0.12401113    0.1316128 
    8100   -945.75446    47.590248   -898.16421    1704.5101    2679.6216    2.1801379   0.34610784   0.13306554 
    8200   -937.31475    44.865248   -892.44951    1606.9105   -455.11239    2.1561483   0.31544751   0.12260391 
    8300   -939.87975    49.981301   -889.89845    1790.1489   -1325.7891    2.1589125   0.30453221   0.12718346 
    8400   -942.15538    43.151593   -899.00379    1545.5336     6939.546    2.1894925   0.29026915   0.12940107 
    8500   -939.63784    47.513986   -892.12386    1701.7787   -2272.6116    2.1545022   0.30077001   0.13011689 
    8600   -940.68929    49.415185    -891.2741    1769.8727   -2593.0311    2.1552881   0.38867445   0.13896975 
    8700    -941.8896    43.848194   -898.04141    1570.4833    6843.0979    2.1876863   0.13883615   0.15009853 
    8800   -938.11277    45.688344   -892.42443    1636.3908    6641.9409    2.1700421   0.25659796   0.14966378 
    8900   -938.57103    48.140433    -890.4306    1724.2157   -5529.1356    2.1450488   0.34092431   0.13654644 
    9000   -947.53632    50.373958   -897.16236    1804.2125   -2162.8292    2.1731708   0.18390581   0.13165374 
    9100   -944.26679    50.510966   -893.75582    1809.1196    9762.5462    2.1927682  0.051412377   0.12467135 
    9200   -938.73305    50.600654    -888.1324    1812.3319    -5652.429    2.1412691   0.24488388   0.13059095 
    9300   -941.42035    43.762671   -897.65768    1567.4202   -7064.3059    2.1522652    0.4026087   0.13468118 
    9400    -941.3009    47.296368   -894.00453    1693.9844    11316.485    2.1940335   0.45687503   0.13784018 
    9500   -937.73064    50.224825   -887.50582    1798.8711    3929.9865    2.1637994   0.17134623   0.13195268 
    9600   -941.63044    47.804001   -893.82643     1712.166   -12261.868    2.1351853  0.071779621   0.13184367 
    9700   -945.66649    49.163144   -896.50335    1760.8455   -207.01304    2.1736378   0.14426485   0.12334738 
    9800   -939.67852    51.296563   -888.38196    1837.2569    11814.463    2.1894392  0.026664056   0.14747844 
    9900   -941.54121    48.503081   -893.03813    1737.2045   -7166.3275    2.1525866   0.23072089   0.13446466 
   10000   -945.11348    45.731899   -899.38158    1637.9508   -5723.8379    2.1615778   0.40917913   0.13227284 
   10100    -940.8613    50.708488   -890.15281    1816.1942    5778.2414    2.1751043  0.061564907   0.14293385 
   10200   -943.57427    50.938601   -892.63566     1824.436    2652.2563    2.1691925    0.2904386   0.13348443 
   10300   -942.16344    42.380174   -899.78326    1517.9041    654.70393    2.1677614   0.21306398   0.14307678 
   10400   -937.57704    47.192909   -890.38413    1690.2788    410.25444    2.1591355    0.6202937   0.14899764 
   10500   -940.77089    48.890332   -891.88056    1751.0744    3341.3666    2.1686927   0.38358738   0.13964864 
   10600   -942.83819    44.114756   -898.72344    1580.0306    1371.0954     2.174784   0.34352597   0.13522753 
   10700   -943.47981    53.462269   -890.01754    1914.8246    -3291.441     2.156048   0.24395288   0.13086336 
   10800   -942.00366     51.41214   -890.59152    1841.3964    3598.5447    2.1727914   0.18108676    0.1336459 
   10900   -943.74334    46.807956   -896.93538    1676.4912    -792.1441    2.1724182   0.15766994   0.13916389 
   11000   -940.68432    50.700585   -889.98374    1815.9111   -4379.6857    2.1539367   0.56192794   0.14697804 
   11100   -941.75655    52.600047    -889.1565    1883.9429    642.92083    2.1671894   0.57016492   0.15039346 
   11200   -943.59426    47.835819   -895.75844    1713.3056    958.40866    2.1752524   0.59446172   0.14427498 
   11300   -939.46988    47.393535   -892.07634    1697.4646   -2895.8848    2.1541518   0.12292105   0.13355217 
   11400   -934.55761    47.728125   -886.82948    1709.4483    1125.7543    2.1557445   0.18228953   0.16361091 
   11500   -944.14572    48.434708   -895.71101    1734.7556    7565.1662    2.1937955  0.044895548   0.14832531 
   11600    -941.5884    47.912779   -893.67562     1716.062   -3167.4413     2.159204   0.71856726   0.14535226 
   11700   -940.58814    52.182209   -888.40593    1868.9775   -10276.459    2.1370528   0.23794648   0.15779403 
   11800   -948.11076    50.073834   -898.03693    1793.4632    7769.6928    2.2020148     0.569276   0.14205427 
   11900   -939.70165    45.055778   -894.64588    1613.7346    2830.4077    2.1759151   0.16996558    0.1540907 
   12000    -936.5224    45.386151   -891.13625    1625.5673   -10946.436     2.135671   0.23589173    0.1772148 
   12100   -947.21391    49.217384   -897.99653    1762.7882   -640.42063    2.1784702   0.10463089   0.14342689 
   12200   -945.99381    49.023505    -896.9703    1755.8442    8466.8614     2.195943    0.4272783    0.1426075 
   12300   -942.18779    51.493246   -890.69455    1844.3013   -7579.9296      2.14685   0.53385712   0.15021286 
   12400   -940.91619    46.616586   -894.29961    1669.6371   -7401.2185      2.14581   0.13178119   0.14580874 
   12500   -945.37709    47.701011   -897.67607    1708.4772    9259.6192    2.1985296   0.13831661   0.14782046 
   12600   -940.80311    53.054766   -887.74835    1900.2293   -126.90912    2.1613874   0.18543866   0.15824385 
   12700   -941.74843    48.588017   -893.16041    1740.2466   -6728.3972    2.1499326  0.078777635   0.15917003 
   12800   -947.70077    51.303565   -896.39721    1837.5076     831.6696    2.1799122    0.1958167   0.15217966 
   12900   -942.36923    55.295713   -887.07352    1980.4919    2789.8352    2.1739792   0.19826411   0.13720115 
   13000   -943.24765    52.676948    -890.5707    1886.6972   -3861.0674     2.156893     0.112069   0.12050323 
   13100     -943.962    47.659532   -896.30247    1706.9916   -2222.1754    2.1661499   0.12406989   0.13258748 
   13200   -940.78211    50.887579   -889.89453    1822.6085    2851.3167    2.1733831   0.10232209   0.13980747 
   13300   -942.44023     53.53832   -888.90191    1917.5485   -2309.2804    2.1626798   0.37026811   0.13681028 
   13400   -946.04321    48.809061   -897.23415    1748.1636   -2324.5696    2.1708984   0.55397611   0.12580102 
   13500   -942.16427      50.5248   -891.63947    1809.6151   -78.245629    2.1706394    0.1835903   0.15184142 
   13600   -937.57247    49.169389   -888.40308    1761.0692    2496.2424    2.1639407   0.32219752   0.14017754 
   13700   -947.50616    49.105419   -898.40074     1758.778    101.67206    2.1793323  0.033239296   0.13672221 
   13800   -940.83381    47.943535   -892.89028    1717.1636   -324.25148    2.1618801   0.83016658   0.14250028 
   13900   -942.45485    53.045463   -889.40939    1899.8961   -2540.5546    2.1626965   0.15098686   0.13233603 
   14000   -946.72985    47.864064   -898.86579    1714.3172    2520.0886    2.1852075   0.22369652   0.10958596 
   14100   -939.87947    46.760208   -893.11927    1674.7811   -3714.7231    2.1531038    0.3143638   0.12647856 
   14200   -939.37636    48.717182   -890.65918    1744.8728   -741.64187    2.1594186   0.63670686   0.14303557 
   14300   -942.80186    45.279418   -897.52244    1621.7446    11072.219     2.198703   0.29826781   0.14217745 
   14400   -943.02484    47.575925   -895.44892    1703.9971   -3690.4632    2.1577248   0.57846056   0.13654812 
   14500   -941.76704    51.773984   -889.99306    1854.3563   -13027.725    2.1318958    2.6701219    0.1443111 
   14600   -940.69103    47.955726   -892.73531    1717.6002    8736.9943    2.1857259   0.41493843   0.14983778 
   14700   -942.93212    47.011733   -895.92039    1683.7898     7264.817    2.1884228   0.29679064   0.15679353 
   14800   -936.69068    50.482204   -886.20847    1808.0895   -13760.241     2.115074    1.9699596   0.17568366 
   14900    -942.9329    50.137641   -892.79526    1795.7485     1218.628    2.1654567   0.55264121   0.14385216 
   15000   -943.12419    50.165006   -892.95919    1796.7286    11355.388     2.193618    3.2430058   0.16021193 
   15100   -937.93871    51.533236   -886.40547    1845.7336   -6081.1634    2.1398101    5.1865306   0.16883566 
   15200   -940.63128    49.255087   -891.37619    1764.1386   -9656.5442    2.1434354    6.8820963   0.15482467 
   15300   -943.46539    48.769895    -894.6955    1746.7608     2430.985    2.1728209    9.2084649   0.15494088 
   15400   -939.87144    52.492035    -887.3794    1880.0743    5636.0416     2.172779    13.016049   0.15184789 
   15500   -943.34894    49.787169   -893.56177    1783.1958   -6498.7016    2.1535738    21.283903   0.16018703 
   15600   -946.69246    49.235185   -897.45727    1763.4258   -5015.7538    2.1635847    18.842913    0.1605936 
   15700   -943.85084    55.039341    -888.8115    1971.3096    2213.9247    2.1733232    21.331418   0.15642734 
   15800   -942.99966    48.974421   -894.02524    1754.0861   -915.12853    2.1693435    20.810428   0.15262527 
   15900   -947.24049    48.492119   -898.74838    1736.8118   -6736.3648    2.1611109    21.862509   0.13871446 
   16000   -939.62117    49.897789   -889.72338    1787.1578   -48.877368    2.1636587    18.696907   0.15373613 
   16100    -940.9571    47.032946   -893.92415    1684.5496    5122.3735    2.1810535    17.763611    0.1515741 
   16200   -946.03582    46.966179   -899.06964    1682.1582   -1281.2727    2.1734468    20.915308   0.14564933 
   16300   -936.71189    47.013643   -889.69825    1683.8582   -2436.9012    2.1535644    23.344357   0.15590734 
   16400   -942.34289    49.683212   -892.65968    1779.4725    2462.1286     2.175474    19.633364    0.1550758 
   16500   -945.87194    47.109949   -898.76199    1687.3075    2004.2844    2.1850612     20.46357   0.14669501 
   16600   -939.76738    50.439167   -889.32821    1806.5481   -2479.6425    2.1557667    21.735099   0.16901904 
   16700   -939.71319    47.149451   -892.56374    1688.7224    1200.4965    2.1693885    18.039925   0.15264954 
   16800   -944.04182    46.293725   -897.74809    1658.0734    1561.2622    2.1784455    17.704906   0.14671664 
   16900   -938.99603    50.607655   -888.38838    1812.5827   -755.76112    2.1585167    18.088952   0.15460691 
   17000   -940.88971    48.292994   -892.59671    1729.6799    1024.8693    2.1670436    19.281107   0.13620655 
   17100   -947.36439    50.206573   -897.15782    1798.2174    383.98473    2.1751907     17.10488   0.13791495 
   17200   -942.82165    54.263254    -888.5584     1943.513   -1333.3581     2.159912    18.904907    0.1424663 
   17300   -943.71556    50.965924   -892.74964    1825.4146   -2206.0469    2.1641776    16.596631   0.14015957 
   17400    -942.6308    45.344667   -897.28614    1624.0815    957.83928    2.1681213    21.078082   0.15177214 
   17500    -935.5902    46.601553   -888.98865    1669.0986    3149.8503    2.1621578    19.947969   0.15383226 
   17600   -942.41543    48.900518   -893.51491    1751.4392    1893.2817    2.1678536    17.553006   0.13954898 
   17700   -942.70988    44.500486    -898.2094     1593.846   -1140.3925    2.1646936    17.654375    0.1507479 
   17800   -941.05167    51.081651   -889.97002    1829.5595    464.56544    2.1607753    17.694726   0.13548947 
   17900   -945.59641    51.844779   -893.75163     1856.892     2039.386    2.1758511    20.281546   0.13609842 
   18000   -945.62625    46.716444   -898.90981    1673.2136   -2703.9983    2.1683664    19.746245   0.12553214 
   18100   -941.86976    51.446788   -890.42297    1842.6374   -3681.9217    2.1540549    19.670475    0.1376827 
   18200   -941.34641    48.807882   -892.53853    1748.1213    5616.0039    2.1777606    18.046789   0.14023191 
   18300   -943.86807    44.987834   -898.88024    1611.3011    3442.6058    2.1768771    20.183426   0.14431163 
   18400   -939.63717    49.415166   -890.22201     1769.872   -5954.6489    2.1428367    21.378653   0.14253156 
   18500   -940.76997    48.123708   -892.64626    1723.6167    3703.7693     2.168783    21.877246   0.13442179 
   18600   -943.43639    47.047517   -896.38888    1685.0714    7261.7701    2.1856793    21.906589    0.1363609 
   18700   -938.82018    51.149602   -887.67058    1831.9933   -5008.8381    2.1407318    19.396186   0.13699273 
   18800   -941.08489    46.511924   -894.57297    1665.8884   -1068.1077    2.1607753    21.249947   0.12221891 
   18900   -943.85852    48.709063   -895.14946     1744.582    7598.2561    2.1883027    20.533931   0.14656116 
   19000   -939.82072     52.62695   -887.19377    1884.9065    -149.5626    2.1596084    20.281457   0.16006359 
   19100   -939.65096    45.572222   -894.07874    1632.2317   -9163.5557    2.1420993    18.516934   0.13936965 
   19200   -944.72273    48.519175   -896.20355    1737.7809    3023.3991    2.1840138    19.655722   0.14327799 
   19300   -943.19531    55.924085   -887.27122    2002.9979    8920.7272    2.1839852    19.414831   0.14532599 
   19400   -940.46881    48.392443   -892.07637    1733.2418    -9865.287    2.1409958    20.230814   0.14874832 
   19500   -942.91176    44.395975   -898.51579    1590.1028   -5752.0045    2.1534551    21.180857   0.14097445 
   19600   -941.09828    50.745373   -890.35291    1817.5152    13585.591    2.1980733    18.612188   0.14513279 
   19700    -942.3115    50.869012   -891.44249    1821.9435   -1616.6842    2.1638732      18.5827   0.13062667 
   19800   -943.48164    43.418291   -900.06334    1555.0857   -8412.9488    2.1458317    22.234527   0.12886699 
   19900   -942.66457    49.287157   -893.37742    1765.2872    4477.3002    2.1746464    18.897157   0.12513607 
   20000   -942.32295    52.782931   -889.54002    1890.4932    4112.5736    2.1729657    18.184807   0.14880938 
   20100   -943.56968    44.914097   -898.65559    1608.6601   -2669.4642    2.1603062    20.031145   0.12816797 
   20200   -944.19879    49.022692   -895.17609     1755.815   -4023.9178    2.1610467    21.257048   0.13117852 
   20300   -938.49359    49.202851   -889.29074    1762.2677    5552.6753    2.1700815    19.100932   0.13110748 
   20400   -944.33652    46.999664   -897.33685    1683.3575    1954.2857     2.172574    18.910556   0.12959568 
   20500   -945.27705    49.738379   -895.53867    1781.4484    -5866.895    2.1589786    18.753645   0.13702063 
   20600   -938.64714    49.733626   -888.91352    1781.2781    1299.5803    2.1576521    19.124296   0.14578177 
   20700   -939.61506    44.427465   -895.18759    1591.2307    5686.4442    2.1729679    18.076956   0.13132218 
   20800   -945.05467     48.31637    -896.7383    1730.5172   -3400.2743    2.1632199     18.05359   0.13389356 
   20900   -939.80178    52.381284   -887.42049    1876.1076    -6222.005    2.1429109    18.556202   0.14995803 
   21000   -945.22439    50.847353   -894.37704    1821.1678    4697.5388    2.1831841    18.630697   0.14282332 
   21100    -944.9191    49.064504   -895.85459    1757.3126    2073.4968    2.1760926    16.888041   0.14892509 
   21200   -936.89571     49.14997   -887.74574    1760.3737   -9275.5439    2.1304676    17.391558   0.16993758 
   21300   -941.60566    46.392715   -895.21294    1661.6188     5162.611    2.1822651    19.005876    0.1348751 
   21400   -942.49644    47.122918   -895.37353     1687.772     10382.59    2.1945916    22.822512   0.14196979 
   21500    -938.6451    47.185082   -891.46002    1689.9985   -9338.1059    2.1368437    21.243981   0.15348922 
   21600   -940.01869    51.901913   -888.11678    1858.9383    -7108.515    2.1382965    19.004202   0.12571019 
   21700    -946.2349    48.961336   -897.27357    1753.6175    15229.417    2.2136502    15.878983    0.1472281 
   21800   -939.71464    47.693601   -892.02104    1708.2118   -299.60499    2.1601228    17.535225   0.15088465 
   21900   -939.27473    47.830135   -891.44459     1713.102   -10315.319    2.1331313    21.093772   0.15114476 
   22000   -946.71724    48.680268   -898.03697    1743.5506    3664.6641    2.1858883    19.824115   0.15031861 
   22100    -944.7068    49.104374   -895.60242    1758.7406    7524.4192    2.1831057    18.396246   0.13414559 
   22200   -935.43615    44.983116   -890.45303    1611.1321   -4050.1096     2.141432    19.100174   0.14408772 
   22300   -941.16417    45.127247   -896.03692    1616.2943   -357.56731    2.1632045    20.352299   0.13999865 
   22400   -944.52412    48.192631   -896.33148    1726.0853    6036.4615    2.1858973    18.511001   0.14096866 
   22500   -942.01113    53.873029    -888.1381    1929.5365   -5599.1059    2.1476562    20.640024   0.14296812 
   22600   -942.43233    46.603502   -895.82883    1669.1684   -3975.7757     2.158053    21.968648   0.13785489 
   22700   -942.38023    47.875939   -894.50429    1714.7425    4428.7601    2.1797088    18.861022   0.15211967 
   22800   -943.78815      57.4199   -886.36825    2056.5726   -4366.8203    2.1563048    21.327695   0.16262698 
   22900    -942.2437    46.557989   -895.68571    1667.5383   -585.45962    2.1658899    19.531683    0.1629166 
   23000   -945.17468    50.169224   -895.00545    1796.8797   -3419.0689    2.1692996    21.456267   0.16281596 
   23100   -942.92589    55.287664   -887.63822    1980.2036   -1518.3023    2.1636752    20.534891   0.15376172 
   23200   -946.98986    50.418337   -896.57152     1805.802    -1148.713    2.1742387    20.541948   0.13959962 
   23300   -943.01636    46.846826   -896.16953    1677.8834   -8185.2929    2.1491502    20.919081   0.15247608 
   23400   -939.30995    49.935664   -889.37429    1788.5144    4733.6064    2.1713289    17.104658   0.15747146 
   23500   -942.14973    46.610098   -895.53963    1669.4047    11403.921      2.19252     17.28289   0.13643441 
   23600   -947.00053    47.354511   -899.64602    1696.0668   -12700.505     2.146186     17.61883   0.13546565 
   23700   -941.54162    49.881719    -891.6599    1786.5823   -5835.8727    2.1484497    19.122663   0.15924559 
   23800   -945.16339    52.788754   -892.37463    1890.7017    9644.2031    2.1979352    18.756808   0.15455306 
   23900   -945.85925    46.229136   -899.63012      1655.76    -915.3317    2.1718507    18.423149   0.14423569 
   24000   -938.72462    48.253813   -890.47081    1728.2766   -10811.322    2.1303137    17.268643   0.14897704 
   24100   -939.46465    49.077966   -890.38669    1757.7947    9470.1326    2.1798172    17.986121   0.13420298 
   24200   -943.55455     47.06705    -896.4875     1685.771    6482.8334    2.1881498     17.30012   0.13322479 
   24300   -939.24295    49.391331   -889.85162    1769.0184   -6888.2052    2.1420094    20.457799   0.13235805 
   24400   -939.39099    50.520847   -888.87014    1809.4735   -1810.8227     2.154344    18.643533   0.15340018 
   24500   -942.37771    46.535788   -895.84192    1666.7432    7460.0755    2.1905235    19.987566   0.15583071 
   24600   -941.04567    49.164221   -891.88144    1760.8841    297.31069    2.1671594    20.118811   0.16224904 
   24700   -937.39749    49.074679   -888.32281     1757.677   -6930.3459    2.1425821    19.489256   0.16795064 
   24800   -941.85751    44.722845   -897.13467    1601.8101    5539.2167    2.1831802    18.465453   0.14151971 
   24900   -944.07505    52.293456   -891.78159     1872.962    4562.4999    2.1795302    17.208888   0.14616911 
   25000   -941.14994    51.191699   -889.95824     1833.501   -5026.4114    2.1485744    21.285135   0.15854419 
   25100   -944.78345    45.518454   -899.26499     1630.306    368.98057    2.1724895    16.961446   0.12026086 
   25200   -941.51253    49.829111   -891.68342     1784.698    6273.7847     2.175843    19.617286   0.14843608 
   25300   -940.67151    49.752022   -890.91949     1781.937   -22.586239    2.1642418    19.576831   0.13889713 
   25400   -945.87946    46.352506   -899.52696    1660.1787   -3874.6857    2.1659764    21.369798   0.15059866 
   25500   -944.22017    51.763783   -892.45638     1853.991   -463.28517    2.1725213    20.132829   0.15047697 
   25600   -939.39637    49.249679   -890.14669    1763.9449    1064.6263    2.1670244    19.064346   0.14148559 
   25700   -944.33897    45.421285   -898.91768    1626.8257   -2605.3345    2.1699794    18.376652   0.14630177 
   25800   -943.01708    50.567897   -892.44919    1811.1587   -2105.9706     2.164077    19.139094   0.13981179 
   25900   -938.72215    48.973345    -889.7488    1754.0476    1122.0738    2.1627729    19.291914    0.1534024 
   26000   -939.89001    41.832756   -898.05726    1498.2976    2119.2295    2.1726284    21.643229   0.15338456 
   26100    -938.5155    46.990705    -891.5248    1683.0366   -914.79454    2.1585416    19.920932   0.14051494 
   26200   -939.68309    50.036853   -889.64624    1792.1386    2411.1013    2.1668298    18.972831   0.14605066 
   26300   -946.93139    49.362834   -897.56856    1767.9977   -631.65272     2.174226    18.457097   0.13159215 
   26400   -946.23518    55.039148   -891.19603    1971.3027   -4639.6377    2.1553673    19.348007   0.13129606 
   26500   -935.49055    46.089419   -889.40113    1650.7559    2545.8268      2.16133    17.864511   0.15734964 
   26600   -943.38718    45.868859   -897.51832    1642.8562    3708.8617    2.1808317    18.848109   0.13789884 
   26700   -940.91345    50.048949    -890.8645    1792.5718   -1381.5747    2.1570486    18.428852   0.13968587 
   26800   -943.57317    53.209912   -890.36326    1905.7861   -5779.3227    2.1513305    17.662547   0.13278188 
   26900   -946.10994    48.278624   -897.83131    1729.1652    4911.3921    2.1850848    18.192297   0.12624038 
   27000   -939.72702    48.970603   -890.75642    1753.9494    1169.2907    2.1678287    19.806849   0.15605989 
   27100   -941.04624     49.89704   -891.14919     1787.131   -7153.4682    2.1442269    20.564667   0.13709341 
   27200   -943.58062    44.920471   -898.66015    1608.8884   -25.604117    2.1725346    19.670261   0.13526399 
   27300   -941.17428    50.133662   -891.04062     1795.606     7787.219     2.183536    15.976265   0.15137727 
   27400   -941.48568    50.945478    -890.5402    1824.6823   -3426.8478    2.1508066    19.265126   0.14404112 
   27500   -944.43323    44.889516   -899.54371    1607.7797   -5817.3358    2.1550496    19.645983   0.13742149 
   27600   -944.25287     51.29211   -892.96076    1837.0974    5390.8782    2.1833129    18.596675   0.14330444 
   27700   -944.58314    55.079245   -889.50389    1972.7388    2272.6469    2.1696894    20.398965   0.12794754 
   27800   -945.85405    47.083333   -898.77072    1686.3542   -10094.465     2.146825     18.54619   0.14340734 
   27900   -940.98403    46.334437   -894.64959    1659.5315    188.48276    2.1639083    20.250003   0.15933172 
   28000   -940.93425    52.757389   -888.17686    1889.5784    9906.9998    2.1841814    18.297298   0.15515002 
   28100   -945.69245     49.06512   -896.62733    1757.3347   -4221.2903    2.1617648    18.334599    0.1354736 
   28200   -944.95449    50.075992    -894.8785    1793.5404   -10651.164    2.1443306    18.612105   0.14597746 
   28300   -938.97847    51.525567   -887.45291    1845.4589    6063.2726    2.1736297    18.284012   0.13983386 
   28400   -942.23373    47.874992   -894.35874    1714.7086    5622.9122    2.1813091    20.179261    0.1553485 
   28500    -945.5965    48.176773   -897.41973    1725.5173    -10753.44    2.1461782    18.770321   0.13516666 
   28600   -937.05294    49.013669   -888.03927    1755.4919   -2381.9062    2.1482755    21.198147   0.15156419 
   28700   -943.32505    50.133982   -893.19106    1795.6174    15788.266    2.2110008     18.96753   0.15328718 
   28800   -944.67411    47.920607    -896.7535    1716.3424   -6624.1103    2.1539633    21.351769   0.11895789 
   28900   -940.12018    48.193089   -891.92709    1726.1017    -19679.66    2.1115229    21.214772   0.15571172 
   29000   -941.73775    55.321395   -886.41636    1981.4117    15048.114    2.1992639    19.679207   0.14489427 
   29100   -944.70611    48.809535   -895.89658    1748.1805    7184.5088    2.1877949    19.744621   0.12694053 
   29200   -942.67719    47.943059   -894.73413    1717.1465   -10201.149    2.1365614    20.673764   0.13810441 
   29300   -941.10551    53.454987   -887.65053    1914.5638   -2124.2906    2.1519747    20.012055   0.14363893 
   29400   -945.84291    49.829153   -896.01376    1784.6996    7255.0083    2.1884446    18.768111   0.13933105 
   29500   -943.86043    47.837156   -896.02327    1713.3535   -3093.9081    2.1577141    21.833431    0.1466187 
   29600    -940.3171    51.487799    -888.8293    1844.1062    -7751.073     2.137228    19.173343   0.11833913 
   29700   -944.39652    47.635878   -896.76064    1706.1444    5516.3809    2.1826106    17.662132   0.12457279 
   29800   -945.00079    49.208133   -895.79266    1762.4569    3762.9314    2.1774811    18.132101   0.13518651 
   29900    -937.1982    47.861996    -889.3362    1714.2431   -6098.6612    2.1359006    18.615976   0.14283066 
   30000   -945.60233    48.678001   -896.92433    1743.4695   -2102.8059     2.164305    17.717388   0.13919388 
   30100   -942.99976    47.178326   -895.82143    1689.7566    9928.2965    2.1902935    18.739121   0.14887247 
   30200   -938.91894     50.01531   -888.90363     1791.367   -3187.3314    2.1477373    22.176034    0.1472933 
   30300   -942.29715    48.000155   -894.29699    1719.1915   -6731.2987    2.1469888     21.10931   0.13704804 
   30400   -946.59925    49.966871   -896.63238    1789.6321    5600.3093    2.1862619    19.168626   0.13028437 
   30500   -939.39628    51.626889   -887.76939    1849.0879    3624.7114    2.1663012    17.712339   0.14029682 
   30600   -941.65547    47.973571    -893.6819    1718.2394    -7495.739     2.144545    18.973364   0.15160553 
   30700   -946.46397    49.041263    -897.4227    1756.4802   -3616.2528    2.1664024    21.083253   0.13235305 
   30800   -941.78821    54.180396   -887.60781    1940.5453    7524.1774    2.1804008    19.353592   0.15866744 
   30900   -941.46662    49.150855   -892.31577    1760.4054   -513.77339    2.1592744     20.75707   0.14698419 
   31000   -944.50169    45.692346   -898.80934    1636.5341    -10701.66    2.1450769     20.12633    0.1470682 
   31100   -936.29754    45.882633   -890.41491    1643.3495    10960.073    2.1802157    20.969015   0.15458499 
   31200   -942.66024    52.161364   -890.49887    1868.2309    8473.9169    2.1866273    16.216717   0.14316008 
   31300    -943.7399    44.724652   -899.01525    1601.8749   -15065.521    2.1362852     21.22223   0.13934613 
   31400    -942.4326    48.894016   -893.53858    1751.2064   -4602.6691    2.1556071    17.990617   0.14820989 
   31500   -940.99776     54.24153   -886.75623    1942.7349    16547.385    2.1952809    17.094867   0.13372421 
   31600   -941.09656    44.977128   -896.11943    1610.9176   -2571.5943    2.1574409    20.475393    0.1612268 
   31700   -939.71889    46.666003   -893.05288     1671.407   -7096.5211    2.1436193    20.861281   0.17375874 
   31800   -935.01693     49.00353    -886.0134    1755.1287    6132.8769    2.1598161    19.029674   0.17845525 
   31900   -942.96566    48.718456    -894.2472    1744.9184    6484.5073    2.1796008     23.44365   0.14918875 
   32000   -943.40192    46.889739   -896.51219    1679.4204   -3393.8067    2.1578943    18.047583   0.12960558 
   32100   -939.80067    52.779558   -887.02111    1890.3724   -4708.1718    2.1434745    20.277454   0.13192702 
   32200   -941.50333    47.580929   -893.92241    1704.1763    9836.0744    2.1869122    17.705808   0.14126674 
   32300   -944.06316    47.247642   -896.81552    1692.2392   -255.57916    2.1662962    20.370044   0.12097942 
   32400   -940.26517    51.145151   -889.12002    1831.8338    -7572.093    2.1397157    19.396321   0.13675117 
   32500   -944.64597    50.311717   -894.33425    1801.9832    1628.2617     2.176596    20.760092   0.12334786 
   32600   -943.02743    45.966414   -897.06102    1646.3503    4290.5401      2.18156    19.174757   0.13472313 
   32700   -940.94917     50.22931   -890.71986    1799.0317   -5035.0221    2.1462549     21.03367   0.13692416 
   32800   -943.62148    52.115462   -891.50601    1866.5868    -2915.905    2.1585346    18.721256   0.12373378 
   32900   -944.24033    46.411338   -897.82899    1662.2858    9351.6678    2.1946784    18.268341   0.12918024 
   33000    -939.9673    49.918893   -890.04841    1787.9137   -2346.6847    2.1533288      19.9398   0.14556195 
   33100   -938.80675    46.460102   -892.34665    1664.0324   -6057.9935    2.1418047    20.032199   0.13897338 
   33200   -948.24785    50.939714   -897.30814    1824.4758    7965.6693    2.1961501    18.177028   0.12742153 
   33300   -939.93839    50.649391     -889.289    1814.0775    9639.0931    2.1840994    20.575906   0.13879028 
   33400   -939.94632    49.686808   -890.25951    1779.6013   -13004.148    2.1275665    21.409616   0.13854292 
   33500   -947.36801    50.250995   -897.11701    1799.8084   -5673.2009    2.1630663    19.438833   0.12196595 
   33600    -946.0417    53.517059   -892.52464     1916.787    13731.989    2.2072508    18.386792   0.14035221 
   33700   -936.71964    48.089152   -888.63049     1722.379    -3292.638    2.1482879    17.930505   0.14210531 
   33800   -946.48204    48.198921   -898.28312    1726.3105   -9688.1366    2.1526096    19.803824   0.12454289 
   33900   -945.40705    50.054673   -895.35237    1792.7769    4453.6133    2.1849477     17.74037   0.13913968 
   34000   -940.69731    51.302756   -889.39456    1837.4787    3159.3183    2.1708782    23.096425   0.13241629 
   34100   -941.58834    47.324587   -894.26375    1694.9951   -3604.0057    2.1536035    20.333554    0.1386733 
   34200   -944.48106    46.678644   -897.80241    1671.8597    1025.1854     2.174429    18.029862   0.13987053 
   34300   -942.22771    52.490167   -889.73755    1880.0074    3961.1104    2.1759336    21.582574   0.14258313 
   34400    -941.0346    46.636388   -894.39821    1670.3463   -2719.6948    2.1571194    17.731202   0.13115039 
   34500   -943.51396    43.614194   -899.89977    1562.1023    17.600687    2.1688467    17.829475   0.12646621 
   34600   -938.95551    48.928916   -890.02659    1752.4563    2637.0123    2.1692748    18.514673   0.13785553 
   34700   -940.44593    47.746334    -892.6996    1710.1005    1345.7453    2.1695849    18.964646   0.15903538 
   34800   -941.32563    42.216794   -899.10884    1512.0525   -1159.3382    2.1611004    22.014112   0.13594782 
   34900   -938.57618    48.132007   -890.44417    1723.9139    3311.4121    2.1625209    17.165474   0.13106721 
   35000   -941.86552    51.666075   -890.19945    1850.4914    10036.851      2.18975    18.786767   0.14899673 
   35100   -942.38308    45.649574    -896.7335    1635.0022    -7573.517    2.1511065    17.966904   0.13569779 
   35200   -939.25093    48.758866   -890.49206    1746.3658   -9415.3387    2.1363073    18.723683   0.13393935 
   35300   -941.00808    55.522148   -885.48593     1988.602    12434.553    2.1914595     15.44154   0.14492151 
   35400   -942.75827    48.970028   -893.78824    1753.9288    4214.9703    2.1731245    18.881986   0.12522213 
   35500   -943.46606    48.477172   -894.98889    1736.2765   -14917.949    2.1284532    17.581282   0.14085939 
   35600    -937.6624    50.697306   -886.96509    1815.7936    6008.5202    2.1688032    19.461721   0.14231877 
   35700   -943.00327    48.864857   -894.13842     1750.162    8260.6011    2.1905751    19.037577   0.14369437 
   35800   -944.48809    47.425647   -897.06244    1698.6147    -8612.396    2.1517446    19.073258   0.14995339 
   35900   -942.15973    50.818421    -891.3413    1820.1316   -1114.8708    2.1611131    18.415917   0.14064028 
   36000    -944.3315    51.190789   -893.14072    1833.4684    2627.7809    2.1804695    20.109941   0.15439055 
   36100   -945.20934    44.657173   -900.55217     1599.458    817.85734    2.1803577    18.711156   0.13354239 
   36200   -941.49965    48.542702   -892.95695    1738.6235    -5130.487    2.1578141    21.636252   0.13902476 
   36300    -940.7675    49.071782   -891.69572    1757.5733    2799.5933    2.1699228    17.063313   0.14401324 
   36400   -945.23837    44.732321   -900.50605    1602.1495    3884.2384    2.1895159    19.958553    0.1435563 
   36500    -941.6562    48.370908   -893.28529    1732.4705   -5842.8187    2.1549505    19.222453   0.14888628 
   36600   -940.03425    48.469899   -891.56435     1736.016    866.38603     2.163036    23.384251   0.14290475 
   36700   -945.67016    49.238873   -896.43129    1763.5579    2204.5384    2.1787091    17.770994   0.13571628 
   36800   -946.60884    46.732652   -899.87618    1673.7941   -1871.8811    2.1701451    19.264564   0.13789197 
   36900   -940.67688    51.377059   -889.29982    1840.1399   -11137.859    2.1335093    17.201755   0.13747204 
   37000   -943.04903    50.323644   -892.72539    1802.4104    8192.9847    2.1894342    16.757905   0.14475401 
   37100   -945.99223    50.949902   -895.04232    1824.8407    6786.8683     2.186522    21.182299   0.11660848 
   37200   -938.87178    52.371151   -886.50063    1875.7447   -16956.158    2.1140399    22.281305   0.14436043 
   37300   -940.14071    50.695432   -889.44528    1815.7265   -244.83513    2.1605971    19.342226   0.14221892 
   37400   -946.22122    52.955524   -893.26569    1896.6748     9270.864    2.1932613    20.662978   0.13479207 
   37500   -941.46607    47.216571    -894.2495    1691.1263   -5162.6527    2.1515868    20.718755   0.15147797 
   37600   -938.01924    52.448874   -885.57037    1878.5285   -6310.8778    2.1368443    22.350274    0.1450596 
   37700   -940.27422    47.577319    -892.6969     1704.047    7712.1217    2.1821742    18.006385   0.13163706 
   37800   -939.47676    44.547536   -894.92922    1595.5312    757.03053    2.1664844    19.203297   0.14461875 
   37900   -940.54245    47.868752    -892.6737    1714.4851   -3334.8864     2.154682     20.10645   0.13726077 
   38000   -939.54512    52.908712   -886.63641    1894.9982    2430.6739    2.1641823    18.940367   0.14351039 
   38100   -939.16503     53.01579   -886.14924    1898.8333   -3259.2822    2.1523058    20.042392   0.14828647 
   38200    -941.6259    47.214947   -894.41096    1691.0682    -2241.705    2.1658448    19.095686    0.1515024 
   38300   -940.82801    47.571295   -893.25671    1703.8313    4957.9641     2.175561    18.971302   0.14273154 
   38400   -940.82848    48.355249   -892.47323    1731.9096    981.41123    2.1651392    23.455417   0.14887174 
   38500   -938.33148    57.196817   -881.13466    2048.5826   -3671.8161    2.1442085    18.586835   0.15513221 
   38600   -941.77459    52.354128   -889.42046     1875.135    4331.2378    2.1727408    22.983261   0.13825775 
   38700   -941.57872    48.131032   -893.44769     1723.879   -3711.9824    2.1560731    19.926365   0.15158469 
   38800   -940.05024    45.633123   -894.41712     1634.413    -138.5107     2.161244    21.565402   0.13890051 
   38900    -941.1889    51.622617   -889.56628    1848.9349    6358.7257    2.1775935    20.115918   0.13494688 
   39000   -935.81659     50.30753   -885.50906    1801.8333   -5387.1257    2.1397258    57.267182   0.16882946 
   39100   -941.38664    48.151288   -893.23535    1724.6045   -2697.5071    2.1574525    37.152968   0.15124956 
   39200   -941.75681    47.913875   -893.84294    1716.1012    5640.8712    2.1762792    41.777399   0.17123648 
   39300    -939.6184    55.985419   -883.63298    2005.1947   -2263.0727    2.1543714     44.89216   0.17072248 
   39400    -937.6546    48.638806    -889.0158    1742.0656    1769.6308    2.1565923     56.16593   0.15238267 
   39500   -941.52141    48.083405   -893.43801    1722.1732   -1936.4858    2.1679561    62.881219   0.14363402 
   39600   -937.57864    47.954855   -889.62378     1717.569    3124.8143    2.1626597     57.83011   0.14854043 
   39700   -931.91894    49.080727   -882.83821    1757.8937    2021.9225    2.1510625    63.800289    0.1589977 
   39800   -944.15855    49.889271   -894.26928    1786.8528    2525.2742    2.1783816    66.237082   0.13277113 
   39900   -943.20812    49.396826   -893.81129    1769.2152   -2538.7256    2.1624287    72.327246   0.13681344 
   40000   -938.96313    46.812545   -892.15059    1676.6556   -2500.5455    2.1579711    73.274629   0.14950397 
   40100   -937.34601    48.603696   -888.74231    1740.8081     6585.167    2.1758878    70.551904   0.12588384 
   40200   -934.67207    53.796476   -880.87559    1926.7947    -5492.384    2.1333568    68.644604   0.16122179 
   40300   -941.53511    50.900455   -890.63465    1823.0697   -5316.3167    2.1493188       70.488   0.12676059 
   40400   -944.58636    52.002895   -892.58346    1862.5551    9846.4635    2.1901633    73.525578   0.11825683 
   40500   -943.91427    47.954585   -895.95969    1717.5593    1349.1451    2.1696306     78.14843   0.13255948 
   40600   -935.82986    50.213421   -885.61644    1798.4626    -11451.88    2.1235782    75.703941   0.13956165 
   40700   -941.92056    52.270667   -889.64989    1872.1457    9455.6311    2.1827034    74.209159   0.12650824 
   40800   -945.99724    52.317926   -893.67931    1873.8384    3211.0703    2.1791772    71.754923   0.12903238 
   40900   -942.77262    47.797579   -894.97504    1711.9359   -12103.068    2.1374743    72.719764   0.13054008 
   41000   -935.71274    50.236747   -885.47599    1799.2981   -157.02178    2.1543545    66.651017   0.14065029 
   41100   -943.57632     51.44972    -892.1266    1842.7424    11371.668    2.1960953    75.443678   0.13107462 
   41200   -942.34836    46.730821   -895.61753    1673.7285   -7638.1915    2.1469021    77.963586   0.12007201 
   41300   -938.10575    46.439492   -891.66626    1663.2942   -4040.7746    2.1501966    73.941953    0.1288083 
   41400   -939.94135    52.732199   -887.20915    1888.6761     6288.052    2.1758553    73.593864   0.13709431 
   41500   -935.23444    52.896068   -882.33837    1894.5453   -1578.2021    2.1490866    82.179804   0.15218054 
   41600   -942.79571    48.316714     -894.479    1730.5295    2066.6763    2.1734904    75.265252   0.13686118 
   41700   -943.90466    50.015323   -893.88933    1791.3675   -1478.3658     2.164436    71.734307   0.13953871 
   41800   -943.70963    50.235917   -893.47371    1799.2683   -447.40117    2.1662601    71.105485   0.13607822 
   41900   -943.81366    50.637484   -893.17617     1813.651    141.13307    2.1664433    71.742041   0.12439567 
   42000   -936.34578    54.938842   -881.40694    1967.7101    1278.8398     2.147976    79.463999   0.13958219 
   42100   -943.68423    55.087626    -888.5966     1973.039    4524.1562    2.1682641    74.475502   0.12340664 
   42200   -941.30496    47.820514   -893.48444    1712.7574   -4574.8954    2.1495277     71.97013    0.1245961 
   42300   -948.01225    53.450707   -894.56155    1914.4105   -3611.3299    2.1638747    79.706545   0.13919254 
   42400   -944.53419    48.200337   -896.33385    1726.3613    9996.0431    2.1927351    69.875922   0.13879252 
   42500   -950.45118     43.62914   -906.82204    1562.6376   -73.064308    2.1845325    70.786515   0.11934606 
   42600   -942.93628    43.891948   -899.04433    1572.0504    -14177.62    2.1341185    69.939051   0.14721954 
   42700   -941.56892    46.735874   -894.83304    1673.9095    9025.8575    2.1933192    66.406336   0.13906423 
   42800   -940.09121    49.418995   -890.67222    1770.0092    9469.6102    2.1862953    72.628256   0.13686738 
   42900   -940.65716    46.619982   -894.03717    1669.7587    -13286.85    2.1311233    72.398523   0.14500503 
   43000   -946.18617    45.516726   -900.66945    1630.2441    907.52919    2.1815659    74.729672   0.13298337 
   43100    -942.1636    51.512979   -890.65062    1845.0081    6255.9092    2.1829005    71.532307   0.14499264 
   43200   -943.49282    50.757603   -892.73522    1817.9533   -4005.1956    2.1592377    74.659069   0.14862168 
   43300   -941.40139     42.94664   -898.45475    1538.1929    -700.8592    2.1667297    70.502395   0.15638233 
   43400   -944.32559    48.092295   -896.23329    1722.4916    6439.9015    2.1905115    64.446747   0.15998947 
   43500   -942.60043    52.668694   -889.93174    1886.4016   -2153.1528    2.1604348     73.17256   0.14131789 
   43600    -945.3063    50.183506    -895.1228    1797.3912   -8448.0428    2.1519326    68.748508   0.13849908 
   43700   -944.00531    48.903627   -895.10168    1751.5506    5262.6365    2.1831933     69.34456   0.13271754 
   43800   -938.60182     53.65074   -884.95108    1921.5749   -13.945637    2.1530875    74.524842   0.14734338 
   43900   -940.56835    47.368846    -893.1995    1696.5803      -3621.4    2.1563195    75.325901     0.144903 
   44000   -942.51707    47.590423   -894.92664    1704.5164    2250.7649    2.1703546    75.627085   0.13153499 
   44100   -937.89929    50.413328   -887.48597    1805.6226    6424.4392     2.170001    71.738535   0.14003718 
   44200    -938.8901    49.874425   -889.01568     1786.321    -2685.132    2.1420367    72.456946   0.13939669 
   44300   -943.03642    46.724091   -896.31233    1673.4875   -5338.6457    2.1509682    72.196771    0.1307931 
   44400   -945.43529    54.667592   -890.76769    1957.9949    13003.134    2.1998448    68.792117    0.1317127 
   44500   -939.41315    48.047461   -891.36569    1720.8858    1164.6126    2.1586198    72.832468   0.12524995 
   44600   -944.91658    43.731349   -901.18523    1566.2983   -13915.293    2.1379122    76.952893   0.12707645 
   44700   -943.15529    46.958783   -896.19651    1681.8933    6633.2502    2.1867587     73.54127   0.14629555 
   44800    -939.9217    49.342929   -890.57877    1767.2848     9553.575    2.1842286    70.554212   0.13288663 
   44900   -944.00045    49.268604   -894.73185    1764.6227   -12103.085    2.1406405    72.781569   0.14469897 
   45000   -945.06614    43.959582   -901.10656    1574.4728   -145.10708    2.1769522     71.93568   0.14776564 
   45100   -941.14869    50.323123   -890.82557    1802.3918    4338.5398    2.1754491    70.551199   0.15342991 
   45200    -940.7737    47.982607   -892.79109     1718.563    637.70346    2.1644229    69.072291   0.14264809 
   45300   -943.75566    45.697256   -898.05841      1636.71   -3292.7544    2.1642775    73.857542   0.14156974 
   45400   -946.60989    49.703708   -896.90619    1780.2066    1581.2775    2.1817947    72.482977   0.12583352 
   45500   -937.78863    48.163157   -889.62547    1725.0296    866.26561    2.1602674    74.880365   0.14978814 
   45600   -946.04357     51.55493   -894.48864    1846.5106   -8499.6452    2.1528115    80.142744   0.12443702 
   45700   -943.37754    48.611224   -894.76632    1741.0777    4207.9318    2.1767897    71.127303   0.13517438 
   45800   -938.53449    54.381207   -884.15329    1947.7376   -465.64795      2.15467    69.238604   0.15387543 
   45900   -945.09213    52.827603   -892.26452    1892.0932   -2870.9615     2.159988    76.679007   0.14133173 
   46000   -942.10317    46.912693   -895.19047    1680.2425    208.46962    2.1668646    74.663285   0.14685275 
   46100   -940.25659    51.370058   -888.88653    1839.8892    4388.2556    2.1687886    74.473216   0.13298065 
   46200   -939.10272    51.001058   -888.10166    1826.6729   -1414.6942    2.1524155    73.825931   0.14103909 
   46300     -946.658    50.414047   -896.24395    1805.6483   -8154.0219    2.1510362    76.109663   0.13185751 
   46400    -943.5226    51.482694   -892.03991    1843.9234    8821.5261     2.186944    72.566267   0.13770847 
   46500   -939.33665    50.917516   -888.41913    1823.6808    3672.2492    2.1670764    70.038345   0.13748644 
   46600   -936.28214    51.355213   -884.92693    1839.3575   -13606.694     2.112376    76.863884   0.15395765 
   46700   -944.03433    47.687602   -896.34673     1707.997    10583.821     2.191594    70.569182   0.13209973 
   46800    -940.0043    46.586837   -893.41746    1668.5716    11260.293    2.1883389    73.682473   0.13449831 
   46900   -938.19938    44.638111   -893.56127    1598.7753   -6935.0856     2.133974    70.286733   0.13465533 
   47000   -937.47739    52.099607   -885.37778     1866.019   -1036.0213    2.1478222    73.347534   0.13320873 
   47100   -938.54438      50.3283   -888.21609    1802.5772    6766.7149    2.1758168      68.4906   0.14298925 
   47200   -939.99365    46.172395   -893.82126    1653.7277   -3105.1324    2.1527878      75.7799   0.14466038 
   47300   -944.85842    50.955502   -893.90292    1825.0413   -3345.4356    2.1597039    73.606053   0.12611504 
   47400   -946.14954    54.340751   -891.80879    1946.2886    4206.7946    2.1773173    75.108067     0.129426 
   47500   -933.57108    51.817054   -881.75402    1855.8989   -3436.8767    2.1337949    72.530104   0.14443105 
   47600   -938.41533    46.091969   -892.32336    1650.8472    2748.2109    2.1646498     67.70502   0.13681946 
   47700   -939.14726    45.514359    -893.6329    1630.1593    6212.1795    2.1773906    73.532779   0.15382015 
   47800   -941.95675     49.27095    -892.6858    1764.7067   -3035.4328    2.1569955    72.665034   0.13640138 
   47900   -935.88917      52.8405   -883.04867    1892.5551   -9442.2484    2.1273152    71.980703   0.14616857 
   48000   -942.88923    49.196096   -893.69314    1762.0257    10993.387    2.1939932    70.335862   0.13508397 
   48100   -942.13448     48.30624   -893.82824    1730.1543    677.45501    2.1676446    72.198729   0.14180706 
   48200   -943.68766    50.807517   -892.88015     1819.741    -17648.29     2.120734    77.889834   0.12565718 
   48300   -947.10143    49.158803   -897.94263      1760.69     5327.916    2.1891072     71.64466   0.11733146 
   48400   -946.37297    46.390499   -899.98247    1661.5395    14324.211     2.215775    68.486673   0.13778184 
   48500   -941.00647    46.637299   -894.36917    1670.3789   -9591.6311    2.1379726    75.245594   0.13149963 
   48600   -943.41119    50.587471   -892.82371    1811.8598   -6530.5288    2.1473346    75.166482   0.15087192 
   48700   -943.24302    46.848552   -896.39446    1677.9452    9104.9572    2.1913691    74.440269   0.13708073 
   48800   -944.38285    41.594937   -902.78791    1489.7798    5082.6687    2.1834123    72.855493   0.12515218 
   48900   -940.36866    46.433072   -893.93559    1663.0642   -6981.0809    2.1447265    78.932527   0.13679637 
   49000   -943.30071    50.776954   -892.52376    1818.6463   -947.99202    2.1703838    74.069595   0.13447854 
   49100   -943.93387    45.909256   -898.02462    1644.3031    5374.3521    2.1860188    69.988345    0.1397215 
   49200   -948.36632     46.28558   -902.08074    1657.7816   -4358.8648    2.1708228    75.193058   0.12780997 
   49300   -942.98448    49.912501   -893.07198    1787.6848   -3843.0269    2.1545725    73.288927   0.11953116 
   49400    -940.8698    47.981991   -892.88781    1718.5409    4776.7058    2.1755964    70.533758   0.13426188 
   49500    -943.3538    45.814628   -897.53917    1640.9138    2366.4855    2.1783073    67.853141    0.1350569 
   49600   -948.29142    43.584814    -904.7066      1561.05   -3995.5868    2.1695698    73.979853   0.13541816 
   49700   -943.79657    49.301404   -894.49517    1765.7975   -5403.2618    2.1588894    71.830421   0.14370092 
   49800   -946.76001    53.980151   -892.77986    1933.3733    6117.5379    2.1894242    71.279172   0.13749618 
   49900   -943.50565    49.680198   -893.82545    1779.3645   -609.66086    2.1676218    70.468919   0.14617349 
   50000   -936.37518     53.55414   -882.82104    1918.1151   -13706.989    2.1201152    70.764605   0.14876716 
   50100   -938.75428    50.791881    -887.9624     1819.181    8329.7173    2.1828031    64.161408   0.15084069 
   50200    -941.6394    49.373533   -892.26587    1768.3809    3070.9118    2.1706074    75.634834    0.1307821 
   50300   -942.84449    47.891583   -894.95291    1715.3028   -12044.877    2.1398452    78.747473   0.14353824 
   50400   -940.75489      51.1888   -889.56609    1833.3972    5602.6493    2.1733336    69.723273   0.14391865 
   50500   -936.41176    52.637624   -883.77413    1885.2888    8814.3525    2.1752305    70.191218    0.1546521 
   50600    -940.3192    46.940062   -893.37914    1681.2228   -5989.5094     2.149231    73.102463   0.15754587 
   50700   -944.28974    50.003021   -894.28672    1790.9269   -3405.8548    2.1649537    70.627977   0.16168666 
   50800   -943.89068    53.360946   -890.52974    1911.1956    8549.5736    2.1903589    67.542086   0.14420323 
   50900   -938.11198    54.844708   -883.26727    1964.3385   -6315.4157    2.1385674    73.046741   0.15677727 
   51000   -944.07885    49.729107   -894.34974    1781.1163   -6707.9573    2.1538837    71.289231   0.13020937 
   51100   -947.26182     54.03201   -893.22981    1935.2306    11221.064    2.2024532    72.242444   0.13275198 
   51200    -945.5573    53.090109   -892.46719    1901.4952     161.6813    2.1696247    70.274669    0.1413409 
   51300   -941.86507    56.142762   -885.72231    2010.8301    -25816.33    2.0929361    79.971623   0.15110469 
   51400   -947.37011    49.197344   -898.17276    1762.0704    14482.778       2.2102    68.466786   0.14246754 
   51500   -943.37908    49.006743   -894.37234    1755.2438    10173.713     2.191578    73.198733   0.13038675 
   51600   -939.19403    46.544797   -892.64923    1667.0658   -10658.787    2.1322032    74.328626   0.14305146 
   51700   -938.13247    50.231064   -887.90141    1799.0946    987.50663    2.1528352    66.629515    0.1554822 
   51800   -946.41952    47.471314   -898.94821    1700.2503    10327.524    2.2034002    73.491997   0.13235172 
   51900    -939.5299    43.836992    -895.6929    1570.0821   -6731.9971    2.1452856    74.789743   0.14652678 
   52000   -939.27251    47.162372   -892.11014    1689.1851    -5004.361    2.1467771    76.625649   0.13681303 
   52100   -939.66992    45.873294   -893.79662     1643.015    12167.811    2.1919891    76.760551   0.12987923 
   52200   -944.44742    43.176405   -901.27101    1546.4223    4543.0303    2.1822229    74.155691   0.12657111 
   52300   -940.14792    46.943174   -893.20475    1681.3342   -11179.987    2.1344646    71.554517   0.12642587 
   52400   -941.92037    50.429919   -891.49045    1806.2168    3449.6625    2.1710091    72.792753   0.13628058 
   52500   -946.84858    48.318211   -898.53037    1730.5831    7602.1966     2.193257    72.626815    0.1292618 
   52600    -944.1617    48.843432   -895.31827    1749.3946   -5818.3761    2.1526442    73.507769   0.13250193 
   52700    -944.4162    53.542561   -890.87364    1917.7004   -7454.1796    2.1495867    73.743171   0.14295785 
   52800     -946.788    52.733329   -894.05467    1888.7166    2105.5572    2.1769893    75.945271   0.11700725 
   52900   -946.26823    48.054102   -898.21413    1721.1237    803.29764    2.1728166    77.102887   0.12244572 
   53000   -936.74377    49.586054   -887.15771    1775.9926    -5584.983    2.1369765    77.390557   0.13227056 
   53100   -942.44745    51.293686   -891.15377    1837.1538    5719.6591    2.1800114     75.90632   0.11806771 
   53200   -943.52884    48.653255   -894.87559    1742.5831    351.90888    2.1713708    69.584002   0.14972651 
   53300   -939.86334    48.338009   -891.52534    1731.2922   -13178.529    2.1301081    75.725667    0.1471828 
   53400   -935.76051    50.847976   -884.91254    1821.1901    1946.2386    2.1559431    67.963275   0.16523885 
   53500    -945.7272    53.824685   -891.90252     1927.805     9066.576    2.1971789    43.985526   0.15153418 
   53600   -944.19798       48.119   -896.07898    1723.4481   -13618.851    2.1363424    46.352093   0.13678146 
   53700   -940.21526    50.567697   -889.64756    1811.1515   -10018.485    2.1327089    48.279975   0.14147111 
   53800   -937.21196     53.63039   -883.58157    1920.8461    17783.531    2.1951997    43.511978   0.13272416 
   53900   -944.90167    50.560941   -894.34073    1810.9095   -275.34971    2.1690305     44.14049   0.12916081 
   54000   -942.75628    48.441032   -894.31524    1734.9821   -11087.808    2.1354072    41.124464   0.14554784 
   54100   -939.31309    50.268656   -889.04444    1800.4409    4928.9109    2.1645296    40.993485   0.14397583 
   54200   -943.52138    47.076892   -896.44449    1686.1236       3762.7    2.1782317    45.697342   0.13937338 
   54300   -944.47202     46.45192    -898.0201    1663.7393   -6666.6022    2.1540345    44.888539   0.15031745 
   54400   -943.69966    51.152825   -892.54684    1832.1087   -315.72549    2.1643908    44.437544   0.13847848 
   54500   -938.88154    48.203786   -890.67775    1726.4848    6762.6965    2.1739995    44.784765   0.14161803 
   54600   -944.75376    43.928878   -900.82489    1573.3731   -3277.4246     2.164291    42.927974   0.13395521 
   54700   -943.17611    46.737344   -896.43876    1673.9622   -5783.9863    2.1525267    44.001836   0.14094197 
   54800   -941.82333    50.990972   -890.83235    1826.3117      7468.02    2.1817191    44.634401   0.14885473 
   54900   -941.81726    45.657896   -896.15937    1635.3003     3133.373      2.17125    40.937911   0.14303912 
   55000   -943.37661    40.977415   -902.39919    1467.6624   -5767.5476    2.1547117    41.472412   0.12555964 
   55100   -944.27991    51.669442   -892.61047     1850.612   -304.57383    2.1653605    38.656958   0.14681133 
   55200   -942.67715    50.545382   -892.13177    1810.3523    8284.7852    2.1835954    42.967813   0.14199091 
   55300   -943.21751    45.488748   -897.72876     1629.242   -7540.7444    2.1505771    47.176099   0.14601871 
   55400   -945.78202    49.084866   -896.69715    1758.0419   -5412.4464    2.1579483     43.50334   0.13882517 
   55500   -940.75556    52.094112   -888.66145    1865.8222    8425.7556    2.1793928    43.303485   0.13579305 
   55600   -940.65989     48.01887   -892.64102    1719.8618   -1866.4924    2.1560121    43.175498    0.1472507 
   55700   -941.31049    44.473835   -896.83666    1592.8915   -10254.726      2.14067     41.02944   0.13734324 
   55800   -940.13743     49.20654   -890.93089    1762.3998    15806.926    2.1999978    44.570402   0.12946498 
   55900   -938.73714    52.359663   -886.37747    1875.3332    6195.4497    2.1697973    43.364302   0.15544091 
   56000   -943.94196     48.64078   -895.30118    1742.1363   -20572.484    2.1166337    46.536839     0.151642 
   56100   -945.11431    50.997075   -894.11723    1826.5303      1148.23     2.172286    42.815917   0.13510343 
   56200   -944.56794    55.924289   -888.64365    2003.0052    10132.156    2.1882673    44.443934   0.13892154 
   56300   -939.54322    49.405858   -890.13736    1769.5386   -7991.7506    2.1335595    45.144049   0.13076018 
   56400   -943.25483    45.461141   -897.79369    1628.2532   -1831.4914     2.162062    46.525466   0.12203699 
   56500   -941.07134    50.088877   -890.98247    1794.0019    9639.3055    2.1839801    45.576929   0.14375543 
   56600   -942.74907    50.287565    -892.4615    1801.1182   -3404.3404    2.1573383    41.637219   0.13056421 
   56700   -947.51831    46.398469   -901.11984    1661.8249   -6504.6347    2.1602296    38.370954   0.12527488 
   56800   -943.28858    50.339243   -892.94934    1802.9691    2092.2477    2.1734881    43.951977   0.13258722 
   56900   -940.08414    48.756261   -891.32788    1746.2725    1752.5781    2.1702582    44.636094   0.13105234 
   57000   -943.91641    43.906529   -900.00988    1572.5726   -6356.3444    2.1591498     44.58433   0.14809277 
   57100   -943.63051    48.499811    -895.1307    1737.0873   -2397.8737     2.166258     42.49356   0.13318966 
   57200   -936.89313    47.371009   -889.52212    1696.6578    10929.329    2.1809827    39.405196   0.13015133 
   57300   -942.56511    46.278382   -896.28672    1657.5238   -3494.6997    2.1597642    42.655036   0.13377606 
   57400   -941.73929    46.183741   -895.55555    1654.1341   -7300.4617    2.1482002    43.846174   0.12691166 
   57500   -940.01244    52.790712   -887.22173    1890.7718    3572.0621      2.17248    43.998956   0.16470917 
   57600    -942.8539    50.161139   -892.69276    1796.5901     4533.053    2.1789523    44.830869   0.14888614 
   57700   -947.26697    50.277988   -896.98898    1800.7752   -13324.621    2.1463418     42.29445   0.13411324 
   57800   -938.93617    50.752674    -888.1835    1817.7767    244.35923    2.1595163      43.2556   0.14964435 
   57900   -942.83812    53.856192   -888.98193    1928.9335    15940.634    2.2052215    39.703379   0.14327169 
   58000   -944.10006    48.125332   -895.97473    1723.6749   -11008.215    2.1417675    41.736255   0.15059564 
   58100   -939.54298     45.82705   -893.71593    1641.3587   -6645.4308    2.1436887    44.580365   0.13773354 
   58200   -937.99736    51.452059    -886.5453    1842.8262    15729.317    2.1913411    43.615575   0.13738083 
   58300   -944.55811    50.920616    -893.6375    1823.7918   -5123.0927    2.1566481    43.876825   0.11697162 
   58400   -941.99774    44.859611   -897.13813    1606.7086   -7282.9775    2.1506662    44.895106    0.1324675 
   58500   -938.42563    48.282676   -890.14296    1729.3104    7521.0905    2.1722155    42.155979   0.12781061 
   58600   -947.09625    53.386619   -893.70963    1912.1151    269.10783    2.1713802    43.286607   0.12705509 
   58700   -943.85132    43.873787   -899.97754    1571.3999   -1527.1754    2.1646654    44.003242   0.11927895 
   58800    -941.9283    50.129799    -891.7985    1795.4676    1257.5806     2.158971    42.641755   0.12949734 
   58900   -939.45461    47.143606   -892.31101     1688.513     5726.471    2.1728388    39.210059   0.13008162 
   59000   -949.28874    48.655587   -900.63315    1742.6667   -1800.7678    2.1737972    38.561591   0.10878847 
   59100   -941.39003    49.756165   -891.63387    1782.0854   -4901.4112    2.1454641     45.60189   0.11992864 
   59200   -941.21715    49.547798   -891.66935    1774.6224    4358.3691    2.1727972     42.89805   0.11923442 
   59300   -946.50518    48.697419   -897.80776    1744.1649    4651.6466    2.1798106    45.085246    0.1095981 
   59400   -938.18676    49.514325   -888.67243    1773.4236   -5712.9352    2.1369073    42.804244    0.1419574 
   59500   -940.41593    49.751515   -890.66441    1781.9188    4323.6062    2.1647539    39.135897   0.13505991 
   59600   -944.22587    48.741622   -895.48425    1745.7482    6685.7764    2.1831469    44.467666   0.13215139 
   59700   -940.76035    48.788348     -891.972    1747.4217   -7564.5986    2.1423466    43.220787     0.160105 
   59800   -936.04723    48.585392   -887.46184    1740.1525   -5369.0232    2.1361525     47.34733   0.15098592 
   59900   -943.57762    48.639737   -894.93788     1742.099    12320.761    2.1961534    45.352549   0.12319588 
   60000   -944.27313    50.055064   -894.21806    1792.7909    1167.2413    2.1696182    48.993519   0.12481394 
   60100   -938.88235    49.960699   -888.92165     1789.411   -16072.617     2.114262     45.39131   0.12541521 
   60200   -943.61921    44.638984   -898.98023    1598.8065    8079.7667    2.1868047    43.624412   0.12622154 
   60300   -940.31069    44.812409   -895.49828     1605.018    9906.9268    2.1857123    44.325657    0.1363197 
   60400   -939.16497    47.499734   -891.66524    1701.2682   -7279.7042    2.1373782    43.461035   0.14823224 
   60500   -940.03806    49.052231   -890.98583     1756.873   -2548.7829    2.1510191    43.757238   0.15187485 
   60600   -946.27569    47.229499   -899.04619    1691.5894    10882.387    2.1986127    41.087799   0.13643684 
   60700    -942.2047    50.632189   -891.57252    1813.4614   -1949.0672     2.154427    44.444152   0.14634799 
   60800   -942.80691    50.713032   -892.09388    1816.3569   -7694.3991    2.1431502    45.917458   0.13751275 
   60900   -945.58831    46.063069   -899.52524    1649.8121    4864.0943    2.1809417    47.612453   0.12789958 
   61000    -940.6365    49.224349   -891.41215    1763.0377     3724.291    2.1666466    45.406982   0.13581118 
   61100   -940.00781    48.495058   -891.51275    1736.9171   -2338.5436    2.1523415    47.872911   0.13349341 
   61200   -942.53124    45.156935   -897.37431    1617.3576    650.16801    2.1661428    41.614623   0.13448718 
   61300   -942.57162    47.220629   -895.35099    1691.2717    5586.2933    2.1759652    46.121746   0.13796342 
   61400   -938.08695    49.165503   -888.92144      1760.93   -1071.3979    2.1497586    46.931449   0.15063453 
   61500    -946.0005    50.293682   -895.70682    1801.3373   -4390.9638    2.1577876     42.89961   0.15217829 
   61600   -943.36374    48.778206   -894.58553    1747.0584    5050.5263    2.1742674    40.771342   0.13658541 
   61700   -936.98643    51.255252   -885.73118    1835.7773   -1446.8302    2.1466314    44.857429   0.14438382 
   61800   -943.96971    48.839964   -895.12974    1749.2704   -4188.3275    2.1587156    44.157612   0.13726656 
   61900   -939.65241    45.217223   -894.43519    1619.5169    3752.4229    2.1727649     44.14511   0.14057013 
   62000   -937.07655    51.164127   -885.91242    1832.5135    2357.4424     2.159904      47.0962   0.14812759 
   62100   -939.56953    46.303973   -893.26556    1658.4404   -3915.3476    2.1529103    42.329698   0.13265461 
   62200   -944.09766     48.21699   -895.88067    1726.9577   -3896.2998    2.1611437    43.527871   0.15033038 
   62300   -936.26023    47.980455   -888.27978    1718.4859    11841.419    2.1846128    41.905438    0.1502316 
   62400   -942.40354    48.116025   -894.28752    1723.3415   -2601.5906    2.1619253    42.073164   0.15384041 
   62500   -942.72124    44.129944   -898.59129    1580.5746   -6746.2669    2.1501783    42.578449   0.14482888 
   62600   -942.54647    51.753302   -890.79317    1853.6156    4933.5918    2.1790235    41.874496   0.15030766 
   62700   -939.56114    46.369883   -893.19125     1660.801    5716.3385    2.1729997     46.20119    0.1352995 
   62800   -948.61125    46.783196   -901.82805    1675.6044   -8569.9935    2.1539457    44.412868    0.1132953 
   62900     -941.019    47.659065   -893.35994    1706.9749    303.14454    2.1597735    43.109086    0.1149063 
   63000   -943.41909    52.912785    -890.5063    1895.1441    9074.0512    2.1877642    40.438254   0.14553523 
   63100   -947.54659    49.071438   -898.47516    1757.5609   -5810.8079    2.1608163    41.223708    0.1319484 
   63200   -937.70884    45.199689   -892.50915    1618.8889   -3415.2546    2.1447935    43.449165   0.14383652 
   63300   -940.70698    52.071024   -888.63595    1864.9952    6894.3211    2.1751676    42.733742   0.13720167 
   63400   -946.80011    51.045056   -895.75506    1828.2488   -1943.6339    2.1712829    38.643539    0.1265161 
   63500   -942.62738    48.480911   -894.14647    1736.4104   -7167.5876    2.1486068    46.681609   0.14237258 
   63600   -937.21364    50.664982   -886.54866    1814.6359   -499.30706    2.1525868    44.097534   0.13585768 
   63700   -941.14738    46.333052   -894.81433    1659.4819    6447.9887    2.1824629    44.108765   0.13383046 
   63800   -942.45733    46.825777   -895.63156    1677.1295   -3212.5553    2.1605584    38.265558   0.13549678 
   63900   -936.42594    49.456471   -886.96947    1771.3514   -2519.3972    2.1437731    43.598742   0.14891881 
   64000   -943.58992     47.61329   -895.97663    1705.3354    7296.5367    2.1849398    41.573481   0.13204241 
   64100   -942.30251    46.899008    -895.4035    1679.7524    835.14818    2.1683514    40.698685   0.14215671 
   64200   -940.04087    50.513642   -889.52723    1809.2155   -4149.2434    2.1526362    42.343975    0.1464348 
   64300   -941.71326    43.790888   -897.92237    1568.4308    2763.0174    2.1733042    45.075037   0.14141816 
   64400   -947.53636    50.926703   -896.60965    1824.0098   -1210.6712    2.1700565    43.088054   0.12026719 
   64500   -942.20251    51.850694   -890.35181    1857.1038   -2594.1835    2.1562478    44.596337   0.13297624 
   64600   -943.88361     47.25397   -896.62964    1692.4658   -868.00026    2.1648467    44.386728   0.11999302 
   64700   -946.74788    48.907895   -897.83999    1751.7035    2102.2893    2.1744284    46.515205     0.121542 
   64800   -940.63076    50.779472   -889.85129    1818.7365   -992.02656    2.1557507    44.453092   0.14208201 
   64900   -941.65087     46.00557    -895.6453    1647.7527   -260.59402    2.1609195    46.623005   0.13533163 
   65000   -947.35926    49.720742   -897.63851    1780.8167    1137.1265    2.1754887    42.310803   0.11499604 
   65100   -939.94607    51.891114   -888.05495    1858.5515   -1158.4654    2.1562321    46.280792   0.13236824 
   65200   -947.49362    52.875297   -894.61832    1893.8014   -7646.2422    2.1532672    44.828891   0.12139398 
   65300   -945.75233    49.469955   -896.28238    1771.8344    2868.0585    2.1739154    42.644836   0.11354147 
   65400   -937.56605    51.591053     -885.975    1847.8044    4788.5332    2.1641627    44.993818   0.14342723 
   65500   -941.40287    48.644459   -892.75841    1742.2681   -2902.7523    2.1562884    45.582883   0.13033737 
   65600   -942.16949    45.442709   -896.72678     1627.593   -3868.3199    2.1550895    39.902223   0.12591127 
   65700    -942.0175    53.881023   -888.13648    1929.8228    6426.7265    2.1763329     41.13369    0.1416557 
   65800   -943.28788     51.77765   -891.51023    1854.4877    2391.3503     2.170563    41.555649   0.12290068 
   65900   -942.98122    44.981436   -897.99978    1611.0719   -9288.3799    2.1455187    43.953238   0.13096897 
   66000   -940.77375    49.481112   -891.29263     1772.234    2086.1722     2.168388    45.090124   0.14320083 
   66100   -939.86413    49.152039   -890.71209    1760.4478    9365.0956    2.1845275    50.418606   0.12714322 
   66200   -946.44421    46.657301   -899.78691    1671.0953   -3794.9153    2.1660641    44.207243   0.13457933 
   66300   -941.16494    47.447233    -893.7177    1699.3878   -7313.8493    2.1439149    42.394813   0.12737562 
   66400   -939.72791    50.122126   -889.60578    1795.1928    6480.9629     2.174354    44.356175   0.13250925 
   66500   -945.60015    47.217292   -898.38286    1691.1522    5027.4522    2.1868014    45.872689   0.13028745 
   66600    -940.3314    46.586109   -893.74529    1668.5455   -10148.868    2.1391843    45.110955   0.12756246 
   66700   -938.99537    48.862982   -890.13239    1750.0948    776.35056    2.1612549    41.073948   0.14013617 
   66800   -942.45209    47.545126   -894.90697     1702.894    8336.9555    2.1932916    40.685836   0.13513268 
   66900   -948.00894    48.388086   -899.62085    1733.0858   -8833.1663    2.1576182    43.714991   0.13029815 
   67000   -939.24057    50.059148   -889.18142    1792.9372    -11315.28    2.1283984    45.462457   0.14947199 
   67100   -943.21149    51.370476   -891.84101    1839.9042    18875.752    2.2134147    42.066199   0.12850609 
   67200   -947.07622    51.042135   -896.03408    1828.1442    592.71674    2.1734178    40.462012   0.12898978 
   67300    -938.1612    46.490941   -891.67026    1665.1369   -15057.022    2.1162948    43.050353   0.15381538 
   67400   -941.28509    55.474639   -885.81046    1986.9004    3983.4002    2.1666869    40.443681   0.13227193 
   67500   -947.76774    51.879615   -895.88812    1858.1397    7255.4412    2.1909506    45.441779   0.11808109 
   67600   -941.53131    47.447279   -894.08403    1699.3895   -5837.4862    2.1458325    44.775112   0.14138877 
   67700   -935.50581    47.129492   -888.37632    1688.0075   -350.20033    2.1478167     48.64464   0.13911288 
   67800    -944.5144    46.745639   -897.76876    1674.2593    8543.1567    2.1941105    41.875728   0.14452455 
   67900   -942.54435    48.082708   -894.46164    1722.1482   -1505.4654    2.1616056    40.660229   0.14945635 
   68000   -940.99919    50.545217   -890.45397    1810.3464   -7136.0242       2.1448    41.710831   0.14116847 
   68100   -944.49241    46.490528   -898.00188    1665.1221    4256.6453    2.1816897    43.111097   0.13688853 
   68200   -945.83572    49.696394   -896.13932    1779.9446    2153.2383    2.1820249     43.86822   0.14194011 
   68300   -942.21318    51.435057   -890.77812    1842.2172   -8276.6476    2.1445279    43.746539   0.14235213 
   68400   -941.14203    44.266595   -896.87543    1585.4689   -320.26028    2.1637926    43.580778   0.14072008 
   68500    -943.8852    47.702472   -896.18273    1708.5295    9730.1892     2.193568    39.642043   0.14246971 
   68600   -937.79669    49.339212   -888.45747    1767.1517   -2735.9938    2.1500747    48.716032   0.15668348 
   68700   -942.75651    46.639082   -896.11743    1670.4428   -7977.5051    2.1441541    44.763995   0.13765505 
   68800   -946.38288    51.882066   -894.50082    1858.2275    6367.8281    2.1891022    38.913216   0.13658545 
   68900   -939.49343    53.888464   -885.60496    1930.0893    4027.7637    2.1651094    43.743417   0.15705909 
   69000   -942.51969    48.600552   -893.91914    1740.6955   -10572.371    2.1388568    47.522989   0.14401247 
   69100   -943.80742    48.351569   -895.45586    1731.7778   -508.72307    2.1661634    42.785343   0.15162084 
   69200   -939.28136    52.406423   -886.87494     1877.008    13901.394    2.1907543    41.941152   0.14919623 
   69300   -942.47509    50.315899   -892.15919     1802.133    -8575.937    2.1428986    47.446592   0.12626224 
   69400   -942.45949      43.8478   -898.61169    1570.4692   -8705.9504    2.1461727    45.308601   0.13780907 
   69500   -944.13773     53.63008   -890.50765     1920.835     10511.74     2.191201    40.664584   0.13142163 
   69600   -939.55533     47.51904   -892.03629    1701.9597    4492.3595    2.1704423    41.915586   0.12681709 
   69700   -946.50697    45.517328   -900.98964    1630.2656   -8716.6884    2.1567074    40.401081   0.13378198 
   69800   -939.20749    45.907563   -893.29993    1644.2424    623.37244    2.1646041    42.580235   0.13679273 
   69900   -938.06934    47.246315   -890.82302    1692.1917    5165.6352    2.1727727    43.291351   0.15099946 
   70000   -946.26624    46.645234   -899.62101    1670.6631   -2348.8044    2.1707149    41.283624   0.14143904 
   70100   -942.84316     48.97547   -893.86769    1754.1237   -3329.9263    2.1591972    41.963116   0.14407781 
   70200   -939.26716    49.116465    -890.1507    1759.1737     3712.415    2.1690585    45.701403   0.14224316 
   70300   -946.17777    48.919642   -897.25813    1752.1242   -2205.7585    2.1692135    43.223403   0.13151822 
[...]
   86800   -937.80991    45.965093   -891.84481    1646.3029   -1952.3549    2.1538075    61.739616   0.12584052 
   86900   -933.11531    48.568082   -884.54723    1739.5326    3568.5993    2.1519224     65.28663   0.15011747 
   87000   -941.20485    45.632706   -895.57214     1634.398    9581.7239    2.1880513    59.188299   0.13559315 
   87100   -940.00895    45.726865   -894.28209    1637.7705   -4772.0393    2.1489539    57.998721   0.14249491 
   87200   -940.68568    49.991681     -890.694    1790.5207   -4601.5351    2.1472534    60.802685   0.13426957 
   87300   -948.87285    48.856764   -900.01608    1749.8721    8728.0494    2.2017788    64.734689   0.13067544 
   87400   -945.63549    48.044451   -897.59104     1720.778   -2639.2343    2.1666831    61.149396   0.14539096 
   87500   -941.26477    48.343044   -892.92173    1731.4725   -9457.6574    2.1400841    63.746431    0.1409384 
   87600   -943.59749    52.678991    -890.9185    1886.7704    6691.4044    2.1843698    63.323903   0.13172845 
   87700   -948.66144    48.801963   -899.85948    1747.9093    11490.549    2.2081678    61.574062   0.13112982 
   87800   -936.45682    44.631354   -891.82547    1598.5332   -16865.711    2.1151981     65.69032   0.15464091 
   87900   -936.62774    45.117046    -891.5107     1615.929    2064.7275    2.1647174    62.775784   0.15417952 
   88000   -942.08712    48.586798   -893.50032    1740.2029    12585.859    2.2016043    58.359431   0.14642177 
   88100   -945.10741    45.175045   -899.93237    1618.0063    -6127.748    2.1602346    62.095958   0.14002251 
   88200   -940.88237    48.059565   -892.82281    1721.3193   -3493.8893    2.1580853    60.309338   0.17518929 
   88300   -939.08324    48.625297   -890.45794    1741.5818    10315.498    2.1852332    54.475249   0.15323967 
   88400   -942.89729    48.316546   -894.58074    1730.5235   -3079.0734    2.1625505    59.133408   0.14995796 
   88500   -944.27462    48.797332   -895.47729    1747.7435   -5234.9839    2.1548649    60.545733   0.13606532 
   88600   -941.57516    57.029355   -884.54581    2042.5847    1901.5704    2.1636111    57.192005   0.14285475 
   88700   -943.15889    53.740062   -889.41883    1924.7741     5199.384    2.1782505    58.153928   0.14930282 
   88800   -944.07452    49.003994   -895.07053    1755.1454   -8472.9933    2.1467058    63.179726   0.14055783 
   88900   -939.01479    46.771276   -892.24352    1675.1775    870.27022    2.1623036    60.153013     0.139498 
   89000    -938.0565    55.447831   -882.60867    1985.9402    5157.9327    2.1686812       61.143   0.15879464 
   89100   -944.60232    52.005087   -892.59724    1862.6336    -122.1866    2.1683171    60.806804   0.14695755 
   89200   -945.02794    49.936642    -895.0913    1788.5494   -8634.5332    2.1500367    60.476078   0.14667535 
   89300   -939.13064    49.982163   -889.14847    1790.1798    5124.7029    2.1683904    68.324053   0.15303602 
   89400   -940.27659    55.070226   -885.20636    1972.4158    2529.4672    2.1624908    65.467704   0.14521245 
   89500   -944.66098    49.510739   -895.15024    1773.2951   -3558.2421    2.1595993    64.002672    0.1372629 
   89600   -945.37885    51.429715   -893.94913    1842.0259   -2752.9469    2.1641229     62.55574   0.13916868 
   89700   -941.56269    51.944446   -889.61825    1860.4617      3501.61    2.1686266    58.590782   0.14409874 
   89800   -932.30754    50.082406   -882.22513    1793.7702   -2350.0167    2.1406351    65.246946   0.16818271 
   89900   -943.43772    49.420655   -894.01707    1770.0686     1122.788    2.1705646    64.758159   0.14409673 
   90000    -942.8678    49.274462   -893.59334    1764.8325    4664.2002    2.1802586    61.586884   0.13863447 
   90100   -940.13078     46.53248    -893.5983    1666.6247   -2065.4106    2.1527461    59.374986   0.13894785 
   90200   -933.48655    49.709591   -883.77696    1780.4173   -324.05039    2.1421802    57.875805   0.15107962 
   90300   -940.28241    50.048892   -890.23352    1792.5698    7694.5765    2.1807695    61.594617   0.15110327 
   90400   -941.63065    47.583604   -894.04704    1704.2721   -3762.4125    2.1548494    62.469995   0.14125178 
   90500   -943.42329    49.765539   -893.65775    1782.4211   -5313.3479     2.154903    64.389697   0.14410194 
   90600    -941.1352    53.182667   -887.95253    1904.8103     8151.677    2.1799513    63.297166   0.12663338 
   90700   -938.00675    52.306484   -885.70026    1873.4286   -2451.6475    2.1462799    58.287065   0.14385807 
   90800   -941.61352    47.201144   -894.41238    1690.5738   -7088.3678      2.14998    56.288493    0.1355357 
   90900   -939.71909    46.959167   -892.75992    1681.9071     9743.068    2.1853081    61.654382   0.14801547 
   91000   -943.96049     48.93637   -895.02412    1752.7233   -275.28512    2.1712184    63.330878   0.13220199 
   91100   -947.67365    42.857642   -904.81601    1535.0053   -7782.0005    2.1626855    59.977602    0.1317306 
   91200   -945.39829    48.081615   -897.31668    1722.1091   -2643.0162    2.1705507      60.2861   0.12892164 
   91300   -941.61551    49.089599   -892.52591    1758.2114    8104.4405    2.1820628    62.042336   0.12587563 
   91400   -942.02526     48.65952   -893.36574    1742.8075   -4155.2986    2.1511179    61.720628   0.12332479 
   91500   -945.09716     42.25017   -902.84699    1513.2479   -4538.8182    2.1599313    61.657339   0.11153162 
   91600   -946.76133     49.37102   -897.39031    1768.2909    3472.2894    2.1821539    59.252163   0.11571779 
   91700   -945.25288    53.224743   -892.02813    1906.3173    5713.4536    2.1775415    62.549276   0.13091926 
   91800   -939.91552    47.997817   -891.91771    1719.1077   -11284.128    2.1277765    68.833452   0.15015343 
   91900   -940.38372    51.401528   -888.98219    1841.0163   -5276.1716    2.1499882    60.485622   0.16315815 
   92000   -934.82426     54.33577   -880.48849    1946.1102    11245.321    2.1698471     73.17064   0.16280229 
   92100   -940.43274    52.694105   -887.73863    1887.3117   -8877.8391    2.1345783    74.817328   0.13905659 
   92200   -942.72761    50.436312    -892.2913    1806.4458   -7827.5577    2.1378257    81.847517   0.15553569 
   92300   -942.70956    50.175786   -892.53377    1797.1147    15419.394    2.1963612    67.944786   0.14352028 
   92400   -947.28526    47.595263      -899.69    1704.6897   -410.80053    2.1720198    75.554803   0.15212646 
   92500   -943.85647    41.274384   -902.58208    1478.2988   -13360.547    2.1386796    75.193173   0.16365342 
   92600    -943.6998    50.261756   -893.43805    1800.1938    2233.6655    2.1717372    72.207949   0.16848598 
   92700   -940.07483    48.049372   -892.02546    1720.9542    4981.7212    2.1773482    78.562112   0.16273044 
   92800   -937.99589    44.502462   -893.49342    1593.9168   -3362.0987     2.152507    79.266436   0.16942207 
   92900    -939.6472    49.435485   -890.21172    1770.5998   -702.69025    2.1580769    76.138168   0.17705351 
   93000   -934.75287     51.36596   -883.38691    1839.7424   -431.99189    2.1426378    88.147726   0.16181502 
   93100   -942.67359    51.778696   -890.89489    1854.5251    -2413.424    2.1597382    71.063314   0.14781776 
   93200   -939.35099     46.34399     -893.007    1659.8737    2129.0514    2.1664596     68.25766   0.15950655 
   93300   -937.40913    46.723995   -890.68513    1673.4841    1089.9859    2.1589163    67.059729   0.15856807 
   93400   -935.50408    52.213323   -883.29076    1870.0919   -4822.5315    2.1384583    71.470613   0.16930797 
   93500   -939.33131    47.103377   -892.22793    1687.0721    5708.7905    2.1725369    69.267111   0.15581258 
   93600   -942.29337    49.421183   -892.87219    1770.0876    740.36366    2.1645197    63.860027   0.15655908 
   93700   -936.24185    50.806796   -885.43505    1819.7152   -1770.0244    2.1459342    63.055529   0.16678742 
   93800   -939.61919    51.332614   -888.28658    1838.5481   -3597.6139    2.1517504    46.703615   0.15408214 
   93900   -941.75137    49.360278   -892.39109    1767.9062    1613.8584    2.1641335       50.507    0.1330033 
   94000   -941.32995    50.645745   -890.68421    1813.9469    5989.0438    2.1756436     48.63882   0.15041174 
   94100   -939.82421    41.870745   -897.95347    1499.6582   -4871.8744    2.1507055    47.386826   0.16442263 
   94200   -942.02821    44.691374   -897.33684    1600.6829   -5512.9874    2.1527456    51.109338   0.14530993 
   94300   -944.45564     54.93399   -889.52165    1967.5363    13805.071    2.2007605    38.891853   0.15513774 
   94400   -940.39688    48.274202   -892.12267    1729.0069   -4992.2727    2.1498191    45.147277   0.14727585 
   94500   -944.52338    48.155216   -896.36817    1724.7452   -14313.028    2.1348759    41.374289   0.16036295 
   94600   -947.22003    48.228445   -898.99158     1727.368    9036.9226    2.1963559    44.665447   0.14428471 
   94700    -939.9765    50.555419   -889.42108    1810.7118    4597.2451    2.1660056     46.41617   0.16126049 
   94800   -940.68408     47.66957   -893.01451    1707.3511   -7457.1669    2.1404879    45.282183   0.16205876 
   94900   -946.75778     51.59288    -895.1649    1847.8698    1110.0812    2.1742018    48.224109   0.14501824 
   95000   -950.70775    47.332505   -903.37524    1695.2787     3915.831     2.193664    47.668783   0.14157681 
   95100   -942.50315     46.08164   -896.42151    1650.4772   -6387.3867    2.1501665    49.152804   0.14746782 
   95200   -939.47604    46.250838    -893.2252    1656.5373    3009.7826    2.1594217    45.581098   0.15466484 
   95300   -940.28583    49.041945   -891.24389    1756.5046    5833.5307    2.1764998    46.143027   0.13613404 
   95400   -942.94804    46.111609   -896.83643    1651.5506   -4687.7152    2.1570477    43.485008   0.16419129 
   95500   -947.68714    47.484692   -900.20245    1700.7295   -3378.3982    2.1661601    47.328854    0.1509651 
   95600   -941.12485    49.665716   -891.45913    1778.8458    6803.7103    2.1764187    41.249806   0.16271058 
   95700   -942.77151     51.15456   -891.61695    1832.1708    -2245.711    2.1598345     63.27453   0.16336508 
   95800   -945.07814    47.480888   -897.59725    1700.5932   -8056.1927     2.148985     61.25061   0.13124546 
   95900   -947.78601    49.039376   -898.74663    1756.4126    8059.4406    2.1968281    64.663442   0.11448786 
   96000   -941.29781    51.452482   -889.84533    1842.8413    3590.5536    2.1709539     67.22862    0.1324176 
   96100   -940.72477    46.502118   -894.22266    1665.5372   -18548.961    2.1176544    65.861213   0.13027061 
   96200   -942.79177    48.921977    -893.8698    1752.2078    5079.9434    2.1738841     63.41665   0.12788971 
   96300   -942.75547     53.45095   -889.30452    1914.4192    21134.087    2.2131224    62.386618   0.14085363 
   96400   -940.07098     53.49758    -886.5734    1916.0893   -15958.371    2.1160165    59.694849   0.16377513 
   96500   -944.22878    48.846878    -895.3819     1749.518   -6649.5694    2.1506043      57.2177   0.14923294 
   96600   -940.37187    47.449125   -892.92275    1699.4556    11027.002     2.190033    60.842345   0.15058396 
   96700   -942.61407    55.731161   -886.88291    1996.0881   -2896.8832    2.1570363    58.720327   0.13872546 
   96800   -940.69413    50.523437   -890.17069    1809.5663   -10389.367    2.1341758    60.625209   0.14876093 
   96900   -944.32431    49.038867   -895.28544    1756.3944    2483.0405    2.1803952     62.70192   0.13440241 
   97000   -941.66801    50.532725   -891.13529    1809.8989    8383.6463    2.1848299    61.202224   0.13988146 
   97100   -937.29594    47.374808   -889.92114    1696.7938    -7269.531    2.1349556    57.322168   0.14250078 
   97200   -945.86589    45.572764   -900.29313    1632.2511   -589.07231    2.1781505    61.369665   0.13081855 
   97300   -943.39586    49.874856     -893.521    1786.3365    7365.0116    2.1858326    62.235592    0.1410832 
   97400   -942.34913    50.601202   -891.74792    1812.3516   -3104.5946    2.1517138    56.579203   0.14019398 
   97500   -944.07994    46.817923   -897.26202    1676.8482   -5805.0346    2.1538612    61.302081   0.14006885 
   97600   -947.05958    48.476416   -898.58316    1736.2494     8516.931    2.1959781    65.446424   0.12727017 
   97700   -943.46859    52.557868   -890.91072    1882.4322    1726.4313    2.1686602    62.972377    0.1259973 
   97800   -943.32051    48.940313    -894.3802    1752.8645   -11846.343    2.1399097    64.702788   0.12788256 
   97900   -951.00907     51.60846   -899.40061    1848.4279   -634.28646    2.1831044    63.670659   0.11471203 
   98000   -941.29952    51.981148   -889.31838    1861.7762    7970.9228    2.1822187     61.46796   0.13392921 
   98100   -937.61899    46.293041   -891.32595    1658.0489   -2974.1168    2.1552024    66.444647   0.15109235 
   98200   -939.78323    43.455163   -896.32807    1556.4063   -4432.3976    2.1588475    61.952978   0.14123085 
   98300   -946.66559    52.024945   -894.64065    1863.3449    3734.8093    2.1873809    65.156579   0.13645498 
   98400   -941.83632    54.892378   -886.94394    1966.0459   -1761.5902    2.1593507    62.840166   0.12886044 
   98500   -944.50966    49.486985   -895.02268    1772.4443   -8103.0791    2.1546818    66.451269   0.14152789 
   98600   -940.37333    46.491287   -893.88205    1665.1493     3228.007    2.1749529    61.301291   0.14783032 
   98700    -937.7461     53.27416   -884.47194    1908.0872    3229.6694    2.1610003    59.944001   0.14955772 
   98800   -945.35256    51.773972   -893.57859    1854.3559   -1223.1502    2.1656009    65.843153   0.11278048 
   98900   -940.74874    45.790621   -894.95812     1640.054       835.17    2.1670624    63.772312    0.1217568 
   99000   -940.81163    52.453218   -888.35841     1878.684   -240.88828    2.1628739    62.480213   0.13575233 
   99100    -941.5613    52.402872   -889.15842    1876.8808   -1761.8205    2.1573539    63.720811   0.14471691 
   99200   -943.66356    47.427419   -896.23614    1698.6781    776.75503    2.1711777    60.909265   0.14277324 
   99300   -945.51843    53.281152   -892.23728    1908.3376    685.68612    2.1725105     62.26781   0.13492555 
   99400   -939.57413    50.665524   -888.90861    1814.6553    582.76441    2.1559473    61.370083   0.12504515 
   99500   -946.26531    46.656525   -899.60879    1671.0675    -2398.723    2.1722902    63.739407   0.13001781 
   99600   -946.80426     50.47456    -896.3297    1807.8157   -3470.1278    2.1648073    56.733439   0.11773382 
   99700   -940.82039    49.602352   -891.21803    1776.5764    5092.3503    2.1695078    60.648437   0.13739878 
   99800   -946.52612    52.046363   -894.47976     1864.112   -4881.7095    2.1644788    61.391251   0.14934664 
   99900   -943.83729    42.725499   -901.11179    1530.2724    919.50032    2.1732043    61.715166   0.14368256 
  100000   -942.88269    50.213263   -892.66942     1798.457     811.2704    2.1696294    61.926438   0.15627523 
  100100   -942.52994     49.94265   -892.58729    1788.7646    574.55491    2.1647825    60.800458   0.14437413 
  100200   -945.23169     44.33372   -900.89797    1587.8731   -3031.2675    2.1680336    58.402756   0.15339019 
  100300   -938.16302    42.561332   -895.60169    1524.3926    4076.3664    2.1732106    60.312202   0.15149478 
  100400   -943.18972    52.037482   -891.15224    1863.7939    4084.0271    2.1774371    60.194572   0.15356167 
  100500   -943.95024    47.666444    -896.2838    1707.2392   -5634.0691    2.1543046    62.767741   0.12922614 
  100600   -947.80156    48.672462    -899.1291    1743.2711    -9733.673    2.1584793     57.89234   0.13091356 
  100700   -938.21781    49.801533   -888.41628    1783.7103    6939.1222    2.1757084    61.940133   0.14641049 
  100800   -942.46115    50.921915   -891.53923    1823.8383     4216.459     2.176106    64.293938   0.13513933 
  100900   -943.18703    46.865013   -896.32201    1678.5348   -9265.1502    2.1432027    65.465929   0.15061751 
  101000   -935.85776    46.262984   -889.59478    1656.9723     3933.995    2.1647165    60.462933   0.15502012 
  101100   -940.03407    53.268842   -886.76522    1907.8968    8071.7281    2.1808529    62.227292   0.14139723 
  101200   -943.41773     48.44339   -894.97434    1735.0666   -5131.7301    2.1511407    57.210695    0.1267913 
  101300   -944.05703    50.302472   -893.75456    1801.6521   -5029.0177    2.1556414    67.439734   0.13563672 
  101400   -943.69625    57.511987   -886.18427    2059.8708    6130.1027    2.1803362    64.223544   0.14881544 
  101500   -936.66783    46.073949   -890.59388    1650.2018   -569.25632    2.1541894    63.599969   0.14216965 
  101600   -937.91541    41.971043   -895.94437    1503.2506    -3082.278    2.1504417    67.905824   0.13426934 
  101700    -940.4842    49.512069   -890.97213    1773.3428    8376.3651    2.1821374    64.896966   0.12461403 
  101800   -941.17948     48.29153   -892.88795    1729.6275     1301.246    2.1668686    56.818824     0.133855 
  101900   -945.60747    45.070288   -900.53718    1614.2543    504.13525    2.1743318    60.753922   0.13472789 
  102000   -943.47584    50.314601   -893.16124    1802.0865   -1501.4591    2.1663577    62.024583   0.14118598 
  102100   -942.90866    51.669046   -891.23961    1850.5978   -770.49732    2.1676007    60.501894   0.14598368 
  102200   -945.89971    45.559157   -900.34055    1631.7638   -211.92492    2.1756495    67.231707   0.14140203 
  102300   -944.82543    49.306024   -895.51941     1765.963    -2084.052    2.1656159    58.304768   0.14369628 
  102400   -940.70051    49.792184   -890.90832    1783.3755    4700.4463    2.1744279    61.394879   0.16145478 
  102500   -945.85649    49.322557   -896.53393    1766.5551   -3728.7175    2.1654027    64.692667   0.12560345 
  102600   -945.46413    45.489217   -899.97491    1629.2588   -2904.2233    2.1684694    64.617186   0.13235524 
  102700   -942.45953    52.697302   -889.76223    1887.4263     -1162.73    2.1620106    61.516301   0.13425431 
  102800   -940.97988    48.129784    -892.8501    1723.8343    5248.0974    2.1758038    65.851037   0.13573834 
  102900   -945.28556    47.911279   -897.37428    1716.0083    -4525.826    2.1623113    59.203305   0.13850731 
  103000   -937.70245    49.719747    -887.9827     1780.781   -1700.9756    2.1485261    62.066475   0.15157019 
  103100   -939.35955     50.03166   -889.32789    1791.9526    10628.312    2.1860509    63.106999   0.14354439 
  103200   -941.67485    47.163581   -894.51127    1689.2284   -5921.1476    2.1531212    67.078864   0.15187145 
Loop time of 70.5018 on 1 procs for 100000 steps with 217 atoms

Performance: 367.650 ns/day, 0.065 hours/ns, 1418.404 timesteps/s
100.0% CPU use with 1 MPI tasks x no OpenMP threads

MPI task timing breakdown:
Section |  min time  |  avg time  |  max time  |%varavg| %total
---------------------------------------------------------------
Pair    | 67.465     | 67.465     | 67.465     |   0.0 | 95.69
Neigh   | 1.4443     | 1.4443     | 1.4443     |   0.0 |  2.05
Comm    | 0.46491    | 0.46491    | 0.46491    |   0.0 |  0.66
Output  | 0.033509   | 0.033509   | 0.033509   |   0.0 |  0.05
Modify  | 0.93836    | 0.93836    | 0.93836    |   0.0 |  1.33
Other   |            | 0.1557     |            |       |  0.22

Nlocal:    217 ave 217 max 217 min
Histogram: 1 0 0 0 0 0 0 0 0 0
Nghost:    953 ave 953 max 953 min
Histogram: 1 0 0 0 0 0 0 0 0 0
Neighs:    4124 ave 4124 max 4124 min
Histogram: 1 0 0 0 0 0 0 0 0 0
FullNghs:  8248 ave 8248 max 8248 min
Histogram: 1 0 0 0 0 0 0 0 0 0

Total # of neighbors = 8248
Ave neighs/atom = 38.0092
Neighbor list builds = 2448
Dangerous builds = 21
Total wall time: 0:01:12
