LAMMPS (3 Mar 2020)
Reading data file ...
  orthogonal box = (0 0 0) to (17.469 17.469 17.469)
  1 by 1 by 1 MPI processor grid
  reading atoms ...
  217 atoms
  read_data CPU = 0.00110714 secs
Reading potential file library.meam with DATE: 2012-06-29
Reading potential file LiSi.meam with DATE: 2020-11-07
1 atoms in group Li
216 atoms in group Si
Neighbor list info ...
  update every 1 steps, delay 10 steps, check yes
  max neighbors/atom: 2000, page size: 100000
  master list distance cutoff = 6
  ghost atom cutoff = 6
  binsize = 3, bins = 6 6 6
  2 neighbor lists, perpetual/occasional/extra = 2 0 0
  (1) pair meam/c, perpetual
      attributes: full, newton on
      pair build: full/bin/atomonly
      stencil: full/bin/3d
      bin: standard
  (2) pair meam/c, perpetual, half/full from (1)
      attributes: half, newton on
      pair build: halffull/newton
      stencil: none
      bin: none
Setting up Verlet run ...
  Unit style    : metal
  Current step  : 0
  Time step     : 0.003
Per MPI rank memory allocation (min/avg/max) = 8.895 | 8.895 | 8.895 Mbytes
Step Temp E_pair E_mol TotEng Press Volume 
       0         1600   -951.04357            0   -906.37126   -115280.58    5330.9442 
    3200    1484.4624   -942.19606            0   -900.74958    4688.6567    4632.3265 
Loop time of 2.29602 on 1 procs for 3200 steps with 217 atoms

Performance: 361.252 ns/day, 0.066 hours/ns, 1393.719 timesteps/s
100.0% CPU use with 1 MPI tasks x no OpenMP threads

MPI task timing breakdown:
Section |  min time  |  avg time  |  max time  |%varavg| %total
---------------------------------------------------------------
Pair    | 2.2267     | 2.2267     | 2.2267     |   0.0 | 96.98
Neigh   | 0.02081    | 0.02081    | 0.02081    |   0.0 |  0.91
Comm    | 0.013982   | 0.013982   | 0.013982   |   0.0 |  0.61
Output  | 2.4948e-05 | 2.4948e-05 | 2.4948e-05 |   0.0 |  0.00
Modify  | 0.029461   | 0.029461   | 0.029461   |   0.0 |  1.28
Other   |            | 0.00501    |            |       |  0.22

Nlocal:    217 ave 217 max 217 min
Histogram: 1 0 0 0 0 0 0 0 0 0
Nghost:    957 ave 957 max 957 min
Histogram: 1 0 0 0 0 0 0 0 0 0
Neighs:    4283 ave 4283 max 4283 min
Histogram: 1 0 0 0 0 0 0 0 0 0
FullNghs:  8566 ave 8566 max 8566 min
Histogram: 1 0 0 0 0 0 0 0 0 0

Total # of neighbors = 8566
Ave neighs/atom = 39.4747
Neighbor list builds = 35
Dangerous builds = 0
Setting up Verlet run ...
  Unit style    : metal
  Current step  : 3200
  Time step     : 0.003
Per MPI rank memory allocation (min/avg/max) = 9.665 | 9.665 | 9.665 Mbytes
Step PotEng KinEng TotEng Temp Press Density c_msdli[4] c_msdsi[4] 
    3200   -942.19606    41.446475   -900.74958    1484.4624    4688.6567    2.1771583            0 3.1745745e-32 
    3300    -951.5829    44.515907   -907.06699    1594.3984    14416.684    2.2194897   0.19190332  0.091676277 
    3400   -948.20047    46.620894   -901.57957    1669.7914   -1879.9789     2.171286   0.02135654   0.10087637 
    3500   -943.94287    43.475603   -900.46727    1557.1384   -10361.796     2.145136  0.056709166   0.11171659 
    3600   -950.54287    45.755945   -904.78693     1638.812   -131.02726    2.1833409   0.14966399    0.1160489 
    3700   -950.70523    45.595113   -905.11011    1633.0516    9908.3698    2.2108289  0.082146764  0.081586728 
    3800   -944.14992    47.420166   -896.72976    1698.4184   -6633.2015    2.1521509   0.22866594  0.095410342 
    3900   -946.85991    42.518789   -904.34112    1522.8688   -6841.3567    2.1592371   0.55192133   0.11722491 
    4000   -946.74029    42.930244   -903.81005    1537.6056    6243.3133    2.1920053    0.3126554   0.11284302 
    4100   -944.29893    48.353515   -895.94542    1731.8476    7242.2663    2.1855682  0.094061847  0.093487751 
    4200   -947.66969    45.253886   -902.41581    1620.8301   -5128.0423    2.1645568   0.05188592   0.11270068 
    4300   -947.15378    41.514285   -905.63949    1486.8911   -8409.1524     2.161712   0.11776875  0.087150264 
    4400   -942.55613    43.747453   -898.80867    1566.8751    7636.4611    2.1883179   0.15478698   0.12343549 
    4500   -946.42845    43.930161   -902.49829    1573.4191    7313.1312    2.1965742   0.23329535   0.12780189 
    4600    -949.8631     42.71771   -907.14539    1529.9934   -4666.2864    2.1710214   0.53808547  0.094237353 
    4700   -943.66009    41.804484    -901.8556     1497.285   -2262.3278    2.1635628   0.32059569   0.11517967 
    4800   -942.10988    43.015315   -899.09456    1540.6526    8275.4763     2.192793   0.25819841     0.112377 
    4900    -950.9421    42.605826   -908.33627    1525.9862    5854.6956    2.2055052    0.1321162   0.11153496 
    5000   -946.91472    44.133888   -902.78084    1580.7158   -9029.4871    2.1577871   0.14973748   0.11819534 
    5100   -943.33241    42.458807    -900.8736    1520.7205   -2587.3149    2.1622954     0.393913   0.11909914 
    5200   -949.54656    42.285787   -907.26078    1514.5236    9442.4072    2.2070373  0.064616512  0.095159471 
    5300   -948.07556    42.897191   -905.17837    1536.4218    3920.8347    2.1941957  0.051977531  0.096139594 
    5400   -947.22646    46.819526   -900.40694    1676.9056   -9343.9118    2.1501737   0.18987385   0.11035792 
    5500   -947.89751    42.528722   -905.36879    1523.2246   -5609.2437    2.1673769   0.18727766   0.11907511 
    5600   -949.40822    44.121801   -905.28642    1580.2829    10576.425     2.206889  0.024703832   0.10823115 
    5700   -944.79342    47.808551   -896.98487    1712.3289     1700.543    2.1718493   0.55860744   0.10673309 
    5800   -946.88124    42.814182   -904.06706    1533.4487    -9514.091    2.1545919  0.042435089   0.10996705 
    5900   -947.89845    43.478741   -904.41971    1557.2508   -2023.1273    2.1760554   0.15989456  0.098640139 
    6000   -942.13326    46.895039   -895.23822    1679.6102    8760.2328    2.1903502   0.50253244   0.12131165 
    6100   -944.29913      42.1588   -902.14033    1509.9753    4159.4998    2.1849159   0.17743484   0.11363749 
    6200   -950.56734    44.964681   -905.60266    1610.4718   -10946.501    2.1580844    0.2562306   0.10457903 
    6300   -946.18093    47.836843   -898.34409    1713.3422   -2333.1854    2.1697888   0.16295634   0.12130516 
    6400    -945.9275     44.76626   -901.16124    1603.3651    10091.918    2.2025718    0.1361428   0.11415554 
    6500    -946.5283    40.521322   -906.00698    1451.3268    2128.6332    2.1878321   0.27796977   0.12127722 
    6600   -948.15986    46.492414   -901.66745    1665.1897   -9777.6516    2.1565113  0.088410964   0.12478076 
    6700   -947.15916    48.132078   -899.02708    1723.9165   -3661.2857    2.1704406   0.34282563   0.11888598 
    6800   -950.81418    42.958505   -907.85567    1538.6179    9730.4515     2.213826   0.24360737   0.12477506 
    6900   -945.61405    43.810653   -901.80339    1569.1387    1603.5181    2.1762592  0.074883971   0.11626773 
    7000   -945.38251     44.10955   -901.27296    1579.8441   -7448.5305    2.1574461  0.063013931   0.10969968 
    7100   -951.13693     42.63344   -908.50349    1526.9752    705.28345    2.1914729   0.23323154   0.11817092 
    7200   -947.32786    44.262001   -903.06586    1585.3044    5125.9264    2.1953331    0.2929864   0.12717235 
    7300   -945.40408    44.994053   -900.41003    1611.5238    397.14978    2.1759496    0.1598532   0.11979005 
    7400   -950.73397    44.106118   -906.62785    1579.7212   -5209.3723    2.1719597   0.24481049   0.11878916 
    7500   -946.50219    42.598205   -903.90398    1525.7132    2439.0415    2.1847876  0.066389916   0.11458851 
    7600    -946.6713    48.240138   -898.43116    1727.7868    1176.2576     2.178086   0.15329028   0.11004314 
    7700   -951.50105    45.983949    -905.5171    1646.9783   -3534.7613     2.180003    0.1149822   0.10952419 
    7800   -945.27505    42.281493   -902.99355    1514.3697    1949.6655     2.177592   0.12124321   0.11381866 
    7900   -941.90675    44.845286   -897.06146    1606.1955     1286.259    2.1689491   0.26890266   0.11501331 
    8000   -947.39141    42.118035   -905.27338    1508.5153    2373.4184    2.1833537   0.11406537   0.11028095 
    8100   -949.43985    46.376959   -903.06289    1661.0545   -136.01542     2.178995  0.041008406   0.11214713 
    8200   -943.41606    46.639383   -896.77668    1670.4535   -41.578986    2.1644613   0.25756785   0.11894388 
    8300   -949.05525    43.017998   -906.03725    1540.7487    2774.8376    2.1885982   0.19939713    0.1069107 
    8400   -946.41255    42.785333   -903.62722    1532.4155    1022.5443     2.179479   0.21819539   0.11820808 
    8500   -946.63801    47.949773   -898.68823     1717.387    -3426.402    2.1630887   0.44383924   0.11944592 
    8600   -951.37206    43.732066   -907.63999     1566.324    -489.0781    2.1859309 0.0013603516   0.11342823 
    8700   -948.97531    44.176719   -904.79859    1582.2498    1513.1266    2.1839057  0.093546898    0.1214971 
    8800   -945.60487    45.762195   -899.84267    1639.0359     176.5585    2.1753837    0.1175519   0.12769623 
    8900   -952.74145      46.6688   -906.07265    1671.5072   -5617.8709    2.1750687   0.15775424    0.1258762 
    9000   -951.05891    43.935018    -907.1239     1573.593   -2083.6102    2.1801402   0.15384087   0.12265714 
    9100   -944.03308    43.946724   -900.08636    1574.0123    4561.5575    2.1888096   0.39016885   0.14603024 
    9200   -947.96367    43.801607   -904.16207    1568.8147    561.04903    2.1819698   0.31936217   0.12232615 
    9300   -951.73976     41.81918   -909.92058    1497.8114    -6423.025     2.173925    0.2309734   0.11155898 
    9400   -945.84403      45.0308   -900.81323      1612.84   -4432.4425    2.1692889  0.085930255   0.13920399 
    9500   -946.60209    44.904884    -901.6972    1608.3301     9815.646    2.2004176  0.078907704    0.1335835 
    9600    -948.5596    42.028766   -906.53084     1505.318    3934.9524    2.1884898   0.26433214   0.12456884 
    9700   -945.09401     47.85809   -897.23592    1714.1032   -10072.801    2.1430705  0.021714282   0.12822113 
    9800   -946.38848    45.624378    -900.7641    1634.0997    978.82072    2.1788162  0.055926591   0.12595059 
    9900   -946.27937    42.324055   -903.95531    1515.8941    10524.492    2.2029933   0.05853603   0.12784615 
   10000   -949.67696     48.15067   -901.52629    1724.5824    -2109.451    2.1745492   0.26603102   0.13073554 
   10100   -946.23911    49.285369   -896.95374    1765.2232   -13628.752    2.1405396   0.20742343   0.13423544 
   10200   -947.37053    41.600124    -905.7704    1489.9656    4170.4931    2.1915807   0.35021762   0.12219772 
   10300    -943.9165    42.068825   -901.84768    1506.7527    13385.262    2.2066747   0.20432996   0.11752405 
   10400   -946.65666    47.313143   -899.34351    1694.5852   -5726.9581    2.1603937  0.083812775      0.12985 
   10500   -948.83572     40.26863   -908.56709    1442.2763   -6955.6284    2.1668052   0.10545178   0.13005426 
   10600   -949.44214    44.541351   -904.90079    1595.3097    2564.9267    2.1867902   0.10654169   0.11606334 
   10700   -948.08714    48.180182   -899.90696    1725.6394    4149.8913    2.1868864  0.079589746   0.11870354 
   10800   -950.32451    44.819843   -905.50467    1605.2842    -3535.418    2.1767207  0.076430662   0.11115449 
   10900   -950.54266     43.00296    -907.5397    1540.2101    -4623.067    2.1774842   0.20825749   0.11720843 
   11000   -941.97271    41.637444   -900.33527    1491.3022     2122.574    2.1760247   0.40635412   0.14194586 
   11100   -951.57055    47.228473   -904.34208    1691.5526   -897.50394    2.1855852  0.091353276   0.10088679 
   11200   -951.59687     42.63427    -908.9626    1527.0049   -422.54563    2.1869199   0.23164609   0.10533711 
   11300   -944.50504    44.594279   -899.91076    1597.2053   -2546.4444    2.1645961   0.09380027   0.11772764 
   11400   -947.59856    44.411903   -903.18665    1590.6733    1380.3683    2.1812115  0.073443844    0.1178471 
   11500   -950.80042    43.537789   -907.26263    1559.3657    3723.2397    2.1992786  0.017425236   0.12490093 
   11600   -947.92423     50.39768   -897.52655    1805.0621   -5380.4461    2.1628506   0.18588447   0.12624321 
   11700   -945.40047    43.318269    -902.0822    1551.5033   -2241.2404    2.1675607   0.21271763   0.11376516 
   11800   -949.81475    44.345998   -905.46876    1588.3128    2684.0004    2.1914833  0.073457544    0.1244207 
   11900   -946.71224    48.817471   -897.89477    1748.4648    3925.9622    2.1869956   0.33792554   0.12192851 
   12000    -946.1096    46.166557   -899.94304    1653.5187   -3675.5426    2.1660217   0.39958869   0.11603343 
   12100   -949.85303     43.99417   -905.85886    1575.7116   -10131.109    2.1589964  0.044652756   0.13609305 
   12200   -949.07255    48.945244    -900.1273    1753.0411    6526.6831    2.1979417   0.19931347   0.10166093 
   12300   -948.45102    50.261476   -898.18954    1800.1838    8460.4834     2.199588   0.14873469    0.1212595 
   12400   -949.34622    42.261316    -907.0849    1513.6471   -7909.7431    2.1702289   0.16166599   0.13495649 
   12500    -945.9607    42.312618   -903.64808    1515.4845   -5896.8439     2.159793   0.18385174   0.12194228 
   12600   -948.40975    49.262608   -899.14714     1764.408    5301.7802    2.1895839   0.26988314   0.12840775 
   12700    -951.3425    43.786919   -907.55558    1568.2887    6214.2643    2.2058398   0.27941718   0.12725163 
   12800   -946.21936    41.313143   -904.90622     1479.687   -7393.3903    2.1647652   0.25528532   0.12927659 
   12900    -943.3468    42.810901   -900.53589    1533.3312   -4802.8783    2.1617645    0.3062849   0.14300306 
   13000   -947.19765    41.953926   -905.24373    1502.6375    6335.6298    2.1970607   0.27645771   0.13569571 
   13100    -950.7908     42.96915   -907.82165    1538.9991    4976.3121    2.1999725   0.10046961   0.11584237 
   13200   -945.56791    46.024155   -899.54375    1648.4183     -5590.43    2.1594361   0.19040432   0.13659384 
   13300   -946.72698     42.74037   -903.98661    1530.8051   -1161.1423    2.1762988   0.12193011   0.12053442 
   13400   -950.12747    43.555301   -906.57217    1559.9929    3719.7012    2.1983958   0.61880857   0.13018359 
   13500   -942.06812    44.721907   -897.34621    1601.7765    1086.0191    2.1731793    0.5007271   0.14403251 
   13600   -946.49465     42.95852   -903.53613    1538.6184   -2836.9466    2.1767488   0.29040158   0.12389975 
   13700   -948.61368    43.233185   -905.38049    1548.4559    1012.4209    2.1852782   0.25441749   0.12823299 
   13800   -944.84902    48.343425   -896.50559    1731.4862   -550.59033    2.1718498   0.78244633   0.12094445 
   13900   -948.45485    45.240901   -903.21394     1620.365    731.31157    2.1836034   0.15051761   0.12857385 
   14000   -947.06833    41.696492   -905.37184    1493.4171   -428.58428    2.1757974   0.30325361   0.12621467 
   14100   -946.79594    48.838487   -897.95746    1749.2175   -4162.4402    2.1635779   0.21170455   0.13305777 
   14200   -951.60538    47.813498   -903.79188    1712.5061    2524.6491    2.1887622   0.22046113    0.1182478 
   14300   -951.61465    46.011444    -905.6032    1647.9631   -358.99286    2.1834827   0.16679888   0.11625863 
   14400   -945.28619    44.946895    -900.3393    1609.8348   -6381.6446    2.1570367   0.24017679   0.12923952 
   14500   -944.46065    44.206091   -900.25456    1583.3019    79.445514    2.1713305   0.39873222   0.13272113 
   14600    -951.0117    44.187682   -906.82402    1582.6425    11983.628    2.2157547   0.23544972    0.1053672 
   14700   -945.57978    44.899729   -900.68005    1608.1455    838.62968    2.1755283   0.25082301   0.12024974 
   14800   -946.54788     44.75809   -901.78979    1603.0725   -13162.815    2.1474056   0.25613034   0.12469937 
   14900   -950.89908    42.166469   -908.73261      1510.25    1611.6201    2.1903997   0.17216636   0.10387354 
   15000   -945.02447    44.058916   -900.96556    1578.0306    11246.204    2.2056666    5.6060795   0.13396428 
   15100   -946.98428    45.760496   -901.22378     1638.975   -591.59121    2.1763517    6.1520172   0.11621249 
   15200   -949.41799    41.645145   -907.77284    1491.5781   -10019.157    2.1604355    6.8550884   0.11883837 
   15300   -947.59393    45.425231    -902.1687     1626.967    1129.1411    2.1817606     7.909265   0.12791699 
   15400   -947.94783     49.18799   -898.75984    1761.7354    8205.0462    2.1980549     8.250278   0.12096584 
   15500   -950.04272    44.088816    -905.9539    1579.1015   -2326.1664     2.180172    6.3960609   0.12877675 
   15600   -948.43879    46.641991    -901.7968     1670.547   -6223.7654    2.1636442    6.5631003   0.11432475 
   15700   -944.33997    46.883496   -897.45647    1679.1968    487.29111    2.1727495    6.7407062    0.1157147 
   15800    -948.3732    43.324471   -905.04873    1551.7254    6683.2487    2.1967017    4.7092017   0.12345675 
   15900   -946.14226    43.789154   -902.35311    1568.3687    476.63009    2.1824696    6.6997241   0.12465846 
   16000   -941.33988    43.609039   -897.73084    1561.9176   -3853.2142    2.1612437    7.3445566   0.13552241 
   16100   -949.74009    43.096266   -906.64383     1543.552    1799.4095    2.1911148    6.2887646    0.1249499 
   16200   -948.53459    46.056284   -902.47831    1649.5691    2881.1712    2.1898067     6.027871   0.11483509 
   16300    -943.5849    44.884692    -898.7002    1607.6069    264.34222    2.1749857    6.4443477   0.13131602 
   16400   -948.14785    40.073358   -908.07449    1435.2824    746.45502    2.1865811    6.1255026   0.13222933 
   16500   -947.64672     44.00063   -903.64609     1575.943   -701.79549    2.1836835    6.8654919   0.12803337 
   16600   -944.59312    45.129947   -899.46317     1616.391    1257.0544    2.1789528    6.6106447   0.13361899 
   16700   -949.89109    42.093913   -907.79717    1507.6513    -77.52855     2.189701    5.7877339   0.12223186 
   16800   -948.19423    43.602979   -904.59125    1561.7006   -1165.8975    2.1801979    5.9537027   0.13524178 
   16900   -945.19909    45.228591    -899.9705    1619.9241    24.852127    2.1745105      5.08434   0.14778531 
   17000   -945.37252    38.715033   -906.65749    1386.6321      4281.33    2.1898928    6.2416762   0.12488224 
   17100   -946.47679    41.281903   -905.19489     1478.568    2494.1679    2.1856098    6.9226758    0.1247648 
   17200   -947.20459    47.535509   -899.66908    1702.5495   -1643.0457    2.1727669    6.1429409   0.12684397 
   17300   -949.82685    44.132889   -905.69396      1580.68   -2298.5113    2.1818182    6.4843951   0.11771475 
   17400    -953.8952    49.251961   -904.64324    1764.0266   -2010.9203    2.1888961    5.6550819   0.13358304 
   17500   -945.46358    47.591071   -897.87251    1704.5396   -1906.8309    2.1729084    6.0319954   0.14106203 
   17600   -947.08199     41.93904   -905.14295    1502.1043   -1847.9031    2.1782803    5.3129358   0.13133598 
   17700   -949.48415    45.805516   -903.67864    1640.5875   -1635.4539    2.1806679    5.6401018   0.13933467 
   17800   -948.21882     51.72835   -896.49047    1852.7219    1827.2986    2.1799424    5.0348265   0.12379662 
   17900   -949.70351    45.202799   -904.50071    1619.0003    3466.8182    2.1904833    6.5341243   0.12776667 
   18000   -950.69077    46.246955   -904.44382    1656.3982   -9053.5356    2.1667916    7.3116955   0.12936597 
   18100   -943.67637    46.486513   -897.18985    1664.9783   -5082.0517    2.1621982     6.666306   0.12878906 
   18200   -951.15843    45.517797   -905.64063    1630.2824    7990.4196    2.2070599    7.3572313   0.12397055 
   18300   -950.45272    46.021546   -904.43117    1648.3249   -231.95615    2.1881265    6.4297351   0.12365041 
   18400   -948.77624    49.606964   -899.16927    1776.7416   -11225.738    2.1490144     7.499071    0.1337789 
   18500   -949.54088     43.21226   -906.32862    1547.7064   -1686.7691     2.179587    6.3773988   0.12858856 
   18600   -948.63255    43.030662   -905.60189    1541.2022    8803.6526    2.2058529     6.160874   0.13641508 
   18700   -948.74151    49.037335   -899.70417    1756.3395    658.08833    2.1815502    6.7924005   0.12979063 
   18800   -951.27307    47.164734   -904.10834    1689.2697   -12877.144    2.1539321    7.6994669   0.12209973 
   18900   -952.31293     44.67015   -907.64278    1599.9228   -1243.0321    2.1848373    7.0127338    0.1139565 
   19000   -946.31643    47.497093   -898.81934    1701.1736    7817.2057    2.1952416    7.9842694   0.12852152 
   19100   -952.19779    49.276141   -902.92165    1764.8927   -2915.3775     2.180022    7.4384573   0.12711542 
   19200   -949.51718    41.355116   -908.16207    1481.1903   -7686.3821    2.1632968    6.5213743   0.12633187 
   19300   -947.30802     47.37082    -899.9372     1696.651   -2853.8426    2.1694062    7.0781813   0.14073724 
   19400   -950.61842    50.102246   -900.51618    1794.4807    8718.7555    2.2015155    5.2790884   0.12897738 
   19500   -950.58533    44.102504   -906.48282    1579.5918   -436.61641    2.1847522     7.071809   0.13008526 
   19600   -943.81873    44.487857   -899.33087    1593.3937   -7240.4937    2.1527285    6.7088935   0.13548713 
   19700   -943.71134    44.139778   -899.57156    1580.9268    1624.5263     2.170968    6.6757404   0.13512321 
   19800    -948.1807    42.814409   -905.36629    1533.4569    3690.7496    2.1891508    7.4720372   0.11735522 
   19900   -946.59863    46.357056   -900.24157    1660.3416    265.99443    2.1742838    7.4964072   0.11305549 
   20000   -947.70504    48.319919   -899.38512    1730.6443   -3142.0794    2.1650635    7.2877381   0.11051788 
   20100   -950.26246    43.545169   -906.71729      1559.63    1374.4417    2.1901744    7.5611377   0.12220887 
   20200   -949.05375    48.306074   -900.74767    1730.1484    1763.8504    2.1831972    6.9642548   0.12459627 
   20300   -943.19125    43.082007   -900.10924    1543.0413   -1679.5631    2.1672365    5.5959737    0.1453826 
   20400   -946.61789    38.416811   -908.20108    1375.9509    981.06406     2.182078    7.7112647   0.13102579 
   20500   -946.82576    45.251688   -901.57407    1620.7514    2572.8909    2.1853624     6.521166   0.12230591 
   20600   -944.70079    44.009832   -900.69096    1576.2726    2648.3859    2.1833246    5.7523275   0.13772742 
   20700   -951.54726    42.669021   -908.87824    1528.2496   -2755.6775    2.1808364    7.1956384   0.10771883 
   20800   -945.90194    43.944785   -901.95715    1573.9428   -3516.2731    2.1684787     7.139587   0.11744636 
   20900   -946.39871    46.087338   -900.31137    1650.6813    5853.5146     2.192728    5.8701579   0.12894059 
   21000   -948.03604    40.819704   -907.21633    1462.0137    7768.4459    2.2034929    5.6259217   0.11757686 
   21100   -944.17933    44.374187   -899.80514    1589.3225   -7767.1073    2.1541348    5.2227426   0.13127799 
   21200   -946.36025    45.822584   -900.53767    1641.1988   -3745.8226    2.1679108    6.0614824   0.12349899 
   21300   -951.20612     46.24068   -904.96544    1656.1735    7656.6895    2.2093238    5.7210245   0.12273421 
   21400   -947.71427    45.471395   -902.24287    1628.6205    4470.9845    2.1941201    5.4638364   0.12786237 
   21500   -943.88903    45.674283   -898.21475    1635.8872    -12778.44    2.1409578    7.6681623   0.14059152 
   21600   -946.22209    39.962871   -906.25922    1431.3251   -3248.4256     2.174171    6.9865641   0.11074676 
   21700    -948.4907    46.184869   -902.30583    1654.1745    12246.929    2.2114878    5.7262886   0.12645124 
   21800   -943.07054    45.740009   -897.33053    1638.2412    4435.8903    2.1792886    7.1550542   0.11784274 
   21900   -947.58584    41.845839      -905.74    1498.7662    -8919.177    2.1619227    5.7578363   0.13266331 
   22000   -946.23874    41.597187   -904.64155    1489.8604   -1518.4725    2.1767414    5.4457833   0.13484477 
   22100   -948.44222    49.871618    -898.5706    1786.2205      3870.41    2.1907242    5.2295808   0.11546511 
   22200   -953.30748    47.638929   -905.66855    1706.2537   -1978.0375    2.1869524    4.9977617   0.12152858 
   22300    -948.8357    42.692266   -906.14343    1529.0821   -3953.0309    2.1744677    6.3661021   0.11958067 
   22400   -946.17063    46.351863   -899.81877    1660.1556   -1851.8438    2.1735426    6.0964824   0.12658297 
   22500    -951.3887    46.091111   -905.29759    1650.8164    788.22518    2.1937315    5.8704149   0.12504578 
   22600   -951.00922    43.630141   -907.37908    1562.6734    700.98995    2.1867987      6.36911   0.11430676 
   22700   -944.05494    44.190498   -899.86444    1582.7434    -1205.274     2.166225    6.0160881   0.12352511 
   22800   -947.96776    43.723941   -904.24382     1566.033    943.77867    2.1828341     5.261064   0.11576759 
   22900   -951.07027    44.310561   -906.75971    1587.0436    3124.7019    2.1942631    5.2031274   0.12500496 
   23000   -942.89789    44.808951   -898.08894    1604.8941   -3743.7172    2.1614374    16.417304    0.1484875 
   23100   -947.62839    44.350689    -903.2777    1588.4808   -3681.9021    2.1663284    22.556317   0.14995557 
   23200   -948.10241    43.534912    -904.5675    1559.2627    4649.0283    2.1929469    18.069173   0.15677429 
   23300   -944.67625    48.891424   -895.78483    1751.1135    1988.2334    2.1791494    19.849982   0.15525283 
   23400   -947.71963    45.299652   -902.41998    1622.4693   -6844.2057    2.1620394    25.034406     0.145109 
   23500   -947.52745    42.447468   -905.07999    1520.3144   -3775.7677    2.1671424    22.283275   0.15208037 
   23600   -947.97301    51.738266   -896.23475     1853.077    6255.2904    2.1890678    19.527521   0.15732468 
   23700   -948.31282    47.896765   -900.41605    1715.4884    8206.0147    2.1990864    20.195688   0.15002564 
   23800    -949.3219    43.790909   -905.53099    1568.4316   -8517.8807    2.1594916    26.813255   0.14295221 
   23900   -944.85763    46.209076   -898.64856    1655.0415   -4693.3475     2.158289    21.384128   0.15905421 
   24000   -946.46236    46.473166    -899.9892    1664.5003    6061.6417    2.1968485    23.448805   0.17951602 
   24100   -950.69616    45.982846   -904.71332    1646.9388   -791.46576    2.1842916    42.664421   0.13749084 
   24200   -946.25976    44.621113   -901.63865    1598.1664   -6232.5828    2.1628091    45.104608   0.13809175 
   24300   -941.53335    45.275529   -896.25782    1621.6053   -813.87528    2.1677409    46.187983   0.15145171 
   24400   -949.17684    42.950459   -906.22638    1538.3297    7779.3592    2.2050112    45.486803   0.13327178 
   24500   -950.94898    46.480357   -904.46862    1664.7578   -6464.4963    2.1686133    47.863313   0.12855145 
   24600   -946.67642    45.251365   -901.42506    1620.7398   -7032.3572    2.1580886    44.596911   0.13395242 
   24700   -945.21497     44.57287    -900.6421    1596.4386    4500.4261    2.1876681    47.642868   0.14316795 
   24800   -952.30943    43.176479   -909.13295    1546.4249    10493.751     2.214538    45.691239   0.12527487 
   24900   -945.79319    42.119263   -903.67393    1508.5593   -6297.2217    2.1612633    47.102054   0.13197572 
   25000   -943.87018    41.960982    -901.9092    1502.8902   -10288.704    2.1464067    47.721746   0.14573673 
   25100   -951.61308    47.214479    -904.3986    1691.0514    9683.1029    2.2087589    45.355538   0.12295655 
   25200   -953.05628    44.271146   -908.78513    1585.6319    19490.876    2.2370944    49.387669   0.12948337 
   25300   -946.52096    45.260143   -901.26081    1621.0542   -16484.364    2.1391379    46.321496   0.14361146 
   25400   -943.91893     41.50082   -902.41811    1486.4089   -10237.155    2.1511271    49.030118   0.13581018 
   25500   -949.06073     43.52201   -905.53872    1558.8006    6940.1919    2.2005913    47.670289   0.13426164 
   25600   -947.62547    47.739185   -899.88629    1709.8445    4279.9721    2.1891099    44.758847   0.14374337 
   25700   -944.47291    45.960119   -898.51279    1646.1248   -6000.4151    2.1595204    45.316285   0.15363846 
   25800   -948.79496    44.801656   -903.99331    1604.6328   -7149.7655    2.1656235    48.148386   0.14523267 
   25900   -947.88082    44.585625    -903.2952    1596.8954    7859.2984    2.1953871     48.65025   0.13298729 
   26000   -944.81375    50.992059   -893.82169    1826.3506    2180.7033    2.1753027    47.431731   0.13425846 
   26100    -947.8852    46.064577   -901.82062    1649.8661   -3552.9487    2.1700845     44.89425   0.14646516 
   26200   -947.94357    43.580166    -904.3634    1560.8835   -3997.0523    2.1681961    47.495415   0.13298646 
   26300   -943.84675    44.370247   -899.47651    1589.1813    6279.4078    2.1832219    46.752908   0.13796876 
   26400   -944.82542    49.474502   -895.35092    1771.9972    1511.4411    2.1743173    43.505252   0.14186457 
   26500   -945.45695    41.187327   -904.26962    1475.1807   -1124.6626    2.1737183    47.783594   0.13124443 
   26600   -949.96754    46.602899   -903.36464    1669.1468   -2992.4567    2.1756778    44.079031   0.13446141 
   26700   -948.62393    50.516671   -898.10726     1809.324    4218.5784    2.1842725    44.097947   0.13144501 
   26800   -946.15905    49.247562   -896.91149    1763.8691   -1668.9253    2.1679252    48.617857   0.11854972 
   26900   -949.12626    44.166909   -904.95936    1581.8985   -4402.4483    2.1716554    49.697549   0.12808194 
   27000   -946.47289    43.618717   -902.85417    1562.2643    3038.3775     2.189977     44.61282   0.13459194 
   27100   -944.28998    44.327128   -899.96285     1587.637    6097.0119    2.1892217    44.443589   0.13818556 
   27200   -941.42994    48.766267   -892.66368    1746.6308    -7260.054    2.1459636    50.019457   0.15125312 
   27300   -944.13565     42.12076   -902.01489    1508.6129   -3620.0008    2.1653381     46.10603   0.13079344 
   27400   -949.30421    46.278433   -903.02577    1657.5256    2824.2878    2.1918841    43.388375   0.14096211 
   27500   -947.95686    45.743977   -902.21288    1638.3834    7234.1378    2.1943996    44.473651   0.12935964 
   27600   -951.22077    46.053199   -905.16757    1649.4586   -11249.004    2.1591034    45.864998   0.12636525 
   27700   -950.58904    37.419774   -913.16927    1340.2406   -3275.9007    2.1803412    43.899276   0.12598725 
   27800   -949.21886     44.70965   -904.50921    1601.3375    7275.2752    2.2038226    48.584198   0.13137165 
   27900   -946.91813    44.777212   -902.14092    1603.7574    6426.2557    2.1911074    47.902368   0.12412347 
   28000   -943.12209    39.326947   -903.79514    1408.5486   -9292.6837     2.152357    49.549354   0.13852002 
   28100   -949.53378     37.10004   -912.43374    1328.7889   -4164.8193    2.1818092    46.509002   0.12505681 
   28200   -953.23693     47.00494   -906.23199    1683.5465    7080.0817    2.2102698    43.723615   0.13062785 
   28300   -947.31971    45.165497   -902.15421    1617.6643    4608.5996    2.1918284    45.263988   0.13173329 
   28400   -948.29636    45.221905   -903.07446    1619.6846   -9036.7226     2.155124    46.207816   0.12981414 
   28500   -950.32877    40.505553   -909.82322     1450.762   -3129.8745     2.179092    44.317504   0.12239027 
   28600   -947.17265    39.535869   -907.63678    1416.0315    10262.605    2.2064289    45.594092    0.1188293 
   28700   -949.11282    46.942399   -902.17042    1681.3065    735.74562    2.1850564    46.620467   0.12180427 
   28800   -947.40019    44.511893    -902.8883    1594.2546   -5287.4312    2.1681449    48.338761   0.12646062 
   28900   -952.03338    41.190174   -910.84321    1475.2827   -1618.6313    2.1861068    48.283987   0.11323936 
   29000   -950.09111    44.852676   -905.23844    1606.4602    2192.3979    2.1910517    45.690091   0.12506304 
   29100    -948.8331    47.135147   -901.69795      1688.21    3428.3543    2.1880212    46.643415   0.11844386 
   29200   -950.11734    45.983414   -904.13393    1646.9591   -5081.2235     2.172756    44.862595   0.12011465 
   29300   -953.51271    41.741592   -911.77112    1495.0324   -4485.1551    2.1840953    44.377979   0.11577455 
   29400   -949.14831    43.865473   -905.28284    1571.1022    3308.2106    2.1912754    43.432063   0.11307061 
   29500   -945.80918    43.830074    -901.9791    1569.8343    7170.6244    2.1944669    45.672311   0.12178841 
   29600   -949.12487    45.263946   -903.86092    1621.1904   -7488.2073    2.1667021    45.782763   0.12787293 
   29700     -948.693    39.004955   -909.68804     1397.016   -5926.6755     2.167493    51.843368   0.11401712 
   29800   -950.56135       42.065   -908.49635    1506.6157     9157.433    2.2073552    44.759876   0.11312795 
   29900   -948.70436    46.680797   -902.02356    1671.9369    9598.3348    2.2048073    52.080756   0.11973166 
   30000   -947.26261    44.216393   -903.04622    1583.6709   -9655.6508    2.1524196    47.840532    0.1167637 
   30100   -944.21234    44.150706   -900.06163    1581.3182   -7376.6553    2.1534937    48.428698   0.13930506 
   30200   -942.03381    49.855334   -892.17848    1785.6373    5920.3396    2.1840056     42.22289   0.14160732 
   30300   -946.88787    46.467095   -900.42078    1664.2828    5357.0667    2.1909723    41.262849   0.12489027 
   30400   -949.03768    45.394661   -903.64302    1625.8721   -5399.6052    2.1705363    46.674628   0.11980848 
   30500    -945.1716    41.919212   -903.25239    1501.3942   -1903.5009     2.171984    45.368244   0.11983529 
   30600   -942.11075    48.700599   -893.41015    1744.2789    459.36395    2.1689477     50.09444   0.12314255 
   30700   -947.81337    46.797237   -901.01613    1676.1073    6887.1242    2.1916426    53.168972   0.11222701 
   30800   -948.27356     44.25938   -904.01418    1585.2105   -2402.3879    2.1745341    47.012768   0.12311033 
   30900   -944.90427     43.53152   -901.37275    1559.1412   -5331.7939    2.1608932    48.774003   0.13930933 
   31000   -941.70027    47.732847   -893.96742    1709.6175    1800.8894    2.1676275     50.45314   0.14516383 
   31100   -948.22397    45.493692   -902.73027    1629.4191    7083.3342     2.200469    44.279541   0.12505303 
   31200   -949.07472    45.050488   -904.02423    1613.5451   -2814.9691    2.1748567    47.301284   0.12156101 
   31300   -942.12606    44.455372   -897.67069    1592.2302   -6625.1992    2.1483525    45.998716   0.12565406 
   31400   -944.73448    48.521359   -896.21312    1737.8591   -836.23093    2.1738437    47.309924    0.1258112 
   31500   -951.39013    48.356825    -903.0333    1731.9661    8058.0882    2.2078885    45.873433   0.12881614 
   31600   -943.82492    41.041777   -902.78315    1469.9676   -123.65095     2.173473    50.507982   0.13052945 
   31700   -947.23586    48.306131   -898.92973    1730.1504   -14019.308    2.1418283    51.894773   0.11816439 
   31800   -947.95597    45.801193   -902.15478    1640.4326    1386.9613    2.1837068    48.568657   0.12798617 
   31900    -947.3628    41.088958   -906.27384    1471.6575    15139.283    2.2191518    45.877719   0.13360262 
   32000    -945.3711     41.87855   -903.49255    1499.9378   -221.77457    2.1766244    45.727973   0.14295125 
   32100   -946.34922    44.144774   -902.20444    1581.1057   -9289.1363     2.155041    47.089259    0.1467846 
   32200    -947.9407    41.262375   -906.67833    1477.8686    2001.9956     2.185614    49.947231   0.12044869 
   32300   -951.61371    42.332031   -909.28168    1516.1798    4421.0851    2.2015053    50.549259   0.12213665 
   32400   -946.62127    43.753039   -902.86823    1567.0752    281.27235    2.1780352    44.231324   0.11901088 
   32500   -946.59869    44.657912   -901.94077    1599.4845   -4435.2517    2.1681911    48.721904   0.13302095 
   32600   -952.29421    43.634979   -908.65923    1562.8467   -1373.2464     2.184912    45.248008   0.12586296 
   32700   -950.48999    43.094551   -907.39544    1543.4905    4707.3671    2.1954969     53.20037   0.12393054 
   32800   -945.80532    44.317217   -901.48811     1587.282    2437.8167    2.1797961    46.191323   0.14066427 
   32900   -947.73732     44.39144   -903.34588    1589.9404    -4853.409    2.1656365    42.575344   0.13797838 
   33000   -953.06796    41.909937   -911.15802     1501.062    883.48955    2.1908228     46.68348    0.1177149 
   33100    -946.7349    43.287992   -903.44691    1550.4189     4821.949    2.1910467    45.315939   0.13253312 
   33200   -945.60776    43.689322   -901.91843    1564.7931    1891.3163    2.1809723    46.391212     0.134829 
   33300   -947.80161    42.589097   -905.21251     1525.387   -5778.0186    2.1643929    47.119948    0.1166123 
   33400   -952.26017     41.16677    -911.0934    1474.4444   -2092.1053    2.1871291    44.183836   0.12790042 
   33500   -950.75201    48.773561   -901.97845    1746.8921    3737.9412    2.1916586    43.922925   0.13077399 
   33600   -946.80604    44.938982   -901.86706    1609.5514    6582.4773    2.1911265    53.973793   0.13298819 
   33700   -949.66115     45.03843   -904.62272    1613.1132   -10379.421    2.1528703    47.170453   0.13404451 
   33800   -945.38968    44.806991   -900.58269    1604.8239   -2812.6938    2.1619778    46.284239   0.12301829 
   33900   -944.33843    48.729069   -895.60936    1745.2985    9502.5117    2.1908106    44.047611   0.12088573 
   34000   -947.25633    45.198004   -902.05833    1618.8286    131.44827    2.1759822    46.018858   0.12715714 
   34100   -945.74777    40.905927   -904.84185     1465.102   -8930.7526    2.1500641    44.112105   0.11736004 
   34200   -944.33132    45.350251   -898.98107    1624.2815    1961.8768    2.1722062    49.736782   0.11774693 
   34300   -945.00711     49.12746   -895.87965    1759.5675    10162.637    2.1925742    43.580078   0.12645945 
   34400   -946.56602    42.981786   -903.58424    1539.4517   -1541.6591    2.1695488    45.893456   0.12307793 
   34500   -947.35046    43.711979   -903.63848    1565.6046   -8374.1546    2.1532016    47.646816   0.12839028 
   34600   -947.33678    49.959614   -897.37716    1789.3722    1267.0542    2.1755842    51.005891   0.12006042 
   34700   -948.82892    48.839361   -899.98956    1749.2488    1976.1371     2.180504     52.08027   0.10761699 
   34800   -951.29035     46.24328   -905.04707    1656.2666   -5983.3866    2.1702734    49.916688    0.1154852 
   34900   -947.59684     44.87675   -902.72009    1607.3224   -1520.3723    2.1730515    41.876678   0.12459657 
   35000   -942.59258    44.597302   -897.99528    1597.3136    3233.3608    2.1775656    42.098242   0.14448964 
   35100   -941.56381    46.680278   -894.88353    1671.9183   -2313.2585    2.1557523    20.683826   0.15653287 
   35200   -946.28435    43.917311   -902.36704    1572.9588   -124.14977    2.1754625    28.623238   0.13853566 
   35300   -944.43325    43.258603   -901.17465    1549.3663    8784.8316    2.1917455    34.642005   0.13128518 
   35400   -945.54241    46.701378   -898.84103     1672.674   -477.70224    2.1733595    38.713832   0.14294728 
   35500   -937.74071    47.656168   -890.08454    1706.8711    -8840.867    2.1313156    42.736521   0.16426364 
   35600    -946.0304    45.181636   -900.84877    1618.2424    5601.7802    2.1905458    47.151224   0.13449171 
   35700   -945.29318    44.073134   -901.22005    1578.5398    6707.6598    2.1866279    48.176058   0.14092399 
   35800   -949.55007    45.669078   -903.88099    1635.7007   -10377.252    2.1573052    44.854045   0.13754901 
   35900   -951.53866    39.521783   -912.01687     1415.527   -1463.9083    2.1863942     47.06848   0.11214354 
   36000   -949.60349    45.999409   -903.60408     1647.532     5410.364    2.1936239    43.676684   0.13518821 
   36100   -946.26064    44.086209   -902.17443    1579.0081    4435.0101    2.1840402    45.204723   0.12214274 
   36200   -946.86086    41.949329   -904.91153    1502.4728    -5159.286    2.1639804    46.384427   0.12864249 
   36300   -953.84343    40.977976   -912.86546    1467.6825   -3717.0762     2.185767    44.105218   0.12689496 
   36400   -948.87601    43.811591   -905.06442    1569.1723    5890.9312    2.1955004    44.657004   0.12314456 
   36500   -946.51236    43.938037   -902.57433    1573.7012    5828.8912    2.1923599    45.260581   0.13286935 
   36600   -948.39351    45.105795   -903.28771     1615.526   -8037.6409     2.159034    45.085211   0.13012992 
   36700   -946.18431     46.75258   -899.43174    1674.5079   -9114.6068    2.1488846    43.821811   0.12800583 
   36800   -941.78915    48.123414   -893.66574    1723.6062    15046.966    2.1999053    45.474801   0.13189312 
   36900   -944.10469    44.461369   -899.64332     1592.445    6767.0648    2.1882657    52.158894   0.13003758 
   37000   -943.84554    40.372058   -903.47349    1445.9807   -15350.009    2.1342531    48.405446   0.13456127 
   37100   -944.86316    41.949187   -902.91397    1502.4678   -2880.3364    2.1660996    45.688919   0.12324422 
   37200   -951.49231    43.485772   -908.00654    1557.5027     12967.06    2.2189061    46.909009   0.12550673 
   37300   -951.00566    40.672369   -910.33329    1456.7368    2354.4818    2.1945093    44.704824   0.11052305 
   37400   -947.87786    43.093127   -904.78474    1543.4395   -7456.1698    2.1608664    53.223469   0.12746877 
   37500   -944.70868    42.467832   -902.24084    1521.0437    541.75793    2.1719926    47.637794   0.13654009 
   37600   -945.77192    44.218278   -901.55364    1583.7384    7582.5381    2.1917422    42.815794   0.12420116 
   37700   -953.21853    41.827528   -911.39101    1498.1104    1200.2434     2.194052    44.285447    0.1146964 
   37800   -950.61322    44.380511   -906.23271    1589.5489   -9319.6066    2.1613561    47.071277   0.11319307 
   37900   -946.29267    43.953698   -902.33897    1574.2621      895.885    2.1775118    52.829457   0.10948816 
   38000    -943.0883    42.065733   -901.02257     1506.642    10481.405     2.195967      46.7309   0.12726106 
   38100   -952.56195    42.579626   -909.98232    1525.0478   -2932.4137     2.182405    46.737257   0.12509903 
   38200   -949.66661    43.208218    -906.4584    1547.5617   -9426.2865    2.1597987    43.984337   0.12409139 
   38300   -946.74025    44.988814   -901.75143    1611.3362    3513.7773    2.1859981    45.949965    0.1504905 
   38400   -949.38549    45.776083   -903.60941    1639.5333    4111.0299    2.1968569    43.946385   0.13659086 
   38500   -951.61506    40.100788   -911.51427    1436.2648   -1696.8606    2.1860094    45.607501   0.12506358 
   38600    -945.4822    42.474316   -903.00788     1521.276   -3195.9859     2.166739    44.979782   0.14803192 
   38700   -947.56933    45.976741   -901.59259    1646.7201     2698.351    2.1877148    49.870276   0.12248235 
   38800   -948.76072    42.472811   -906.28791    1521.2221    3752.8703    2.1919435    47.415352   0.13293923 
   38900    -949.5733    40.287071   -909.28623    1442.9368   -663.90578    2.1857925    47.361737    0.1210859 
   39000   -945.58461    45.255402    -900.3292    1620.8844   -3477.4234    2.1676673    51.775829   0.13703329 
   39100   -948.68835    45.859215   -902.82913    1642.5108    1237.3617    2.1836929    47.096934   0.13419844 
   39200   -950.70404    44.843223   -905.86082    1606.1216    2546.9803    2.1949132     40.60008   0.14705174 
   39300   -943.35759    46.518148   -896.83944    1666.1114   -512.32906    2.1721052    47.000324   0.14302565 
   39400   -946.45181    47.072656   -899.37915    1685.9718   -196.48153    2.1762913    47.262868   0.13901069 
   39500   -949.19786    45.026217   -904.17164    1612.6758    697.29096    2.1837229    44.502791    0.1412825 
   39600   -951.62615    48.498106   -903.12804    1737.0263   -3554.8833    2.1800071    50.231647   0.12339858 
   39700   -940.64712     45.33523   -895.31189    1623.7435    -3442.206     2.157553    48.272206   0.12930765 
   39800     -949.083    44.993583   -904.08942     1611.507    2676.0747     2.191246    49.579125   0.12786023 
   39900   -952.95753    49.495269   -903.46226     1772.741    2241.0581     2.193113    45.174956   0.10918353 
   40000   -944.82042    48.102184   -896.71824    1722.8458   -4666.2306    2.1576248    47.117907    0.1388022 
   40100   -944.92316    43.474325   -901.44884    1557.0927    -5023.446    2.1601813    46.270277   0.13457045 
   40200   -949.44987    44.894017   -904.55586    1607.9409    5000.2254    2.1950171    41.555387   0.11695823 
   40300   -946.19902    45.551736   -900.64729     1631.498    8862.7954    2.1960054    47.452818   0.13032653 
   40400   -944.49937    44.835825   -899.66355    1605.8567   -8577.5817    2.1552926     48.90473   0.13908065 
   40500   -948.21812    39.442565   -908.77555    1412.6896    -2256.415    2.1774454     49.19456   0.12840436 
   40600   -949.02951    45.777058   -903.25245    1639.5682    6719.4964    2.2009823    49.124644   0.13561103 
   40700   -948.26557    47.713516   -900.55205    1708.9251    1053.5805    2.1828443    47.406136   0.11335205 
   40800   -947.84253    43.125992   -904.71654    1544.6167    -11708.07    2.1534928    47.277985   0.12490131 
   40900   -952.49757    44.464154   -908.03341    1592.5447   -2436.3102     2.182811    45.672152    0.1205732 
   41000   -947.58771    46.846537   -900.74118    1677.8731    10700.867    2.2040056    47.098606   0.13568021 
   41100   -946.44721    43.342141   -903.10507    1552.3583    862.65706    2.1820583    43.459278   0.14097406 
   41200   -951.34806    40.856751   -910.49131    1463.3406   -6846.0589    2.1712954    46.175268   0.11627848 
   41300   -947.18958    44.460066   -902.72952    1592.3983   -2118.9724    2.1766705    46.160193   0.12278351 
   41400   -943.96028    43.014331   -900.94595    1540.6173    6418.1626    2.1920257    51.331841   0.13629234 
   41500   -949.42696    42.284187   -907.14277    1514.4662   -916.56943    2.1831682    47.823064   0.13493747 
   41600   -944.84014    40.664487   -904.17565    1456.4545   -281.24216    2.1748213    43.328169   0.14210913 
   41700   -947.60915    47.991433   -899.61772    1718.8791   -3390.5124    2.1725678     46.06145   0.13413747 
   41800   -948.53748      44.3204   -904.21708     1587.396    663.63018    2.1810529    44.138582   0.13434163 
   41900   -949.88958    44.445499   -905.44408    1591.8766    55.889608    2.1814675    47.453885   0.12695061 
   42000   -943.14576    46.850628   -896.29513    1678.0196   -5067.6267    2.1557022    47.223642   0.14484757 
   42100   -947.99658    44.649891   -903.34669    1599.1972    2093.6798    2.1858589    49.138873   0.13288812 
   42200    -952.1689     47.77186   -904.39704    1711.0148    296.07896    2.1888647    45.095805   0.12213427 
   42300   -944.25263    47.823219   -896.42941    1712.8543     -3227.04    2.1605721    46.025361   0.12566695 
   42400   -947.82598    44.598707   -903.22728    1597.3639   -1768.9657    2.1728372    47.267719   0.12817539 
   42500   -946.33362    41.690818    -904.6428    1493.2139    2606.9644    2.1844778    50.246724   0.12902588 
   42600   -947.13833    47.846083   -899.29225    1713.6732    3132.5775    2.1857791    46.834074   0.14475115 
   42700   -945.72821    44.094278   -901.63394    1579.2971    -2007.728     2.166479    44.584369   0.12901351 
   42800   -949.59227    42.354388   -907.23788    1516.9806   -5602.1152    2.1700375    43.448664   0.12306346 
   42900   -948.41828    47.134169   -901.28411     1688.175    7764.2922     2.196407    42.216017   0.13186605 
   43000   -948.29643    46.872802   -901.42363    1678.8138    5788.5664    2.1946644     44.81868   0.12527414 
   43100   -950.75092    40.628498   -910.12242    1455.1655   -8347.4456    2.1703307    46.874266    0.1241771 
   43200   -947.70556    43.980947   -903.72462     1575.238   -8081.3354    2.1599243    48.411963   0.11275796 
   43300    -947.9092    47.670023   -900.23918    1707.3673    8318.1995    2.1975701    42.343115   0.13229267 
   43400   -949.48606     42.70577   -906.78029    1529.5658    6956.3125     2.200615    46.746882   0.13255266 
   43500   -949.70117    43.205847   -906.49532    1547.4768   -7693.6853    2.1617451    44.059758   0.13084688 
   43600   -947.90737    47.518659   -900.38871     1701.946    -7590.845    2.1592101    49.417281   0.14685305 
   43700   -947.26206    44.005945   -903.25612    1576.1334    6016.1009    2.1946954    42.914144   0.12465209 
   43800    -947.5773    40.570613   -907.00669    1453.0922    6023.0678    2.1979834     46.13473    0.1332284 
   43900    -940.5144    43.704905    -896.8095    1565.3512   -2877.2861    2.1518019    47.303093   0.12889007 
   44000   -949.08366    46.905011   -902.17865    1679.9674   -2466.4843     2.175565    45.604356   0.13151659 
   44100   -948.31717    43.415338   -904.90183      1554.98    4131.9943    2.1957043    48.706502   0.14586175 
   44200   -945.56821    48.236192   -897.33202    1727.6455    169.49355    2.1754051    53.431282   0.13837587 
   44300   -948.64431    48.979504   -899.66481    1754.2682   -4044.4161    2.1701436    46.059146   0.14255775 
   44400   -951.12568    45.980628   -905.14505    1646.8594   -3767.7137    2.1798533    46.489241   0.13675373 
   44500   -945.12695    44.607335   -900.51961     1597.673    4214.7911    2.1847542    45.602672   0.14055056 
   44600      -939.94     42.93189   -897.00811    1537.6646    2011.7931    2.1702689    45.696227   0.14901659 
   44700   -949.18814    43.186606   -906.00154    1546.7876    415.92543    2.1847862    47.212521   0.12914066 
   44800   -945.37322    43.022017   -902.35121    1540.8926    2006.3821     2.179319    47.679918   0.11515479 
   44900   -944.96382    46.253519    -898.7103    1656.6333   -65.748461    2.1715112    52.277006   0.14263028 
   45000   -950.44894    42.145963   -908.30297    1509.5156    2716.9909    2.1908135    45.005574   0.11204332 
   45100   -945.31245    40.669457   -904.64299    1456.6325    695.45546     2.174447    49.041452   0.11525385 
   45200   -945.84978    45.248366   -900.60141    1620.6324   -76.072731    2.1738148    43.827728   0.14811934 
   45300   -952.06037    45.428815   -906.63155    1627.0954   -728.20533    2.1861111    43.255647   0.12693019 
   45400   -952.00063    44.478527   -907.52211    1593.0595   -358.74277    2.1869763    46.854978   0.12961782 
   45500   -948.13025    47.139451    -900.9908    1688.3642   -915.98219     2.172884    47.152508   0.12839021 
   45600   -950.90843    47.042091   -903.86634    1684.8771   -2641.3412    2.1776385    48.293545   0.12700189 
   45700   -951.15956    41.690082   -909.46948    1493.1876    4132.1798    2.1946799    46.531449   0.11090877 
   45800   -942.40508    42.125478   -900.27961    1508.7819    -486.7686    2.1675395    54.722449   0.14769599 
   45900   -945.19704    42.490329   -902.70671    1521.8495   -760.96027    2.1723671    54.184639    0.1327956 
   46000   -956.71689    50.299305   -906.41759    1801.5387    2003.4193    2.1993287    46.562057   0.12033598 
   46100   -944.65666    44.177175   -900.47948    1582.2662    4333.2921    2.1845943    44.506397   0.13979322 
   46200   -943.08974    44.046074   -899.04367    1577.5706   -5661.2763    2.1545964    46.227162   0.12828606 
   46300   -950.50017    46.138068    -904.3621    1652.4983   -6806.8945    2.1703124     42.13101   0.12648765 
   46400   -949.39333     46.25692   -903.13641    1656.7551    5885.8578    2.1996433    47.835415   0.13198533 
   46500   -943.07445    48.771848    -894.3026    1746.8307    3828.9309    2.1750433    46.143642   0.12963486 
   46600   -943.11437    40.025744   -903.08863     1433.577   -4018.1234    2.1662847    48.272201   0.13756425 
   46700   -944.07477    39.855525   -904.21925    1427.4804   -1246.3956    2.1747474    47.690791   0.12568545 
   46800   -943.91312    46.305222    -897.6079    1658.4851     9665.806    2.1937762    48.374655    0.1129813 
   46900   -945.08887    45.247311   -899.84156    1620.5946    1805.7924    2.1807338    43.896278   0.13378729 
   47000   -947.62438    41.916732   -905.70765    1501.3053    -7059.251    2.1629705    49.951674   0.13022151 
   47100   -945.76012    43.936076   -901.82404    1573.6309    508.63029    2.1793066    42.717611   0.12993359 
   47200   -942.91136    45.189282   -897.72207    1618.5162    10490.258    2.1969698     45.56697   0.14701457 
   47300   -953.32767      46.2374   -907.09027     1656.056   -2277.2012    2.1843248    46.910666   0.11207942 
   47400   -948.55175    43.242625   -905.30913     1548.794   -12572.724    2.1539208    44.409619   0.12636487 
   47500   -947.09381    45.832896   -901.26091    1641.5681    2216.3451     2.181691    45.097623   0.11976715 
   47600   -952.35795    47.987572   -904.37038    1718.7408    7677.7456    2.2067119    48.811729   0.10199405 
   47700   -951.62832    41.682652   -909.94567    1492.9214    -380.5833    2.1891921    42.883767   0.10833605 
   47800   -950.03702    47.431867   -902.60515    1698.8375   -8830.4576    2.1608772     44.81915   0.12398131 
   47900   -948.96909     47.29893   -901.67016    1694.0761    1159.3857    2.1813958    45.286059   0.12346866 
   48000    -951.0744    41.766064   -909.30834     1495.909    6278.5056     2.203127    42.927743   0.12354572 
   48100   -951.18367     47.41382   -903.76985    1698.1911   -2536.2191    2.1789375    43.984038   0.12131548 
   48200   -946.02974    44.671114   -901.35862    1599.9573   -239.31646    2.1748895    45.756639     0.120132 
   48300   -949.66713    44.896114   -904.77102     1608.016    402.87542    2.1843477    45.604237   0.11755332 
   48400    -950.7953    41.089421   -909.70588    1471.6741    1579.1974    2.1936461    48.393161    0.1159951 
   48500   -947.99273    48.107324   -899.88541    1723.0299   -4153.8022     2.167695    45.232547   0.12716112 
   48600   -947.51034    45.944638    -901.5657    1645.5703    1250.8763    2.1838476    46.591131   0.11639938 
   48700   -948.60766    44.591529   -904.01613    1597.1068    2878.7644    2.1899674    46.194206   0.11795221 
   48800   -949.47997    42.157697   -907.32228    1509.9358   -4307.8215    2.1716798    45.888842   0.11089859 
   48900   -957.40608    41.596164   -915.80992    1489.8237   -3940.7637    2.1928331    44.017263   0.11884422 
   49000   -950.52776     43.78023   -906.74753    1568.0491    3595.3354    2.1918333    46.549168    0.1144617 
   49100   -946.81213    43.303164   -903.50897    1550.9623    4948.9071    2.1886343      45.9216   0.12815484 
   49200    -946.4262    44.549424   -901.87678    1595.5988   -4876.0319    2.1600842    47.364897   0.13245277 
   49300   -942.44236    44.953544   -897.48882    1610.0729   -3635.6328    2.1592535    44.872929   0.12521424 
   49400    -939.5079    50.716593    -888.7913    1816.4844    9397.3356    2.1833234    49.699999   0.14391011 
   49500   -944.63179     45.44671   -899.18508    1627.7363    10164.476    2.1942985    50.660955   0.12821131 
   49600   -946.12413    44.448828    -901.6753    1591.9958   -13654.501    2.1425083     48.36435   0.13419257 
   49700   -944.26422    40.517299   -903.74692    1451.1827   -2222.2279    2.1693816    42.494927   0.14023551 
   49800   -950.27318    46.706307   -903.56688    1672.8505    10398.705    2.2130165    42.537249   0.13173161 
   49900   -941.86955    47.940949    -893.9286    1717.0709   -538.29717    2.1679433    45.826927   0.14168554 
   50000   -943.06652    41.317663   -901.74885    1479.8489   -4364.0577     2.161965    43.457407   0.14314576 
   50100   -946.36572    42.454682   -903.91104    1520.5728    822.92086    2.1825438    46.093137   0.13103256 
   50200   -947.41379    45.802593    -901.6112    1640.4828    5494.2164    2.1938414    47.059636   0.14166224 
   50300   -942.90552    47.861959   -895.04357    1714.2418   -4014.8467    2.1607566    48.684476   0.13884218 
   50400   -949.71684     45.61505   -904.10179    1633.7657   -5027.3901    2.1730899    50.783668   0.12819269 
   50500   -952.16249    48.998841   -903.16365    1754.9608    294.44238    2.1887806    47.615702   0.12815101 
   50600   -946.85267    49.749078   -897.10359    1781.8316    2888.7059    2.1799956     44.86103   0.14701166 
   50700   -946.46132     47.57731   -898.88401    1704.0467   -3819.9539    2.1643925    46.102964   0.13651504 
   50800   -948.72507    44.181948   -904.54312    1582.4372   -6025.7144    2.1675718    44.307094   0.13519595 
   50900   -947.20006    45.303982   -901.89608    1622.6243    6011.0484    2.1985048    42.919948   0.14353484 
   51000    -947.9272    48.592115   -899.33509    1740.3933    8869.7529     2.199997    46.428911   0.13405248 
   51100   -939.10067    49.376339   -889.72433    1768.4814   -14917.555    2.1227694    48.826559   0.16461431 
   51200   -946.14206    44.900952   -901.24111    1608.1893   -6302.7276    2.1612358    55.688795   0.16278043 
   51300   -947.06448    45.917117   -901.14736    1644.5846    13268.633    2.2122148    55.461249   0.14443381 
   51400    -946.3901    44.434831   -901.95527    1591.4945    3740.7212    2.1850963    54.632267   0.16111023 
   51500   -946.55509    48.609948   -897.94514    1741.0321   -13543.021    2.1459703    55.517325    0.1618793 
   51600   -944.83252    52.452751   -892.37977    1878.6673    -7420.867    2.1469538    54.911988   0.15915303 
   51700   -942.77847    42.284045   -900.49443    1514.4611    11672.737    2.1981278    54.903897   0.15869524 
   51800   -944.90959    43.353007   -901.55658    1552.7475    4249.7573    2.1837502    44.955286   0.13228211 
   51900   -947.88426    45.750161    -902.1341    1638.6048   -8948.4909    2.1558939    52.754489   0.14464197 
   52000   -952.14696    40.525926   -911.62103    1451.4917   -2948.6016    2.1831426    52.920408   0.13707662 
   52100   -947.93718    42.322369   -905.61481    1515.8338    2973.8847    2.1881567    58.384482   0.14032036 
   52200    -946.8368    45.455007   -901.38179    1628.0335    1712.9586    2.1789413    51.279494   0.15487611 
   52300   -942.66798    41.312719   -901.35526    1479.6718    663.27458    2.1693599    58.032908   0.15655808 
   52400   -949.75488    39.529397   -910.22549    1415.7996   -151.67245    2.1896481    54.367102   0.15468098 
   52500   -947.46665    43.919885   -903.54676     1573.051   -2368.1822    2.1798916    51.119465   0.16017245 
   52600    -946.8477    46.491788   -900.35591    1665.1673    1900.9032     2.183197    52.706227    0.1754972 
   52700   -949.07778    43.727895   -905.34988    1566.1746   -1124.0489    2.1828065    51.745246   0.16567252 
   52800   -946.72411    39.704741   -907.01937    1422.0798    1495.0878    2.1847202    56.316346   0.16197244 
   52900    -945.8422    46.679753   -899.16244    1671.8995   -958.35498    2.1755385    49.595574   0.14894495 
   53000   -947.71143    45.273616   -902.43781    1621.5367   -1743.1572     2.173544    54.917329   0.16038561 
   53100   -952.04254    44.410441    -907.6321     1590.621   -2859.4379    2.1837822    48.491239    0.1533315 
   53200    -943.7718    45.378475   -898.39333    1625.2924    4492.4127    2.1794117    51.179594   0.14851178 
   53300   -944.28957    44.008817   -900.28076    1576.2362    5776.4092    2.1894885    78.236199   0.16549317 
   53400   -951.34425    45.735728   -905.60852    1638.0879   -7310.6219    2.1682035    74.066668   0.14966217 
   53500   -944.73965    47.167995   -897.57165    1689.3865   -6667.8199    2.1564893    73.064339   0.14814222 
   53600     -944.119     45.92923   -898.18977    1645.0185    10730.767    2.1981264    69.251046   0.15371705 
   53700    -947.0138    43.551904    -903.4619    1559.8712    4002.8212    2.1880146    73.341112   0.12716153 
   53800   -943.90036    43.881989   -900.01837    1571.6937   -8105.9918    2.1486508    68.538796   0.14390526 
   53900   -939.43973    44.485664   -894.95407    1593.3152   -3750.0046     2.154241    77.622601   0.16293527 
   54000   -947.73753    44.184794   -903.55274    1582.5391    12163.861    2.2053969    48.740345   0.14551989 
   54100   -947.09974    45.083874   -902.01586    1614.7409    2787.2567    2.1856227    51.914597   0.16674195 
   54200   -939.19929    43.132381   -896.06691    1544.8455   -9371.9393    2.1439575    55.325554    0.1790715 
   54300   -948.83109    43.268165   -905.56292    1549.7087   -742.06484    2.1810894    52.036108   0.14517225 
   54400   -951.50506    47.886658    -903.6184    1715.1264    3575.0347    2.1941447    54.391124    0.1539771 
   54500   -944.64276    45.025015   -899.61774    1612.6328    2247.2432     2.176756    56.028492   0.16190845 
   54600    -945.9406    45.085926   -900.85468    1614.8144   -5958.2263    2.1610724    50.256813    0.1548483 
   54700   -946.75397    39.891268    -906.8627    1428.7606    3178.1456       2.1875    51.249661   0.16090579 
   54800   -943.23101    42.714759   -900.51625    1529.8878    9004.2741     2.188202    52.087897   0.15819334 
   54900   -944.50883    44.615472   -899.89335    1597.9644    3663.9561    2.1746676    55.673577   0.15148508 
   55000   -947.67061    38.892268   -908.77834      1392.98   -1355.9017    2.1789815    52.879146   0.17363681 
   55100   -949.94677    47.710817   -902.23595    1708.8284   -4461.7821    2.1724934    52.616898   0.17455512 
   55200   -945.46158    46.097092   -899.36449    1651.0307    2324.1395    2.1835715    53.459735   0.17155542 
   55300   -947.77233    40.859852   -906.91247    1463.4517    2175.6329     2.185328    56.429413   0.15648958 
   55400   -943.37735     43.62188   -899.75547    1562.3775   -1300.2394      2.16645    52.491886    0.1637755 
   55500   -944.07525    44.749979   -899.32527     1602.782    1324.0318    2.1766951    55.878078   0.17141942 
   55600   -950.25721     45.35575   -904.90146    1624.4785   -307.63429     2.186576    57.013945   0.13818381 
   55700   -945.83361    46.914276   -898.91933    1680.2992   -355.52956     2.171197    59.278853   0.15767996 
   55800    -945.3742    46.703627   -898.67058    1672.7545   -2248.0519    2.1706085    67.551099   0.14615312 
   55900   -947.95484    42.632776   -905.32206    1526.9514   -2182.6435    2.1793041    65.575744   0.12325464 
   56000   -944.92153    43.495461   -901.42607    1557.8497    2868.1517    2.1847863    67.827933    0.1419695 
   56100   -945.51609    49.514782   -896.00131    1773.4399    608.52799    2.1762298    71.164675   0.13602918 
   56200   -952.28858    46.686565   -905.60201    1672.1435   -3863.0885    2.1796441    69.147788   0.11999527 
   56300   -948.43826    45.063142   -903.37512    1613.9983   -3682.2639    2.1727562    65.629634   0.11973777 
   56400   -944.01846    46.228992   -897.78946    1655.7549    4184.9954     2.182601    70.900482    0.1297781 
   56500   -948.44946    42.153085   -906.29637    1509.7706    3640.1517    2.1937633    67.913691   0.12858988 
   56600   -945.11275    39.714541   -905.39821    1422.4308   -4840.1921    2.1619973    67.924751   0.14072484 
   56700   -947.09535     46.36351   -900.73184    1660.5728   -2658.0762    2.1714393    71.870471   0.14033768 
   56800   -948.11516    42.664465   -905.45069    1528.0864    9385.7009    2.2051558    66.742146   0.13133924 
   56900   -949.74662    41.309962   -908.43666     1479.573     1823.466    2.1910773    66.197786    0.1372633 
   57000   -944.22124    42.658474   -901.56277    1527.8719   -6292.1947    2.1540144    68.794256    0.1256502 
   57100    -946.5132    44.102707   -902.41049     1579.599   -1642.6012    2.1726165    72.475787   0.13134528 
   57200   -951.37562    42.621596   -908.75402     1526.551    9947.2002    2.2141133    68.895582   0.13008143 
   57300   -946.32278    46.716392   -899.60639    1673.2117   -1253.6525    2.1708931    70.571845   0.12519319 
   57400    -948.2948    46.576635   -901.71817    1668.2061   -8262.4758    2.1580666    69.402945   0.10961821 
   57500   -947.42485    41.724083   -905.70077    1494.4053    2503.0295    2.1840809    71.276473   0.12297583 
   57600   -947.99614    42.761186   -905.23496    1531.5506    10163.923    2.2049931    73.947289   0.13820435 
   57700   -944.86434    46.717096   -898.14724    1673.2369   -4660.3501    2.1595784    76.750332   0.14717295 
   57800   -948.17809    44.843718   -903.33437    1606.1394   -11299.837    2.1525687    99.803401   0.16002482 
   57900   -946.36289    43.449962   -902.91292    1556.2201    5908.8582    2.1926159    106.56542   0.14914021 
   58000   -941.60747    48.705509   -892.90196    1744.4547    8433.0348     2.184529    91.045623   0.13181144 
   58100    -948.0113    47.506447   -900.50486    1701.5086   -4332.4643    2.1645465     130.2128    0.1321766 
   58200   -945.30451    41.821894   -903.48262    1497.9086   -10328.335    2.1561996    102.72266   0.15152023 
   58300   -945.12549    45.072076   -900.05342    1614.3183    3851.4924    2.1823289    104.51828   0.12829069 
   58400    -943.2358    50.332437   -892.90336    1802.7254    5044.9156    2.1765071    107.85954   0.14638665 
   58500   -946.74151    45.139346   -901.60216    1616.7277   -3740.0911    2.1658867    104.36369   0.16059246 
   58600   -946.06517    43.272023   -902.79315    1549.8469   -8558.4632    2.1534158    110.68242   0.15604722 
   58700   -944.05032    45.535984   -898.51434    1630.9338    12597.716    2.2030166    96.076988   0.15709354 
   58800   -944.07532    53.762273   -890.31305    1925.5697    6727.5626     2.185736    100.64457   0.16317767 
   58900   -944.14996     43.96882   -900.18114    1574.8037   -9215.4284    2.1453943    92.755886   0.14364396 
   59000   -945.22518    43.211193   -902.01399    1547.6682   -7148.2834    2.1593337    85.170304   0.14411075 
   59100   -946.79742    44.401688   -902.39573    1590.3074    13788.165    2.2111309    78.498351   0.14157803 
   59200   -953.21504    42.919782   -910.29526    1537.2309     5119.022    2.2038441    74.648674   0.12007454 
   59300   -939.79498    38.709721   -901.08526    1386.4418   -8027.1024    2.1441151    77.710234   0.14208469 
   59400   -946.67729    44.854404   -901.82289    1606.5221   -274.15376    2.1729054    78.863803   0.13175438 
   59500   -947.55339    42.871669   -904.68172    1535.5077    10032.585    2.2054007    75.458772   0.12203868 
   59600   -948.97178     44.02318    -904.9486    1576.7507   -14.505347    2.1847547    74.734677   0.13188182 
   59700   -941.26489    44.556191    -896.7087    1595.8412   -10039.401    2.1382999     80.03953   0.14097232 
   59800   -943.97075    40.897841   -903.07291    1464.8123    1776.3166    2.1782405    76.670752   0.12793303 
   59900   -948.43107    44.950063     -903.481    1609.9482      10839.7    2.2060858    78.369665   0.14042081 
   60000   -944.96253    49.476506   -895.48602     1772.069   -1318.5752    2.1670231    75.603944   0.12472543 
   60100   -944.82356    44.694228   -900.12934    1600.7852    -6518.247    2.1514764    77.482357   0.13241691 
   60200   -947.98804    43.809267   -904.17877    1569.0891   -88.953088     2.178382    74.887616   0.13701139 
   60300   -947.72279    46.718711   -901.00408    1673.2948    7484.0356     2.196848    78.571017   0.13102711 
   60400   -945.12374    50.268129   -894.85562    1800.4221   -2617.5654    2.1664454    74.905183   0.12975236 
   60500   -949.39716    44.751219   -904.64594    1602.8264   -4352.6253    2.1731921    77.866965   0.12967092 
   60600   -950.40992    47.103079   -903.30684    1687.0615   -2949.6073    2.1778313    76.236822   0.12560177 
   60700   -946.27943    47.033832    -899.2456    1684.5813    3220.9951    2.1837526    79.708901   0.14792046 
   60800   -945.59729    46.131693    -899.4656    1652.2699   -1261.1334    2.1683305    77.902083   0.13632687 
   60900   -951.82748    44.831202   -906.99628    1605.6911     -1447.61    2.1826271    74.004235   0.11007376 
   61000   -951.31208     47.95948    -903.3526    1717.7346   -34.290023    2.1841941    75.924205   0.11922423 
   61100   -943.90593    43.605929       -900.3    1561.8062    3049.6914    2.1739206    78.108455   0.11535329 
   61200   -947.39668    42.652695   -904.74399    1527.6649   -4300.8675     2.164831    76.400878   0.12869509 
   61300    -951.5812    43.377394   -908.20381     1553.621   -2891.1797    2.1799941    80.436219   0.11991253 
   61400   -949.32289    47.724642   -901.59824    1709.3236    16554.971    2.2175945    76.856208   0.12336551 
   61500   -947.61448    45.270197   -902.34428    1621.4143   -781.73979    2.1752807     75.29621   0.12390632 
   61600   -949.27748    43.873817   -905.40367     1571.401   -20047.724      2.12883    77.202797   0.13608265 
   61700   -954.72204    45.494795   -909.22724    1629.4586    22.915195    2.1936479     78.65796   0.13264339 
   61800    -949.7063    48.907589   -900.79871    1751.6925    12021.771    2.2093783    80.933471   0.12725162 
   61900   -946.82638    44.054377   -902.77201     1577.868    -2531.767    2.1701454    75.241517   0.13124935 
   62000   -948.15046    40.668695   -907.48177    1456.6052   -10112.417    2.1556098    76.014708   0.12071949 
   62100   -950.04954    41.714151   -908.33539    1494.0496    5148.2194    2.1985785    78.429716   0.12069675 
   62200   -947.61571    47.159976   -900.45574    1689.0993     7789.133    2.1927643    83.716841   0.11897853 
   62300   -946.79695    43.224417   -903.57253    1548.1419   -5610.7769    2.1634234    74.522809    0.1268545 
   62400   -947.26571    40.864631   -906.40108    1463.6229   -3782.3048     2.168943    81.559598   0.11568758 
   62500   -955.58442    41.358748   -914.22567    1481.3203    5567.2754    2.2122223    73.831614   0.11834905 
   62600   -948.36314    43.106422   -905.25672    1543.9157    858.88613    2.1845527    75.287281   0.12162702 
   62700   -948.64231    44.901678   -903.74063    1608.2153   -4024.5383    2.1693553    78.377217   0.12748848 
   62800   -948.76376    46.302215   -902.46155    1658.3774   -1712.4145    2.1768702    75.226903   0.12440149 
   62900   -948.99497    45.927647   -903.06732    1644.9618    4358.7483    2.1918865    77.778955   0.11133419 
   63000   -954.49634    42.849757   -911.64658    1534.7229    2550.2517    2.2027873    76.658302     0.123659 
   63100   -950.06918    45.488268   -904.58091    1629.2248     -10315.3    2.1588943    77.374474   0.11726701 
   63200   -946.28904    44.189562   -902.09947    1582.7099   -2087.6843    2.1686413    79.306679   0.11182188 
   63300   -945.32113    43.308998   -902.01213    1551.1712    13136.432    2.2087614    75.855572   0.13312513 
   63400   -950.65406     39.71545   -910.93861    1422.4634    6448.4087    2.2067357    72.624478   0.12155662 
   63500   -945.92925    43.028271   -902.90098    1541.1166   -15643.404     2.136895    80.618167   0.13194144 
   63600   -946.85113    44.794903   -902.05623     1604.391   -2661.4925     2.173715    74.549598   0.14317848 
   63700   -948.06038    44.121678    -903.9387    1580.2785    13919.435     2.214272    74.726458   0.11684209 
   63800   -951.56502    40.148048   -911.41697    1437.9575     838.0873    2.1911007    77.341257   0.11015435 
   63900   -946.19278    39.415363   -906.77741    1411.7154   -4744.9781    2.1675934    77.416955   0.12940557 
   64000   -945.35829    42.087955   -903.27034    1507.4379    4714.6241    2.1869288    75.406012   0.11618294 
   64100   -949.67052    47.320015   -902.35051    1694.8313    610.04158    2.1874138    76.760668   0.11636452 
   64200   -948.00169    43.812068   -904.18963    1569.1894   -4011.7839    2.1729555    76.347901   0.11117607 
   64300   -951.12772    38.966607   -912.16111    1395.6426    226.91431    2.1926758    76.097742   0.11766979 
   64400   -948.44896    44.698856   -903.75011    1600.9509    830.97007    2.1824335    79.592358   0.11811907 
   64500   -947.99354    45.723505   -902.27004    1637.6501   -2223.8302     2.177462    76.508344   0.13463593 
   64600   -948.36005    45.702276   -902.65777    1636.8898   -2502.7899     2.176388    81.349267   0.12907159 
   64700   -953.41443    42.149818   -911.26461    1509.6536    4989.6202    2.2022249    74.988144   0.11139836 
   64800   -947.96982    44.249073   -903.72074    1584.8413   -1352.4348    2.1759867    78.980318   0.12339827 
   64900   -947.94225    45.807865   -902.13438    1640.6716   -5726.3906     2.164289    80.830338   0.12084908 
   65000   -945.92136    42.240509   -903.68085    1512.9019    5970.3381     2.190796    76.322996   0.12361661 
   65100   -951.85713     41.72281   -910.13432    1494.3598    11258.582    2.2203795    75.481455   0.11381482 
   65200   -948.58097    46.676221   -901.90474     1671.773   -9446.5903    2.1560174    77.547404   0.11274812 
   65300   -947.34852    44.504886   -902.84363    1594.0036   -11027.719    2.1514569    80.263377   0.12856076 
   65400   -947.79473    42.632031    -905.1627    1526.9247    10614.296    2.2076579    73.614029   0.12343024 
   65500   -954.18133    41.446453   -912.73488    1484.4616    7496.0172    2.2171717    75.982742   0.12352085 
   65600   -946.01222    42.937093   -903.07513    1537.8509   -8602.9757    2.1522122    76.021567   0.12217268 
   65700   -949.95476    47.072546   -902.88221    1685.9679    -4054.761    2.1708575    78.020888   0.12111252 
   65800   -949.49207     47.23047    -902.2616    1691.6241    4561.6583    2.1947149    78.104425   0.12929763 
   65900   -950.11432    42.313103   -907.80121    1515.5019    -498.7507    2.1845573    73.430065   0.11731164 
   66000   -951.79269    41.999298   -909.79339    1504.2625   -4817.6373     2.175766    70.877176   0.11857531 
   66100   -948.69922    45.443761   -903.25546    1627.6307    774.81644    2.1815977    76.125876    0.1223412 
   66200   -945.85248    43.902715   -901.94976     1572.436    3784.0975     2.184536    77.543192   0.12474745 
   66300   -950.16026    43.594876   -906.56539    1561.4104   -2968.1829    2.1794357    81.932534   0.12965742 
   66400   -951.40141      41.6178   -909.78361    1490.5987   -1951.2154    2.1855276    83.324403     0.117407 
   66500   -945.41347    43.026027   -902.38744    1541.0363    4188.4448    2.1821941    79.463575   0.11946107 
   66600   -946.98333    44.523545   -902.45978    1594.6719     1510.836    2.1803018    75.299569    0.1264872 
   66700   -948.30735    39.766114   -908.54123     1424.278   -1732.9223    2.1765264    72.353963   0.12849398 
   66800   -952.16428    44.010074   -908.15421    1576.2812   -135.20303    2.1868441    75.295933   0.12556042 
   66900   -950.24391    48.538177   -901.70573    1738.4615    5796.0546    2.1977491    73.227534    0.1238487 
   67000   -947.21772    44.056559   -903.16116    1577.9462   -4058.2349    2.1680763    79.143463   0.12897072 
   67100   -946.24302    41.859181   -904.38383    1499.2441   -9581.2251    2.1532435    83.006436   0.12819477 
   67200   -956.20447    43.867701   -912.33677     1571.182    8396.0599    2.2167825    82.082246   0.12532894 
   67300   -949.61103    46.038701   -903.57232    1648.9393    5359.3532     2.196401    77.614042   0.12292751 
   67400   -948.19928    45.512516   -902.68676    1630.0933   -8175.8323    2.1571727    75.062523    0.1202688 
   67500   -951.80454    49.019945   -902.78459    1755.7167    -8848.626    2.1603646    75.994262   0.11938162 
   67600   -948.88544    37.553396   -911.33204    1345.0264    11762.943    2.2109984    74.069445   0.10716125 
   67700   -948.74058    45.489571   -903.25101    1629.2715    2175.0332    2.1815886    76.239975   0.12172961 
   67800   -948.69794    46.229704   -902.46824    1655.7803   -6729.1241    2.1606856    76.851755   0.13694771 
   67900   -946.92719    42.514484   -904.41271    1522.7146    267.74336    2.1744718    75.661486   0.11714912 
   68000   -951.89619    40.581739   -911.31445    1453.4907    7307.5679    2.2064907    75.631729   0.12101173 
   68100   -950.00677    48.154683   -901.85209    1724.7261     -4018.24    2.1686823    83.484604   0.11615797 
   68200   -947.05608    44.440212   -902.61587    1591.6872   -5177.9566    2.1634209    73.948954   0.11840286 
   68300   -950.15501    45.791851   -904.36316     1640.098    2076.1972    2.1850225    74.114912      0.12495 
   68400    -953.7026    41.157541   -912.54506    1474.1139    7310.3367    2.2069761    72.074315   0.10454297 
   68500   -943.10073    39.012111   -904.08862    1397.2723    -5755.466    2.1545927     84.59629   0.12326847 
   68600     -947.954    44.860828   -903.09317    1606.7522   -4039.2754     2.168697    77.740507   0.12058073 
   68700   -951.89051    50.484153   -901.40636    1808.1593    12409.068     2.213136    76.628826  0.097409514 
   68800   -950.38291    42.004499   -908.37841    1504.4488    2665.7696    2.1913937    77.958242   0.12096207 
   68900   -950.41918    41.098533   -909.32065    1472.0004   -15174.909    2.1481708    74.073105   0.12011121 
   69000   -946.86315    43.878534   -902.98462      1571.57   -910.13191    2.1749071    79.245333   0.11870388 
   69100   -950.31529    48.187935   -902.12735    1725.9171    9153.2919    2.2060006    75.158789   0.13203233 
   69200   -951.94578    45.807946   -906.13783    1640.6745   -2752.1827    2.1829078    75.065762   0.10885757 
   69300    -950.9459    37.565728   -913.38017    1345.4681   -6396.1689    2.1741223    77.739143   0.12794463 
   69400   -948.07441    43.429328   -904.64508     1555.481   -2133.7971     2.175113    75.217603   0.11843953 
   69500   -947.62643     45.07465   -902.55178    1614.4105    7381.0489    2.2014159    76.314004    0.1332902 
   69600   -945.88777    43.069804   -902.81797    1542.6042    2239.6846       2.1818    85.285914   0.12712393 
   69700   -943.17548    48.122255   -895.05322    1723.5646   -6667.3453    2.1515719    78.718245   0.13396025 
   69800   -940.29874    43.027865   -897.27088    1541.1021    1600.8502    2.1709057    83.251477   0.14378304 
   69900   -947.28581    45.036272   -902.24954    1613.0359    2909.5343    2.1849042    76.667939   0.12540318 
   70000   -948.71129     45.18119    -903.5301    1618.2264    663.76101    2.1796264    82.322834   0.13537752 
   70100   -945.80546    50.169824   -895.63564    1796.9012   -1275.2858    2.1656158    75.083509   0.12908066 
   70200   -949.32487    48.294576   -901.03029    1729.7366    -3130.642    2.1747699    74.118945   0.12404758 
   70300   -947.22217    43.502898   -903.71927    1558.1161   -1895.5902    2.1710488    80.625722   0.13443343 
   70400    -947.8762    48.836438   -899.03977    1749.1441    249.03643    2.1763238    87.915629   0.14665691 
   70500    -945.6011    47.541186   -898.05991    1702.7529   -414.92552    2.1681141    83.966412   0.12794935 
   70600   -949.06946    42.370971   -906.69849    1517.5745   -1564.3409    2.1779413    80.310353    0.1241229 
   70700   -946.70516    43.796747   -902.90842    1568.6406    3918.1403    2.1834799    77.879704   0.12616547 
   70800   -945.21914    45.749096   -899.47004    1638.5667    4452.6702    2.1778855    75.633561   0.12095442 
   70900   -948.32098    42.282228   -906.03875    1514.3961   -4371.2311    2.1644041    77.550706   0.12329581 
[...]
  186800   -941.50998    42.419732   -899.09025     1519.321    -18305.38    2.1189372    154.11916    0.1362537 
  186900   -944.82078    42.327764   -902.49302     1516.027    1534.5948    2.1766039    147.25772   0.13979314 
  187000   -947.67282    45.091659   -902.58116    1615.0197    12709.256    2.2110662    159.92895   0.12795993 
  187100   -943.82192    41.619651   -902.20227     1490.665      787.261    2.1733938    144.07716   0.13114033 
  187200   -945.59984    53.434855   -892.16499    1913.8427   -12250.321    2.1382984    146.96801   0.13094069 
  187300   -950.06454    48.985778   -901.07876    1754.4929    4778.0606    2.1910386    152.54864   0.11064731 
  187400   -944.52438    41.684757   -902.83962    1492.9968    9041.9052    2.1918726     152.9845   0.13145148 
  187500   -947.24468    43.078993   -904.16568    1542.9333   -5961.8114    2.1627634    156.15817   0.13013896 
  187600   -944.32101    49.898528   -894.42248    1787.1843   -6636.2329    2.1527963    157.44225   0.13514675 
  187700   -946.86169    48.164027   -898.69766    1725.0608    8744.0558    2.1946964    144.58567    0.1195541 
  187800   -948.58024    45.508744    -903.0715    1629.9582   -1042.1527     2.177846    149.22377   0.11724226 
  187900    -947.5541    43.173518   -904.38058    1546.3188   -8198.9435    2.1578642    151.79097   0.11382059 
  188000   -942.80442    45.266744   -897.53768    1621.2906    3560.8293    2.1785549    143.56842   0.14331743 
  188100   -947.34542    50.064649   -897.28077    1793.1342     5675.999    2.1919901    150.55835   0.11999596 
  188200   -946.36243    43.187135    -903.1753    1546.8066   -4543.3024    2.1640324    154.05226   0.12414889 
  188300   -947.30775    43.634616   -903.67314    1562.8337   -8154.8286    2.1634183     148.9869   0.13014116 
  188400   -946.11752    49.160985   -896.95653    1760.7682    6945.1931    2.1892433    143.13881   0.12321163 
  188500   -945.73048    47.964212   -897.76626    1717.9041    3790.6071    2.1821813    143.42672   0.13296908 
  188600   -949.12733    45.120137    -904.0072    1616.0397   -7643.8945    2.1640181    149.91753   0.12869843 
  188700   -946.28979    43.623946   -902.66585    1562.4515   -433.12289    2.1776501     149.9111   0.13275645 
  188800   -942.43018    46.131896   -896.29828    1652.2772    4834.5826    2.1863628    151.67049   0.12684812 
  188900   -944.04948    45.670234   -898.37925    1635.7422   -2605.0043    2.1704755    145.55884   0.16241148 
  189000    -948.1491    44.152594    -903.9965    1581.3858   -5836.6084    2.1701131    150.29863   0.13410948 
  189100   -945.43436     43.13856    -902.2958    1545.0668    2884.8424    2.1857098    148.67868   0.13431701 
  189200   -941.90134    43.569869   -898.33147    1560.5147    5334.8633    2.1861229    146.68502   0.15693321 
  189300   -941.43521    47.812485   -893.62273    1712.4698   -4710.0157    2.1529235     148.6763   0.13233104 
  189400   -951.42643    48.465135   -902.96129    1735.8454   -4281.2222    2.1775524    146.17657   0.13848916 
  189500   -948.88631    46.011704    -902.8746    1647.9724    4758.9708    2.1963626    148.69077   0.13871815 
  189600   -947.27385    44.474331   -902.79952    1592.9093    2438.4187    2.1856456    152.95765   0.13016511 
  189700   -939.67323    47.429248   -892.24398    1698.7436   -6271.1341    2.1484501    155.61656   0.17056726 
  189800   -943.92094    43.574705   -900.34624    1560.6879    4259.2108    2.1864719    146.16704   0.14608961 
  189900    -946.3225    43.515641   -902.80686    1558.5725    5688.6026    2.1945815    147.75231   0.12725053 
  190000    -945.0156    40.625734   -904.38986    1455.0665   -1420.0409    2.1724538    143.56863   0.14006646 
  190100   -941.19592    45.887133   -895.30878    1643.5107   -3632.4148    2.1577798    148.14431   0.14666343 
  190200   -944.53029    45.894256   -898.63604    1643.7658    9981.1125    2.2028324    149.65006   0.14365276 
  190300   -943.84161    41.165907   -902.67571    1474.4135    3375.9192    2.1869987    147.62227   0.13676642 
  190400   -945.61634    41.365247   -904.25109    1481.5531   -17843.283    2.1349731    142.81977   0.13957779 
  190500    -946.5808     49.26232   -897.31848    1764.3976   -3679.9355    2.1708518    151.45553    0.1244462 
  190600   -943.16923    44.835392   -898.33384    1605.8412    20637.057     2.224915    149.10838   0.12892693 
  190700   -947.37481    42.811754   -904.56305    1533.3618   -1691.1675    2.1780542    152.14877   0.13785958 
  190800   -945.28178    42.147376   -903.13441    1509.5662   -10008.227    2.1546658    146.16947    0.1201535 
  190900    -942.1844    43.781836   -898.40257    1568.1066    3760.1538    2.1839866    149.37496      0.14377 
  191000   -951.35129    46.221741   -905.12955    1655.4951    3970.2932    2.2017942    142.68788   0.12562717 
  191100   -949.73949     43.08349     -906.656    1543.0944   -5336.3186    2.1754039    153.59939   0.12811456 
  191200   -944.17997    41.532598   -902.64737     1487.547   -2387.2594    2.1728615    147.34403   0.14141999 
  191300   -946.19086    46.488381   -899.70248    1665.0452    5638.4825    2.1906942    147.90016   0.12844715 
  191400   -953.00581     43.79236   -909.21345    1568.4835    3231.0494    2.2033741    153.07226   0.11988065 
  191500   -945.84434     40.92264    -904.9217    1465.7006   -7178.8001    2.1656938    153.02345   0.12363676 
  191600   -944.68405    43.283312   -901.40073    1550.2513   -3492.7707    2.1721418     148.7344   0.14033429 
  191700   -950.36819    46.317595   -904.05059    1658.9283    5741.9245    2.2036184    146.87087   0.13457961 
  191800   -950.59867    40.719181   -909.87948    1458.4134    4671.3049    2.2012899     148.6384   0.13081693 
  191900      -944.43    42.835786   -901.59421    1534.2225   -8054.2163    2.1566917     148.7339   0.14531877 
  192000   -947.86856    45.385867   -902.48269    1625.5572   -4004.4245    2.1716269    149.94474   0.13416913 
  192100   -952.63592    45.295999   -907.33992    1622.3384    10384.994    2.2198068    152.34062   0.12794022 
  192200   -943.32675      43.7145   -899.61225    1565.6948    2886.9593    2.1842887    145.52851   0.14791913 
  192300   -946.36551    46.027306   -900.33821    1648.5312   -11952.588    2.1457764    151.52441   0.13385679 
  192400   -951.82177    47.089496   -904.73227     1686.575   -4929.6674      2.17482    150.71815   0.11217039 
  192500   -951.73386    49.374372   -902.35949     1768.411    16731.634    2.2325153    144.16189   0.12872175 
  192600   -943.23459    48.545742   -894.68885    1738.7324    736.17775    2.1710221    144.20393   0.13539019 
  192700   -943.92058    40.955402   -902.96518     1466.874   -11614.794    2.1451996    142.19081   0.15501711 
  192800   -947.49686    43.637195   -903.85967    1562.9261    670.95846     2.180048    140.88924   0.14883202 
  192900    -946.3645    47.080683   -899.28382    1686.2593    10149.884    2.1958792    151.11417   0.13083691 
  193000   -945.43428    48.765222   -896.66906    1746.5934   -2312.4565    2.1636392     149.4101   0.14157605 
  193100   -947.95046    42.497348   -905.45311    1522.1009     -1248.59    2.1767726    148.45637   0.13940203 
  193200   -945.50633    42.635557   -902.87078     1527.051    2630.3398    2.1858153    151.05707   0.14170714 
  193300   -943.94288    44.402724   -899.54016    1590.3446     3147.706    2.1799797    155.31677   0.14044436 
  193400   -948.52022    48.546844   -899.97338    1738.7719   -4875.6392    2.1658158     153.5632   0.13985804 
  193500    -948.7918    41.653445   -907.13836    1491.8753    2066.4278    2.1885322    142.84821   0.12758705 
  193600   -946.75804    43.570499   -903.18754    1560.5373    6776.9167    2.1971079    147.72287   0.14734926 
  193700   -945.96123    44.717122   -901.24411    1601.6051   -1233.7666    2.1730901    143.08545   0.14963899 
  193800   -944.16055    45.948943   -898.21161    1645.7245   -9454.1118    2.1513947    147.60549   0.14178644 
  193900   -952.54396    43.826304   -908.71765    1569.6993    3797.7175    2.2040709    144.55833   0.12722029 
  194000   -949.67688    44.320434   -905.35644    1587.3972    4107.3249    2.1933699    149.14244   0.14221128 
  194100   -943.34334    40.914674   -902.42867    1465.4152   -4983.3896    2.1592422    150.11283   0.15565237 
  194200   -946.94097    46.811331   -900.12964    1676.6121   -6054.0943    2.1585786     144.6342   0.13820109 
  194300   -949.28465    39.696903   -909.58775    1421.7991    14068.961    2.2210218    145.21557    0.1341774 
  194400   -947.34077    43.609326   -903.73144    1561.9279    1588.3635    2.1863627    146.36618   0.12958855 
  194500   -947.61225    45.680498   -901.93176    1636.1098    -15443.85    2.1411863    152.02051   0.15010542 
  194600   -945.95852     42.25661   -903.70191    1513.4785   -1823.7066    2.1737441    149.38023   0.14727967 
  194700   -948.59592     39.95643   -908.63949    1431.0944    20867.941     2.234955    144.15908   0.13588722 
  194800   -945.96328    46.079681    -899.8836    1650.4071    -1697.884    2.1702435    153.10318   0.14759095 
  194900   -949.29902    46.563186   -902.73583    1667.7245   -10907.489    2.1532442    153.16169   0.13471613 
  195000   -949.59436    43.841961    -905.7524      1570.26    1196.2126    2.1882675    155.09235   0.12944543 
  195100   -948.70388    44.861474    -903.8424    1606.7753    7334.7712     2.199576    156.42706   0.14263993 
  195200   -946.67666     48.53537   -898.14129    1738.3609   -5000.7576    2.1630922    160.03717   0.13468778 
  195300   -947.40715    44.020829   -903.38632    1576.6664   -6194.8516    2.1643515    152.18037   0.14130118 
  195400   -949.96714    45.458189   -904.50895    1628.1475     1437.945    2.1906014    144.35807   0.13745228 
  195500   -942.73293     47.60909   -895.12384    1705.1849    7520.0498    2.1856802    145.87384    0.1425427 
  195600   -947.59176    47.145998   -900.44577    1688.5987   -2482.3019     2.173506    149.18983   0.13525626 
  195700   -949.87475    45.121779   -904.75297    1616.0985   -7158.9025    2.1631529    148.99895   0.12143596 
  195800   -944.58028    45.072924   -899.50736    1614.3487    4855.7962    2.1838051    144.47264   0.14149361 
  195900   -941.74638    45.888713   -895.85766    1643.5673    8391.4645    2.1838709    153.77304   0.12923945 
  196000   -950.02848    45.126869   -904.90161    1616.2808   -2567.5949    2.1781993    149.95923   0.12780054 
  196100   -950.35483    47.231972   -903.12286     1691.678   -5705.8691    2.1694376    153.33245   0.12813369 
  196200   -945.55931    47.522812   -898.03649    1702.0948    2890.9145    2.1805115    147.22756   0.12123535 
  196300   -948.39981    42.892062   -905.50775    1536.2381    6695.1032    2.1979938    141.04729   0.13341979 
  196400    -948.2028    42.311844   -905.89096    1515.4568   -10197.896    2.1574539    150.30839     0.131092 
  196500   -946.53589    44.140765   -902.39513    1580.9621    -5159.707    2.1648493    142.32201   0.12653505 
  196600   -945.94845    47.784807   -898.16364    1711.4785    15151.015    2.2128377    146.84436   0.12831692 
  196700   -953.09833    45.935722   -907.16261     1645.251    2174.4279    2.1953244    146.65641   0.10708041 
  196800   -949.09228    43.469621   -905.62266    1556.9242   -14917.339    2.1441991    152.03882   0.12963328 
  196900   -947.31514    45.892322   -901.42282    1643.6965   -2192.3274     2.173581    153.11278   0.13510875 
  197000   -948.84625      45.3734   -903.47285    1625.1106    9419.4955    2.2080463    155.96894   0.12483902 
  197100   -950.06894    39.557404   -910.51154    1416.8027    3700.3376    2.1978262     144.7463   0.12583059 
  197200   -949.16279    47.217425   -901.94536    1691.1569   -10973.066    2.1542838    150.90266   0.12335414 
  197300   -943.33096    41.615422   -901.71554    1490.5135    3221.0179    2.1792686    142.64685   0.12574792 
  197400   -951.08928    43.496145   -907.59313    1557.8742    7896.2652    2.2075524    147.41235   0.11262724 
  197500   -949.60701    44.432148   -905.17486    1591.3984    57.741482    2.1841432    141.92219   0.11423655 
  197600   -948.33609     47.78347   -900.55262    1711.4306   -8488.9551    2.1572331    149.02146   0.10508808 
  197700   -949.22931    45.291346   -903.93797    1622.1718   -505.58526    2.1765735    146.06757   0.11132203 
  197800   -949.20465    43.637614   -905.56704    1562.9411    8151.9534    2.2022801    152.70901   0.11263112 
  197900   -944.15332     48.53639   -895.61693    1738.3975   -3080.5049    2.1611408    153.13792   0.12075093 
  198000   -949.36754    47.094866   -902.27267    1686.7673   -7231.7834    2.1629717    152.91693   0.12489823 
  198100   -951.66802    46.938577   -904.72945    1681.1696   -1409.1943    2.1864237    143.99169   0.11458557 
  198200   -944.98888    45.822934   -899.16594    1641.2113    8184.4256    2.1934526    146.48186   0.11638206 
  198300   -941.19107    43.010268   -898.18081    1540.4718   -3907.5595     2.158299    147.46691   0.11541992 
  198400   -948.28552    42.339787   -905.94574    1516.4576   -13684.195    2.1492712    146.87882    0.1197515 
  198500   -948.09338    45.890209   -902.20317    1643.6208    7908.5253    2.2040846    155.64046   0.11839873 
  198600   -947.19739    50.428065   -896.76932    1806.1504    15254.041    2.2110588    145.48149   0.11934527 
  198700   -943.91787     41.90526   -902.01261    1500.8945   -10122.591    2.1440651     155.4476   0.11911132 
  198800   -950.53714    44.289394   -906.24775    1586.2855   -9810.3274    2.1592939     149.6482   0.12032053 
  198900   -945.86442    46.165113   -899.69931    1653.4669    8186.3319    2.1926672    146.95866   0.12247649 
  199000   -942.04539    38.975235   -903.07015    1395.9516    7790.6267    2.1906748    151.00059   0.12579297 
  199100    -950.5429    41.986095   -908.55681    1503.7897   -4224.2562    2.1754771    144.16542   0.12651487 
  199200   -945.64574    44.156599   -901.48914    1581.5292   -2179.2611     2.168165    152.58929   0.12492194 
  199300   -947.34334    46.211404   -901.13194    1655.1249    5284.8746    2.1891598    152.01319   0.12940259 
  199400   -953.21362    44.332494   -908.88112    1587.8292    2813.0856    2.1966836    151.56465   0.10735468 
  199500   -947.72366    46.789143   -900.93452    1675.8174   -7619.6312     2.157713    154.14319   0.13507755 
  199600   -947.66003    46.129729    -901.5303    1652.1996   -3214.9229    2.1700521    153.36588   0.13241745 
  199700   -950.19643    43.407785   -906.78864    1554.7094    8318.5536    2.2038219    148.53198   0.11739173 
  199800   -946.16601    46.041962   -900.12405    1649.0561    3661.8692    2.1830315     149.1871   0.13305777 
  199900   -945.81849     45.74597   -900.07252    1638.4547   -6401.7421    2.1576568    143.44518   0.12988078 
  200000   -949.22544    43.464927   -905.76051     1556.756   -3143.1377    2.1756211    150.36427   0.12115861 
  200100    -945.3228    42.829951   -902.49285    1534.0135    10997.187    2.2014875     147.1659    0.1338874 
  200200   -944.07905    47.582383   -896.49667    1704.2284   -145.08386    2.1695897     152.5703   0.11987783 
  200300   -949.42005    44.594872   -904.82518    1597.2266   -10846.292    2.1508707    154.54263    0.1217073 
  200400   -948.37955     44.97843   -903.40112    1610.9643    133.02091    2.1804728    149.89088   0.13451235 
  200500   -944.21603    48.136286   -896.07975    1724.0672    12174.302    2.2025833     139.2312   0.12911583 
  200600    -942.5932    39.706539   -902.88666    1422.1442    2739.3013    2.1775521    140.17293   0.14738437 
  200700   -950.50187    44.862285   -905.63958    1606.8044   -15245.241    2.1466071    145.02487    0.1206001 
  200800   -946.65504    46.751403   -899.90364    1674.4657    1613.9842    2.1817641    147.28024   0.12905016 
  200900   -949.89737     45.29387    -904.6035    1622.2622    6691.7514    2.2014131    146.81168   0.12407811 
  201000   -947.57739    39.339271   -908.23812      1408.99    1382.4385    2.1843519    151.90051    0.1193179 
  201100   -944.24095    42.658117   -901.58283    1527.8591   -2597.2635    2.1658517    149.48986     0.132866 
  201200   -946.01541    43.762903   -902.25251    1567.4285    263.22298    2.1773667    150.30632   0.12909662 
  201300   -952.55378    42.721809   -909.83197    1530.1403    4234.3789    2.2002485    140.74034   0.12433866 
  201400   -943.52703    42.439659   -901.08737    1520.0347    340.23593     2.167922    151.02086   0.12065771 
  201500   -944.90967    42.974692   -901.93498    1539.1976   -1191.2697    2.1704327    145.11851   0.12805002 
  201600   -950.54607    43.022796   -907.52328    1540.9205    3440.2221    2.1939708    145.68376   0.10787129 
  201700   -945.94877     42.59787    -903.3509    1525.7012    5621.1798    2.1884379    146.36387   0.12879375 
  201800    -949.1955    49.068258   -900.12724    1757.4471   -6980.3318    2.1619156    141.69201   0.12609206 
  201900   -948.41526    43.501511   -904.91375    1558.0664   -5315.1114    2.1666053     150.7579   0.12353399 
  202000    -945.7343    41.737771   -903.99653    1494.8956    7175.0135    2.1950549    149.02413   0.13193149 
  202100   -940.81604    44.964976   -895.85107    1610.4824    4688.4621    2.1778614     147.3133   0.12894454 
  202200   -947.71732    44.155919    -903.5614    1581.5049   -8879.3547    2.1619654    144.85487   0.13583292 
  202300   -946.29257    41.901056   -904.39152    1500.7439   -2918.8686    2.1685759    148.19414   0.12252573 
  202400   -946.94573    50.808274   -896.13746    1819.7681    9795.0926    2.1951374    142.16365   0.11590148 
  202500   -944.48124    43.358873   -901.12237    1552.9576    8500.4927    2.1933808    148.67043   0.13124961 
  202600   -945.56085    39.854906   -905.70594    1427.4582   -12181.785    2.1440896    148.28405   0.13379144 
  202700   -945.31952    44.107166   -901.21235    1579.7587   -5498.2726    2.1607622    148.08936   0.13855678 
  202800   -943.43367    44.815977   -898.61769    1605.1458    13483.617    2.2031925    142.91682   0.12247674 
  202900   -950.62361    42.308885   -908.31472    1515.3508    5313.5624    2.1998122    143.18027   0.12992684 
  203000    -948.3281    44.292195   -904.03591    1586.3858    -9996.963    2.1581802    153.08027   0.12290822 
  203100   -944.97074    44.059717   -900.91102    1578.0593   -1929.9682    2.1714354    147.53403    0.1389163 
  203200   -950.33794    41.908651   -908.42929    1501.0159    4999.9017    2.2019543    143.79349   0.12124515 
Loop time of 143.147 on 1 procs for 200000 steps with 217 atoms

Performance: 362.146 ns/day, 0.066 hours/ns, 1397.169 timesteps/s
100.0% CPU use with 1 MPI tasks x no OpenMP threads

MPI task timing breakdown:
Section |  min time  |  avg time  |  max time  |%varavg| %total
---------------------------------------------------------------
Pair    | 138.48     | 138.48     | 138.48     |   0.0 | 96.74
Neigh   | 1.532      | 1.532      | 1.532      |   0.0 |  1.07
Comm    | 0.88945    | 0.88945    | 0.88945    |   0.0 |  0.62
Output  | 0.068646   | 0.068646   | 0.068646   |   0.0 |  0.05
Modify  | 1.8549     | 1.8549     | 1.8549     |   0.0 |  1.30
Other   |            | 0.3197     |            |       |  0.22

Nlocal:    217 ave 217 max 217 min
Histogram: 1 0 0 0 0 0 0 0 0 0
Nghost:    951 ave 951 max 951 min
Histogram: 1 0 0 0 0 0 0 0 0 0
Neighs:    4172 ave 4172 max 4172 min
Histogram: 1 0 0 0 0 0 0 0 0 0
FullNghs:  8344 ave 8344 max 8344 min
Histogram: 1 0 0 0 0 0 0 0 0 0

Total # of neighbors = 8344
Ave neighs/atom = 38.4516
Neighbor list builds = 2584
Dangerous builds = 40
Total wall time: 0:02:25
