LAMMPS (3 Mar 2020)
Reading data file ...
  orthogonal box = (0 0 0) to (16.36 16.36 16.36)
  1 by 1 by 1 MPI processor grid
  reading atoms ...
  256 atoms
  read_data CPU = 0.000990618 secs
Reading potential file /usr/share/lammps-stable/potentials/Ag_u3.eam with DATE: 2007-06-11
Neighbor list info ...
  update every 1 steps, delay 10 steps, check yes
  max neighbors/atom: 2000, page size: 100000
  master list distance cutoff = 7.55
  ghost atom cutoff = 7.55
  binsize = 3.775, bins = 5 5 5
  2 neighbor lists, perpetual/occasional/extra = 1 1 0
  (1) pair eam, perpetual
      attributes: half, newton on
      pair build: half/bin/atomonly/newton
      stencil: half/bin/3d/newton
      bin: standard
  (2) compute rdf, occasional, copy from (1)
      attributes: half, newton on
      pair build: copy
      stencil: none
      bin: none
Setting up Verlet run ...
  Unit style    : metal
  Current step  : 0
  Time step     : 0.005
Per MPI rank memory allocation (min/avg/max) = 3.744 | 3.744 | 3.744 Mbytes
Step PotEng KinEng TotEng Temp Press Density c_msdall[4] 
       0       -729.6    82.403342   -647.19666         2500    20100.774    10.472245            0 
     100   -675.06497     54.03462   -621.03035    1639.3334    90095.098    10.472245   0.13037703 
     200   -653.18282    73.012406   -580.17042    2215.0924    125904.65    10.472245    0.2264633 
     300   -637.68743    85.940641   -551.74679    2607.3166    148987.45    10.472245    0.2963969 
     400   -647.00403    91.560079   -555.44396    2777.8023    136179.55    10.472245   0.26360392 
     500   -645.92662    75.089061   -570.83756    2278.0951    133374.26    10.472245   0.25008706 
     600   -641.76419    82.016297   -559.74789    2488.2576    140712.08    10.472245   0.23219074 
     700   -641.94458    84.212361   -557.73222     2554.883    140900.79    10.472245   0.27921323 
     800   -645.40551    80.417547   -564.98797    2439.7538    134603.39    10.472245   0.24709653 
     900   -644.20796    83.294179   -560.91378    2527.0267    138301.16    10.472245   0.27290401 
    1000   -641.32226    84.978975   -556.34328     2578.141     145474.3    10.472245   0.26773622 
    1100   -646.33749    76.087523   -570.24997     2308.387    133918.77    10.472245   0.23023844 
    1200   -644.70647    83.374537   -561.33193    2529.4646    138382.97    10.472245   0.22033934 
    1300   -643.15084    84.578767   -558.57207    2565.9993    138647.67    10.472245   0.29108336 
    1400   -641.11475    81.266359   -559.84839    2465.5055    141427.54    10.472245   0.28699369 
    1500   -642.99873    81.302897   -561.69583    2466.6141    140881.74    10.472245   0.25857731 
    1600   -648.05654    80.747404   -567.30914    2449.7612    132808.18    10.472245   0.24641013 
    1700   -634.36135    82.233437   -552.12791    2494.8453    152768.25    10.472245   0.35964749 
    1800   -634.14422    81.962258   -552.18196    2486.6181    152700.78    10.472245   0.45681385 
    1900   -642.77746     78.70536    -564.0721    2387.8085    140993.27    10.472245    0.4805105 
    2000    -633.7519    84.548022   -549.20388    2565.0665     153258.4    10.472245    0.7355391 
    2100   -632.71592    82.263941   -550.45198    2495.7708    152563.15    10.472245   0.86340001 
    2200   -635.35378    81.733326   -553.62046    2479.6727     150060.8    10.472245   0.99618556 
    2300   -635.52749    88.969863   -546.55762    2699.2189    152248.23    10.472245   0.89798082 
    2400   -645.19393    84.567447   -560.62648    2565.6559    138415.32    10.472245   0.86036533 
    2500   -638.37581    75.944663   -562.43115    2304.0529    146579.87    10.472245   0.92727715 
    2600   -630.81498    81.484211   -549.33077    2472.1149    156597.16    10.472245   0.95968062 
    2700   -646.05404    86.736777   -559.31726    2631.4702    137466.07    10.472245   0.92522668 
    2800   -646.75328    83.393134   -563.36014    2530.0289     134689.2    10.472245   0.88151167 
    2900   -636.94611    79.418721   -557.52739    2409.4508    146373.85    10.472245   0.91779187 
    3000   -637.52695    80.723436   -556.80352     2449.034    145754.07    10.472245   0.93368186 
    3100    -650.1105    80.189307    -569.9212    2432.8293    127464.91    10.472245   0.87090172 
    3200   -641.42748    82.475198   -558.95229      2502.18    139400.49    10.472245   0.91152281 
    3300   -635.52607    80.723909   -554.80216    2449.0484    147307.55    10.472245    1.0181796 
    3400   -644.20009    82.088232   -562.11186      2490.44    138464.71    10.472245   0.90511074 
    3500   -647.07465    81.123353    -565.9513     2461.167       132746    10.472245   0.93864488 
    3600   -636.95108    82.562157   -554.38893    2504.8182    145827.68    10.472245   0.97244655 
    3700   -645.14056    81.550896   -563.58967     2474.138     136951.8    10.472245    1.0110222 
    3800   -645.30062    82.375954   -562.92466    2499.1691    137187.75    10.472245   0.91213277 
    3900   -637.39092    82.716521    -554.6744    2509.5014    146282.56    10.472245    1.0675872 
    4000   -646.44648    80.738638   -565.70784    2449.4952    134859.21    10.472245   0.96166216 
    4100   -652.55458    76.473392   -576.08119    2320.0937    126848.19    10.472245   0.94478981 
    4200   -641.98205    83.474493   -558.50755    2532.4972    139781.41    10.472245   0.97197026 
    4300   -637.52055    74.194176   -563.32638    2250.9456    144469.76    10.472245    1.0120952 
    4400     -641.168    77.416217   -563.75179    2348.6977     141053.8    10.472245   0.98158075 
    4500   -637.16533     83.59353   -553.57181    2536.1086    147397.86    10.472245    1.0080518 
    4600   -639.67247    73.407653   -566.26482    2227.0836    140952.97    10.472245   0.96130546 
    4700   -644.84228    79.637238   -565.20504    2416.0803    134870.91    10.472245   0.98449495 
    4800   -642.71463    90.638401   -552.07623      2749.84    141951.82    10.472245   0.98123776 
    4900   -638.05397    79.915121   -558.13885    2424.5109    144201.57    10.472245    1.0137421 
    5000   -643.90058    72.312952   -571.58763    2193.8719    137782.99    10.472245   0.94711281 
    5100    -652.8374    76.546391   -576.29101    2322.3084    124374.58    10.472245    1.0036774 
    5200   -642.40768    82.469836   -559.93785    2502.0173    138808.44    10.472245   0.98870955 
    5300   -644.36713     86.88332   -557.48381    2635.9161    136752.42    10.472245    1.0509922 
    5400    -646.1534    80.416306   -565.73709    2439.7161    135211.64    10.472245    1.0019688 
    5500   -646.19738    78.422078    -567.7753    2379.2141    133940.08    10.472245   0.95905772 
    5600   -639.76213    85.509184   -554.25295    2594.2268    142589.52    10.472245    1.0160254 
    5700   -648.45615    86.662108   -561.79404    2629.2049    134389.59    10.472245   0.97760478 
    5800   -651.81332    80.455972   -571.35734    2440.9196    127619.25    10.472245   0.85268165 
    5900   -643.83308    85.251138   -558.58194    2586.3981    137480.59    10.472245    1.0165545 
    6000   -640.02766    81.752504   -558.27516    2480.2545    142902.83    10.472245    1.0283014 
    6100   -652.03636    76.878929   -575.15743    2332.3972    126778.58    10.472245   0.99771905 
    6200    -646.6117    79.782304    -566.8294    2420.4814    133822.16    10.472245    0.9354029 
    6300   -646.68325     85.44729   -561.23596     2592.349    134903.29    10.472245   0.93799238 
    6400    -648.4651    80.552553   -567.91255    2443.8497    133265.63    10.472245   0.93783248 
    6500   -650.11315    77.518876   -572.59427    2351.8123    129574.81    10.472245   0.95707054 
    6600   -643.62281    81.924234   -561.69858    2485.4645    139780.48    10.472245   0.94654991 
    6700   -645.05334    85.284537    -559.7688    2587.4113    138039.87    10.472245   0.94625803 
    6800   -648.32367    76.970328   -571.35334    2335.1701    130873.92    10.472245   0.90894637 
    6900   -643.74712    83.862524   -559.88459    2544.2695    141061.86    10.472245    1.0362094 
    7000   -638.26411    85.231489   -553.03262    2585.8019    147089.07    10.472245    1.0909884 
    7100   -650.44122    86.526652   -563.91457    2625.0953    131593.52    10.472245   0.96023865 
    7200   -644.22981     75.24101    -568.9888     2282.705    137456.97    10.472245   0.99367967 
    7300   -642.57389    83.508316   -559.06557    2533.5233    141216.52    10.472245    1.0147726 
    7400   -642.25651    82.058719    -560.1978    2489.5446    141613.43    10.472245   0.99139767 
    7500   -648.77078    90.112457   -558.65833    2733.8835    134574.38    10.472245   0.98389285 
    7600   -641.34254    87.724794   -553.61775    2661.4453    143469.05    10.472245   0.89663549 
    7700    -646.0291    79.203162   -566.82593    2402.9111    135463.17    10.472245   0.98034354 
    7800   -644.01122    78.576737   -565.43448    2383.9062    135881.05    10.472245   0.97694998 
    7900   -636.09593    86.101441   -549.99448    2612.1951    149166.52    10.472245   0.97975721 
    8000   -643.10158    78.936503   -564.16508     2394.821    139138.73    10.472245      1.01051 
    8100   -640.38844    83.656339    -556.7321    2538.0141    143000.01    10.472245    1.0100034 
    8200   -632.99415    86.164672   -546.82947    2614.1134    153511.57    10.472245    1.1869354 
    8300   -633.74971    75.139142   -558.61057    2279.6145    151493.32    10.472245    1.0844198 
    8400   -644.97384    80.407461   -564.56638    2439.4478    135408.41    10.472245   0.96822155 
    8500   -644.75516    79.309352   -565.44581    2406.1327    136212.76    10.472245   0.99325816 
    8600   -638.75099    85.638591    -553.1124    2598.1528     143683.6    10.472245    1.0001939 
    8700   -649.88065    84.120535   -565.76012    2552.0972    132501.19    10.472245   0.97444559 
    8800   -640.29255    77.025002   -563.26755    2336.8288    142662.56    10.472245   0.93382647 
    8900   -634.50672    89.428588   -545.07814    2713.1359    151932.83    10.472245     1.042241 
    9000   -639.81011    88.206669   -551.60344    2676.0647    145947.43    10.472245    1.0752173 
    9100   -640.85348     79.67453   -561.17895    2417.2117    142568.89    10.472245    1.1118602 
    9200   -648.16929    88.109884   -560.05941    2673.1283    134541.68    10.472245    1.1030631 
    9300   -642.08089    84.302234   -557.77866    2557.6097    142155.53    10.472245    1.1103048 
    9400   -635.04173    82.632511   -552.40922    2506.9527    150376.15    10.472245    1.2568101 
    9500    -619.8324    77.549762   -542.28264    2352.7493    165688.85    10.472245    1.4780372 
    9600   -640.81802    83.041603   -557.77642    2519.3639    142485.26    10.472245    1.2596156 
    9700    -634.7626    75.397661   -559.36494    2287.4576    147473.58    10.472245    1.4530289 
    9800   -630.64216    84.467556    -546.1746    2562.6253    155791.31    10.472245    1.4888722 
    9900   -643.63247    83.402619   -560.22985    2530.3166       137826    10.472245    1.4585013 
   10000   -646.20024    81.818011   -564.38223    2482.2419    134560.08    10.472245    1.4335908 
   10100   -634.48344    83.343203   -551.14023     2528.514    150052.57    10.472245    1.4354355 
   10200   -639.11101    77.964989   -561.14602    2365.3467    144780.51    10.472245    1.3858783 
   10300   -641.28926    76.827659    -564.4616    2330.8417    139644.97    10.472245    1.4976409 
   10400   -638.76772    81.271345   -557.49638    2465.6568    145466.68    10.472245     1.461648 
   10500   -631.40109    83.581228   -547.81986    2535.7354    156697.64    10.472245    1.5518579 
   10600   -642.64964    81.177626   -561.47202    2462.8135    138567.25    10.472245    1.7149525 
   10700   -632.89891    82.447423   -550.45149    2501.3373    149721.72    10.472245    1.8005258 
   10800    -637.8098    87.549019   -550.26078    2656.1125    147789.26    10.472245    1.8988552 
   10900   -641.51801    79.193596   -562.32442    2402.6209    141102.21    10.472245    2.0357627 
   11000   -645.05283    81.361455   -563.69138    2468.3906    135941.08    10.472245    1.8283346 
   11100   -649.66927    95.893235   -553.77604    2909.2641    133514.42    10.472245     1.762547 
   11200   -648.10331    80.785662   -567.31765    2450.9219    133460.99    10.472245    1.9702586 
   11300   -641.23899     76.74577   -564.49322    2328.3573    141292.24    10.472245    1.7873761 
   11400   -643.40016    84.827583   -558.57258     2573.548    140066.72    10.472245    1.9620835 
   11500   -639.69149    79.116855   -560.57464    2400.2926    143922.46    10.472245    1.8237514 
   11600   -646.54505    86.264782   -560.28027    2617.1506    135866.18    10.472245     1.923828 
   11700   -638.85797    88.400741   -550.45722    2681.9525    147042.94    10.472245    1.9091982 
   11800   -646.54075    86.143429   -560.39732    2613.4689    136243.55    10.472245    1.8127931 
   11900   -645.85245    80.161324   -565.69112    2431.9804    135574.23    10.472245    1.9743028 
   12000    -640.5761    85.787613   -554.78849    2602.6739    144336.51    10.472245    1.9197823 
   12100    -640.4615    82.077558   -558.38394    2490.1162    140868.74    10.472245    1.8302254 
   12200   -654.91981    87.997106   -566.92271    2669.7068    125367.51    10.472245    1.7358634 
   12300   -644.35357    78.464028   -565.88954    2380.4868    137665.89    10.472245    1.8135508 
   12400   -642.36247     84.16573   -558.19673    2553.4683    142138.77    10.472245    1.8239653 
   12500   -646.89456    77.499925   -569.39464    2351.2373    131163.12    10.472245    1.9310524 
   12600   -649.38037     71.14503   -578.23534    2158.4388    128478.02    10.472245    1.7848445 
   12700   -643.12585    83.497051    -559.6288    2533.1815    138030.21    10.472245     1.858525 
   12800   -637.73629    80.931001   -556.80529    2455.3312    145888.59    10.472245    1.8860276 
   12900   -652.98042     84.33509   -568.64533    2558.6065    126999.63    10.472245    1.7936908 
   13000   -637.21444    74.937553   -562.27689    2273.4986    146543.99    10.472245    1.8880878 
   13100   -639.61446    81.409763   -558.20469    2469.8562    143500.83    10.472245    1.7964032 
   13200   -648.30368    81.228623   -567.07506    2464.3607    133678.67    10.472245    1.8329394 
   13300   -646.89426    77.552069   -569.34219    2352.8193    134003.21    10.472245    1.9253041 
   13400   -637.74868    83.757213   -553.99147    2541.0745    145448.56    10.472245    1.8096829 
   13500   -639.00092    74.293326    -564.7076    2253.9536    142871.55    10.472245    1.9306922 
   13600   -639.82426     82.44175   -557.38251    2501.1652    141035.74    10.472245     1.949727 
   13700   -637.28282    83.834062   -553.44876     2543.406    146177.35    10.472245    1.9216037 
   13800   -646.66206    83.681373   -562.98068    2538.7736    136917.37    10.472245    1.8565638 
   13900   -640.22097    89.316705   -550.90427    2709.7416    144769.41    10.472245    1.7631567 
   14000   -640.63781     80.38306   -560.25475    2438.7075    141086.94    10.472245    1.9177392 
   14100   -646.13409    84.989532   -561.14455    2578.4613    136438.81    10.472245    1.8864297 
   14200   -640.34761    83.054963   -557.29265    2519.7692    143435.91    10.472245    1.9446169 
   14300   -640.75399    76.064747   -564.68924     2307.696    141099.07    10.472245    1.9665399 
   14400   -649.17785    85.051202   -564.12665    2580.3323    132730.58    10.472245     1.850885 
   14500   -642.78385    87.480838   -555.30301     2654.044    141595.04    10.472245    1.7741617 
   14600   -642.98363    84.490258   -558.49337    2563.3141    139250.36    10.472245    1.8483841 
   14700   -645.42469    77.401053   -568.02363    2348.2377    135300.55    10.472245    1.8839723 
   14800    -639.5458    81.112754   -558.43305    2460.8454    144989.35    10.472245    1.9048059 
   14900   -643.72788     82.59807   -561.12981    2505.9077    137295.51    10.472245    1.9194362 
   15000   -650.45174    73.637553   -576.81418    2234.0584    127978.95    10.472245    1.8192871 
   15100   -648.75392    82.723366   -566.03056    2509.7091    132939.64    10.472245    1.8357503 
   15200   -648.27192    88.170597   -560.10132    2674.9703    135277.96    10.472245    1.8944974 
   15300   -647.50279    82.556087    -564.9467     2504.634    133891.56    10.472245    1.9649996 
   15400   -643.78446    74.833365    -568.9511    2270.3377    136740.82    10.472245    1.8724128 
   15500   -642.29322     84.98855   -557.30467    2578.4315    140404.51    10.472245    1.8328742 
   15600   -642.82938    82.400322   -560.42905    2499.9084    140526.44    10.472245    1.8877054 
   15700   -657.43617     83.47885   -573.95732    2532.6294    121370.01    10.472245    1.8527441 
   15800   -643.22983    84.386571   -558.84326    2560.1683    140689.43    10.472245    2.0131652 
   15900    -642.5944    82.335897    -560.2585    2497.9538    141323.79    10.472245    1.8334564 
   16000    -647.5688    76.558817   -571.00998    2322.6854    133597.85    10.472245      1.93916 
   16100   -634.36431    80.480396   -553.88392    2441.6605    152332.97    10.472245    1.9196054 
   16200   -638.03316     77.52811   -560.50505    2352.0924    143566.89    10.472245    1.9728139 
   16300   -642.00637    77.447195   -564.55918    2349.6376    137105.03    10.472245    1.8243096 
   16400   -639.97266    79.930462    -560.0422    2424.9763    141051.87    10.472245    1.8787789 
   16500    -637.7187    84.200528   -553.51817     2554.524    145746.22    10.472245    1.8608481 
   16600   -646.87157    78.813391   -568.05818     2391.086    132911.79    10.472245    1.8839164 
   16700    -645.0441    84.086715   -560.95739    2551.0711     137860.2    10.472245    1.8722354 
   16800     -642.614    83.379319   -559.23468    2529.6097    139207.72    10.472245    1.8373362 
   16900   -636.93361    80.348164   -556.58545    2437.6488    145561.05    10.472245    1.9180077 
   17000   -636.15619    85.663557   -550.49263    2598.9103    150184.46    10.472245    1.9123841 
   17100   -647.08988    81.692527   -565.39735    2478.4349    133824.29    10.472245     1.801487 
   17200     -646.579    81.957778   -564.62122    2486.4822    134798.32    10.472245    1.8394745 
   17300   -631.05389    80.500919   -550.55297    2442.2832    152814.06    10.472245    1.8964367 
   17400   -638.51348    83.577124   -554.93636    2535.6109    146403.21    10.472245    2.0777464 
   17500   -636.80905    78.037357    -558.7717    2367.5422    149214.82    10.472245    2.4658587 
   17600    -622.2502    77.690495   -544.55971    2357.0189    165134.68    10.472245    2.4231788 
   17700   -628.10666    79.132754   -548.97391     2400.775    157310.81    10.472245    2.5630497 
   17800   -623.48831    73.836637   -549.65167    2240.0984    164725.75    10.472245    2.8178694 
   17900   -616.06443    83.484211   -532.58022     2532.792    173453.89    10.472245    3.2574597 
   18000    -608.3958    86.192806     -522.203    2614.9669    184859.36    10.472245    4.1461858 
   18100   -617.58678    80.259653   -537.32712    2434.9635    173019.61    10.472245    5.1423326 
   18200   -612.06935     80.85598   -531.21337    2453.0552    180204.96    10.472245    6.4176623 
   18300   -613.03278    87.541351   -525.49143    2655.8799    182339.18    10.472245    8.0046332 
   18400   -618.40175    78.527206   -539.87455    2382.4035     169151.1    10.472245    8.6035153 
   18500   -612.71892    84.327916     -528.391    2558.3888    181537.12    10.472245    9.6562287 
   18600   -612.10122    81.636106   -530.46511    2476.7232    180425.72    10.472245    11.009043 
   18700   -610.95718    80.858339   -530.09884    2453.1268    182383.56    10.472245     12.95166 
   18800   -609.64559    82.445253   -527.20034    2501.2715    185526.87    10.472245    14.026211 
   18900   -616.27952    77.075747   -539.20377    2338.3684    174008.33    10.472245    15.802462 
   19000   -614.79568    82.495978    -532.2997    2502.8104    177524.39    10.472245    16.750754 
   19100   -614.51664    91.448879   -523.06776    2774.4287    180373.74    10.472245     18.12745 
   19200   -616.65049    80.882919   -535.76757    2453.8725    176294.85    10.472245    19.257142 
   19300   -611.11597    85.795796   -525.32018    2602.9222    181501.87    10.472245    20.658086 
   19400   -608.34841    83.772818    -524.5756    2541.5479    182929.55    10.472245    22.206954 
   19500   -612.44854    79.273236    -533.1753     2405.037    179743.25    10.472245    24.413301 
   19600   -614.13353    81.510406   -532.62313    2472.9096    177335.72    10.472245    26.065956 
   19700   -615.53857    92.304951   -523.23362    2800.4007    178908.46    10.472245    27.122009 
   19800   -613.18946    79.652332   -533.53713    2416.5382    180868.91    10.472245    28.242686 
   19900   -608.62455    80.677539   -527.94701    2447.6416    184229.86    10.472245    29.337217 
   20000   -605.43058    84.898245   -520.53234    2575.6918    188750.89    10.472245    30.917346 
   20100   -617.72933    85.061838    -532.6675     2580.655    174519.67    10.472245    32.874713 
   20200   -617.33808    87.663685    -529.6744    2659.5913    176385.45    10.472245    33.437046 
   20300   -605.51845    84.276071   -521.24238    2556.8159    190267.57    10.472245    35.265086 
   20400   -618.44403    82.253581   -536.19045    2495.4565    175161.64    10.472245     36.05588 
   20500   -613.90653     79.71445   -534.19208    2418.4228    177058.83    10.472245    37.837154 
   20600   -609.08938    81.197849   -527.89154    2463.4271    183575.23    10.472245    39.068528 
   20700   -610.42035    84.274713   -526.14564    2556.7747    184441.51    10.472245    39.764015 
   20800   -623.79741    82.736521   -541.06088    2510.1082    166134.03    10.472245     40.54717 
   20900   -610.63293    78.838769   -531.79416    2391.8559    179701.06    10.472245    41.386315 
   21000   -606.16196     80.12305   -526.03891    2430.8192    188487.74    10.472245    42.662771 
   21100   -614.00117    83.001243   -530.99993    2518.1394    178020.88    10.472245    43.505086 
   21200   -616.64506    76.783727   -539.86133    2329.5089    175447.77    10.472245    44.310039 
   21300   -617.19445     87.68936   -529.50509    2660.3702    175346.32    10.472245    44.398973 
   21400   -614.28045    81.588157   -532.69229    2475.2684    178516.07    10.472245    45.626474 
   21500   -608.18231    78.273952   -529.90836    2374.7202    184417.74    10.472245    47.052226 
   21600   -611.13792    84.851174   -526.28675    2574.2637    185341.86    10.472245    47.446809 
   21700   -617.18274    79.200474   -537.98227    2402.8295    174457.48    10.472245    48.060769 
   21800   -605.90586    81.619788   -524.28607    2476.2281    187067.16    10.472245    48.775836 
   21900   -610.55175    86.523348   -524.02841    2624.9951    183452.02    10.472245    51.126639 
   22000   -613.82804    79.134698   -534.69334     2400.834    175777.04    10.472245     50.37603 
   22100   -618.16343     76.76643     -541.397    2328.9841    170786.69    10.472245    51.269403 
   22200   -614.45074    82.563439    -531.8873    2504.8571    175268.74    10.472245    53.285062 
   22300   -611.72642    79.694829   -532.03159    2417.8276    179715.15    10.472245      54.4793 
   22400   -621.03601     79.16105   -541.87496    2401.6335    170835.64    10.472245    55.884893 
   22500   -615.46118    83.290028   -532.17115    2526.9008    175740.68    10.472245    57.260714 
   22600   -611.02739     80.35826   -530.66913    2437.9551    181663.83    10.472245    58.048773 
   22700   -619.06031    79.408885   -539.65143    2409.1524    170409.37    10.472245    59.928418 
   22800   -610.57619    85.472042   -525.10415       2593.1    182903.73    10.472245    61.643376 
   22900   -612.12047    79.154078    -532.9664    2401.4219    179531.03    10.472245    62.337403 
   23000   -619.71555    74.161574   -545.55398    2249.9565     168208.6    10.472245    63.835339 
   23100   -618.15054    83.521426   -534.62912    2533.9211    174349.54    10.472245    65.885205 
   23200   -612.19367    82.520396   -529.67328    2503.5512    182313.11    10.472245    66.299952 
   23300   -610.69017    82.992959   -527.69721    2517.8881    183950.53    10.472245    67.477664 
   23400   -616.23085    81.699506   -534.53134    2478.6466    173974.92    10.472245    69.579324 
   23500   -613.93659    81.409299   -532.52729    2469.8421    179307.74    10.472245    69.890431 
   23600   -614.92733    87.836488   -527.09084    2664.8339    180249.86    10.472245    71.480214 
   23700   -605.24985    73.385902   -531.86395    2226.4237    189396.56    10.472245    73.320864 
   23800   -604.84191    87.552427   -517.28948    2656.2159    190588.93    10.472245    75.218254 
   23900     -605.831    81.036369   -524.79463     2458.528    186581.55    10.472245    76.008371 
   24000   -621.05263    84.960442   -536.09219    2577.5788    171380.63    10.472245    76.568377 
   24100   -613.21299    80.709526   -532.50346     2448.612    178561.15    10.472245    77.543525 
   24200   -609.01729    82.363879   -526.65341    2498.8027       183265    10.472245    78.853298 
   24300   -615.53565    78.356981   -537.17867    2377.2392    175141.04    10.472245    79.921332 
   24400   -606.98291    85.115528   -521.86738    2582.2838    190213.87    10.472245    81.583159 
   24500   -612.36225    85.304772   -527.05748    2588.0252    181686.46    10.472245    82.134027 
   24600    -616.9907    80.586555   -536.40414    2444.8813    175892.23    10.472245    83.638405 
   24700   -610.35768      79.5792   -530.77848    2414.3195     181064.9    10.472245    83.927648 
   24800   -613.13767    84.895548   -528.24212      2575.61    179955.28    10.472245    84.797276 
   24900   -608.58594    79.318288   -529.26765    2406.4039    183646.73    10.472245    86.925942 
   25000   -611.56039    81.333648   -530.22674     2467.547     179858.4    10.472245    87.944667 
   25100   -602.19731    85.884864   -516.31245    2605.6244    193079.89    10.472245    90.365976 
   25200   -611.64073    84.795596   -526.84514    2572.5776    178676.54    10.472245    90.232711 
   25300   -607.00576    76.818812   -530.18695    2330.5733    186502.83    10.472245    90.476515 
   25400   -607.11323    77.177889   -529.93534    2341.4672    184762.33    10.472245    91.603362 
   25500   -616.09086    83.165288   -532.92557    2523.1163     174210.3    10.472245    92.853861 
   25600   -611.97136    91.534728   -520.43664    2777.0332    182435.05    10.472245    93.557467 
   25700   -605.12538    74.058295   -531.06708    2246.8232    186058.11    10.472245    94.400328 
   25800   -618.31268    86.024445   -532.28823    2609.8591    174347.03    10.472245    94.403232 
   25900   -600.77673    82.020912   -518.75582    2488.3976    195288.37    10.472245    96.287876 
   26000   -604.96005    85.732921   -519.22713    2601.0147    192531.04    10.472245    96.764201 
   26100   -614.31226    81.129246   -533.18302    2461.3457     178401.4    10.472245    98.698509 
   26200   -611.79984     76.06744    -535.7324    2307.7778    178632.38    10.472245    100.07483 
   26300   -605.80348    84.636761   -521.16672    2567.7587    190888.33    10.472245    100.69681 
   26400   -614.59733    85.049688   -529.54764    2580.2863    177012.87    10.472245    101.88695 
   26500   -618.04271    88.378413    -529.6643    2681.2751    175999.92    10.472245    102.10084 
   26600   -609.91452    79.446787   -530.46773    2410.3023    181529.66    10.472245    105.01639 
   26700    -604.6078    83.198567   -521.40923     2524.126    188682.21    10.472245    105.82466 
   26800   -602.37706    84.784401   -517.59266    2572.2379    192461.74    10.472245    107.15329 
   26900   -610.27097    75.447811   -534.82316    2288.9791    181029.95    10.472245    107.02705 
   27000   -610.89314    86.430226   -524.46291    2622.1699    185900.12    10.472245    106.32973 
   27100   -615.71192    88.747884   -526.96404    2692.4843    176896.78    10.472245    108.35123 
   27200   -615.53502    82.410881   -533.12414    2500.2287    174029.01    10.472245     109.8835 
   27300   -611.98275    84.255996   -527.72675    2556.2069     180501.2    10.472245    111.26672 
   27400    -609.4544    88.150103    -521.3043    2674.3485    184059.47    10.472245    111.79484 
   27500   -615.13077    79.889811   -535.24096     2423.743       178890    10.472245    112.50453 
   27600   -614.97941    82.704378   -532.27504     2509.133    177159.08    10.472245    114.47042 
   27700   -605.87883    88.265853   -517.61298    2677.8602    189829.86    10.472245    113.36985 
   27800   -609.10855     79.89258   -529.21597     2423.827    185999.22    10.472245    115.13669 
   27900   -612.98058    82.111745   -530.86884    2491.1534    179550.46    10.472245     115.9811 
   28000   -614.48808    73.801763   -540.68632    2239.0403    176439.67    10.472245    118.81102 
   28100   -611.43497     86.22145   -525.21352    2615.8359    182662.55    10.472245    120.51643 
   28200   -609.94978    77.840119   -532.10966    2361.5583     182202.5    10.472245    121.96281 
   28300   -621.96068    78.666941   -543.29374    2386.6429    168404.29    10.472245    123.81652 
   28400   -618.49516    74.474123   -544.02104    2259.4388    168083.66    10.472245    124.13018 
   28500   -616.57604     86.35375   -530.22229    2619.8497    175116.28    10.472245     124.7513 
   28600   -608.18921    80.318316    -527.8709    2436.7433     186638.2    10.472245    127.01916 
   28700   -611.59589    76.508428   -535.08746    2321.1567    180284.79    10.472245    127.20042 
   28800   -607.15462    85.006256   -522.14836    2578.9687    188215.51    10.472245    128.57782 
   28900   -610.13922    82.446869   -527.69235    2501.3205    184699.28    10.472245    129.53966 
   29000     -618.418    86.038219   -532.37979     2610.277    173904.63    10.472245    131.55223 
   29100   -609.62719    86.767537   -522.85965    2632.4034    184545.61    10.472245    133.19544 
   29200   -615.51265    77.243681   -538.26897    2343.4632    174717.12    10.472245    132.60855 
   29300   -617.06796    81.245837   -535.82213    2464.8829     172330.7    10.472245    133.24367 
   29400   -604.19686    81.397215   -522.79965    2469.4755    190660.02    10.472245    135.60514 
   29500   -617.27071    83.586761   -533.68395    2535.9032    176331.29    10.472245    137.31652 
   29600   -611.56812    80.564539   -531.00358    2444.2133    181123.59    10.472245    139.73807 
   29700   -613.10872    86.585848   -526.52288    2626.8912    180641.89    10.472245    140.58876 
   29800   -621.36242    77.570901   -543.79152    2353.3906    168793.97    10.472245    141.09297 
   29900   -615.29502    75.599119    -539.6959    2293.5696    172658.85    10.472245    143.19298 
   30000   -619.08258     87.75757   -531.32501    2662.4396    172283.54    10.472245    145.16612 
   30100   -613.43873    88.787157   -524.65157    2693.6758    179101.31    10.472245    146.47562 
   30200    -618.4177     78.99906   -539.41864    2396.7189    170189.66    10.472245    149.28335 
   30300   -614.32656    83.128624   -531.19794     2522.004    175478.57    10.472245    150.96624 
   30400    -615.9382    87.270433   -528.66777    2647.6606    177045.98    10.472245    153.38067 
   30500   -613.65527     75.57124   -538.08403    2292.7238    178095.19    10.472245    154.90527 
   30600   -612.85642    77.762715   -535.09371      2359.21    181945.05    10.472245    155.34584 
   30700   -612.64532    87.305204   -525.34012    2648.7155    179727.56    10.472245    157.49111 
   30800   -616.24262    78.784662   -537.45796    2390.2144     175190.5    10.472245    159.67925 
   30900   -608.82388      75.9224   -532.90148    2303.3774    179607.98    10.472245    162.32792 
   31000   -604.11138    77.589918   -526.52146    2353.9676    188547.77    10.472245    164.53729 
   31100   -613.59055    91.673247   -521.91731    2781.2357    178481.17    10.472245    164.18785 
   31200   -617.49369    81.579692   -535.91399    2475.0116    173256.74    10.472245    164.28153 
   31300    -618.8634    83.149233   -535.71417    2522.6293     172147.9    10.472245    166.91647 
   31400   -601.33411    80.029182   -521.30493    2427.9714    191516.52    10.472245    170.26883 
   31500   -615.41923    84.294409   -531.12482    2557.3723    175595.54    10.472245    169.56211 
   31600   -614.31815    81.848961   -532.46919    2483.1808    178546.11    10.472245     171.1413 
   31700   -609.55671    81.725102   -527.83161    2479.4232    181766.72    10.472245    173.99401 
   31800   -620.12943    77.255071   -542.87436    2343.8088    170851.05    10.472245    174.58188 
   31900   -611.81599    80.528281   -531.28771    2443.1133    180965.11    10.472245    175.65748 
   32000   -611.17429     82.63677   -528.53752    2507.0818    179233.83    10.472245    176.61594 
   32100   -624.06338    81.603512   -542.45987    2475.7343    166858.84    10.472245      177.084 
   32200   -617.42951    83.205427   -534.22408    2524.3341    174184.25    10.472245     175.9272 
   32300   -613.34179    87.636721   -525.70507    2658.7733    180396.57    10.472245    178.80604 
   32400   -610.39427    76.194459   -534.19981    2311.6313    179958.89    10.472245    179.35283 
   32500   -614.22436    80.836145   -533.38821    2452.4535    178191.28    10.472245    178.86868 
   32600    -609.1496    79.833435   -529.31616    2422.0327    183455.42    10.472245    180.82333 
   32700   -609.74203    88.131766   -521.61026    2673.7922    186323.94    10.472245    181.00603 
   32800   -610.35397    77.148988   -533.20499    2340.5904    179812.58    10.472245    181.91502 
   32900   -614.56492    85.923034   -528.64189    2606.7824    178653.06    10.472245    184.40418 
   33000   -607.94749    87.416103   -520.53138      2652.08    184088.74    10.472245    185.26388 
   33100   -617.10693    80.336216   -536.77072    2437.2863    175062.16    10.472245    187.14635 
   33200   -603.51913    78.748578   -524.77056    2389.1197    189332.72    10.472245    188.58907 
   33300   -618.64023    82.898011   -535.74222    2515.0075    172737.03    10.472245    189.24644 
   33400   -619.69979    84.253584   -535.44621    2556.1337    170419.35    10.472245    188.99488 
   33500   -610.73692    82.565501   -528.17142    2504.9197    180835.83    10.472245    191.56626 
   33600   -616.76359    74.100957   -542.66263    2248.1174     173583.4    10.472245    192.78613 
   33700   -607.76148    76.080822   -531.68066    2308.1837    183255.01    10.472245    191.95949 
   33800    -611.4649    84.581353   -526.88355    2566.0777    181528.12    10.472245    193.48448 
   33900   -616.71178    75.160113   -541.55166    2280.2507    174539.45    10.472245    194.80523 
   34000    -613.5762    82.765477   -530.81072    2510.9867    180140.55    10.472245    197.64092 
   34100   -608.35119    77.364778   -530.98641    2347.1371    183104.47    10.472245    200.06625 
   34200   -611.76997    78.266701   -533.50327    2374.5002    179198.31    10.472245    199.10523 
   34300   -606.37056    85.984998   -520.38556    2608.6623    189344.35    10.472245    199.47359 
   34400   -613.09981    79.976639   -533.12317    2426.3773    180121.34    10.472245    201.06957 
   34500   -615.15783    80.811084   -534.34675    2451.6931    176867.05    10.472245    201.14575 
   34600   -615.58888    86.077327   -529.51155    2611.4635    176869.44    10.472245    201.67407 
   34700   -604.37009    83.697981   -520.67211    2539.2775    191451.89    10.472245      204.275 
   34800   -612.46813    78.782191   -533.68593    2390.1394    178135.27    10.472245    205.85436 
   34900   -619.45927    90.033469    -529.4258    2731.4872    174912.43    10.472245    205.09462 
   35000   -610.79906    87.263347   -523.53571    2647.4456    184246.81    10.472245    205.08321 
   35100   -611.38894    78.525325   -532.86362    2382.3465    179858.19    10.472245    206.10298 
   35200   -608.34012    89.315768   -519.02435    2709.7131    186157.72    10.472245    208.74679 
   35300   -609.35555    86.618025   -522.73752    2627.8675     184531.4    10.472245    210.38792 
   35400   -612.44886    80.761077   -531.68779     2450.176    179586.02    10.472245    212.10501 
   35500   -612.06997    84.743795   -527.32617     2571.006    180247.35    10.472245    214.27634 
   35600   -599.73347    78.877704   -520.85577    2393.0372    194129.46    10.472245    214.76998 
   35700   -616.37209    84.192455   -532.17963    2554.2791    175931.82    10.472245    217.48021 
   35800   -608.24927    79.675462    -528.5738      2417.24    186295.14    10.472245    219.17896 
   35900   -608.37885    88.571267   -519.80759     2687.126     185781.5    10.472245    220.55188 
   36000   -615.76863    80.106599   -535.66203    2430.3201    175842.62    10.472245    221.88311 
   36100   -610.61827    86.024803   -524.59346      2609.87    183449.31    10.472245    224.26436 
   36200   -615.03962    78.950011   -536.08961    2395.2308    174671.96    10.472245    225.42794 
   36300   -616.78703    81.832525    -534.9545    2482.6822    173163.27    10.472245    226.39765 
   36400   -610.67553    85.643309   -525.03222     2598.296    184873.33    10.472245    226.92357 
   36500   -604.72405    79.292095   -525.43195    2405.6092    189365.36    10.472245    227.14407 
   36600   -618.46552     80.58466   -537.88086    2444.8238     172052.8    10.472245     228.1092 
   36700   -612.35289    87.228993    -525.1239    2646.4034    182245.92    10.472245    229.27542 
   36800   -612.29195    85.345868   -526.94609     2589.272    180712.36    10.472245    228.94388 
   36900   -614.93864    84.843337    -530.0953     2574.026    176487.71    10.472245     230.0435 
   37000   -617.85072     82.07576   -535.77496    2490.0616    174867.63    10.472245    229.98825 
   37100   -612.03371    78.960452   -533.07326    2395.5476    179555.56    10.472245    232.72043 
   37200   -611.81991    83.000747   -528.81917    2518.1244    179083.58    10.472245    230.83223 
   37300   -618.51622    75.712566   -542.80365    2297.0114    170614.33    10.472245    232.83251 
   37400   -612.36916    81.223959    -531.1452    2464.2192    178110.27    10.472245    231.85808 
   37500   -607.82725    81.895934   -525.93132    2484.6059    185783.83    10.472245    231.03375 
   37600   -616.31784    82.135026   -534.18282    2491.8597    173205.65    10.472245    231.09672 
   37700   -617.20755    78.101762   -539.10579    2369.4962    171484.22    10.472245    230.68099 
   37800    -604.0734    78.099811   -525.97359     2369.437    187785.75    10.472245     231.2128 
   37900   -615.67966    78.778072   -536.90158    2390.0145    174905.15    10.472245    229.57494 
   38000   -612.72334    79.784092   -532.93925    2420.5357    177937.59    10.472245    232.20087 
   38100   -616.86007    86.874924   -529.98515    2635.6614    176870.69    10.472245    231.70946 
   38200   -611.59336    87.135742   -524.45762    2643.5743    182983.14    10.472245    236.34626 
   38300   -621.10344     85.67058   -535.43286    2599.1233    169441.74    10.472245    236.41745 
   38400   -616.82892    82.429499   -534.39942    2500.7936    175110.48    10.472245    236.39461 
   38500   -614.27948    89.544123   -524.73536    2716.6411    178617.35    10.472245    234.32212 
   38600   -615.70649    79.778497   -535.92799    2420.3659    171928.62    10.472245    235.32752 
   38700   -617.00059    82.948782   -534.05181    2516.5479    175385.84    10.472245    234.03617 
   38800   -608.37717    83.068926   -525.30824    2520.1928       184339    10.472245    234.39389 
   38900   -611.93064    77.792979   -534.13766    2360.1282    181654.07    10.472245    236.07033 
   39000   -613.12139    82.635546   -530.48584    2507.0447    178133.18    10.472245    236.75526 
   39100    -610.4142    88.133698    -522.2805    2673.8508    183281.66    10.472245    239.01215 
   39200   -611.29997    86.573409   -524.72656    2626.5139     182557.7    10.472245    242.50651 
   39300   -608.42354    79.147298   -529.27624    2401.2163    182286.57    10.472245    243.98022 
   39400   -609.43789    87.977123   -521.46077    2669.1005    185751.31    10.472245    246.97912 
   39500   -616.43258     79.10345   -537.32913     2399.886    171689.11    10.472245    249.38383 
   39600   -616.16719    86.597981    -529.5692    2627.2594     176360.7    10.472245    250.95221 
   39700   -610.47846    80.414157   -530.06431    2439.6509    182789.63    10.472245    252.61302 
   39800   -616.71209    75.518492    -541.1936    2291.1234     175786.1    10.472245    254.11205 
   39900   -610.72851    84.675137   -526.05337     2568.923    183063.16    10.472245    256.73303 
   40000   -613.19554    84.669633    -528.5259     2568.756    179304.46    10.472245    260.04289 
   40100   -618.74139    77.024275   -541.71711    2336.8067    171070.35    10.472245    257.69236 
   40200   -617.60572    84.033557   -533.57217    2549.4584    174699.96    10.472245    257.87305 
   40300   -610.90785    83.373453    -527.5344    2529.4318    180284.53    10.472245    258.38357 
   40400   -609.36863    92.538376   -516.83026    2807.4825    184596.04    10.472245    259.50247 
   40500   -610.24004    76.801404   -533.43864    2330.0452    181332.73    10.472245    259.01493 
   40600   -615.98819    85.855232   -530.13296    2604.7254     174712.3    10.472245    261.47692 
   40700   -610.57804    90.475017   -520.10302    2744.8831    183544.42    10.472245    263.34948 
   40800   -616.41937    81.008171    -535.4112    2457.6725    174333.05    10.472245    264.84134 
   40900   -612.16742    83.574891   -528.59253    2535.5431    181722.73    10.472245    268.89418 
   41000   -606.27825    90.633256   -515.64499    2749.6838    188682.93    10.472245    270.78175 
   41100    -613.0792    80.087213   -532.99199    2429.7319    180259.49    10.472245    273.77383 
   41200   -617.49501    81.661444   -535.83356    2477.4919     175784.6    10.472245    274.50915 
   41300    -604.5536    82.133806   -522.41979    2491.8226       190268    10.472245    274.48282 
   41400    -610.5652    76.821883   -533.74332    2330.6665    178063.19    10.472245    273.83092 
   41500   -612.99834    83.422395   -529.57595    2530.9166    176992.15    10.472245    275.04221 
   41600   -617.50864    92.593177   -524.91546    2809.1451    177586.97    10.472245    275.30953 
   41700   -614.44645    75.691011   -538.75544    2296.3574    174501.23    10.472245     276.4379 
   41800   -608.16447    80.285496   -527.87898    2435.7476    183797.59    10.472245    278.61921 
   41900   -608.93862    83.521963   -525.41666    2533.9374    185091.54    10.472245    282.46227 
   42000   -615.84701    76.511274   -539.33574     2321.243    174490.47    10.472245    285.13889 
   42100   -608.11718    80.702682    -527.4145    2448.4044    185797.84    10.472245    283.82534 
   42200   -607.74891    80.634337   -527.11457    2446.3309    187156.48    10.472245    283.08785 
   42300   -606.34121    76.294309    -530.0469    2314.6606    184580.61    10.472245    285.49836 
   42400   -605.10474     75.60655   -529.49819     2293.795       186170    10.472245    284.71478 
   42500   -605.58917    90.038112   -515.55105     2731.628    189477.15    10.472245    286.61063 
   42600   -609.64434    83.657893   -525.98645    2538.0613    182975.16    10.472245    284.17396 
   42700   -616.60129    83.415015   -533.18627    2530.6927       175106    10.472245    284.21015 
   42800   -608.25629    74.145923   -534.11037    2249.4816    185094.45    10.472245     285.9166 
   42900   -605.24258    83.222457   -522.02012    2524.8508    187390.59    10.472245    285.19593 
   43000   -616.71265    81.225401   -535.48724    2464.2629    176004.57    10.472245    285.45403 
   43100    -611.9996    81.129621   -530.86998    2461.3571    180737.46    10.472245    286.25857 
   43200   -614.08418     85.47086   -528.61332    2593.0641    179573.62    10.472245    289.72426 
   43300   -609.67652    78.567835   -531.10868    2383.6362    181722.05    10.472245    289.44854 
   43400   -610.55406    81.106186   -529.44788    2460.6461    183322.77    10.472245    290.82192 
   43500   -612.12137    83.352069   -528.76931     2528.783    181064.87    10.472245    294.93447 
   43600   -616.13075    88.008788   -528.12197    2670.0612    176491.11    10.472245    294.59954 
   43700    -613.2155    77.953923   -535.26158     2365.011    177883.06    10.472245    294.99009 
   43800   -611.10026    90.554586   -520.54567    2747.2971     182754.4    10.472245    294.38161 
   43900   -605.57241    78.173679   -527.39874     2371.678     185391.6    10.472245    296.52065 
   44000   -605.71168     76.63747   -529.07421    2325.0717    184222.46    10.472245    299.11343 
   44100   -614.45694    77.598128   -536.85881    2354.2166    177856.72    10.472245    298.85063 
   44200   -622.86053    83.544914   -539.31562    2534.6337    168087.02    10.472245    298.93575 
   44300   -610.10002    79.050734   -531.04929    2398.2866    180738.79    10.472245    299.94037 
   44400   -611.63089    78.309018   -533.32188     2375.784    180846.16    10.472245    303.24428 
   44500   -615.97837    77.839322   -538.13905    2361.5341    173782.99    10.472245    304.57352 
   44600    -607.6947    82.213494    -525.4812    2494.2403    186396.81    10.472245    308.34592 
   44700   -617.35732    84.281874   -533.07545     2556.992    172813.78    10.472245    309.09124 
   44800   -610.51283    89.711191   -520.80164    2721.7097    183326.73    10.472245    306.90226 
   44900   -614.04638    82.177013   -531.86937    2493.1335    181664.52    10.472245    311.61225 
   45000   -612.81613    84.952704   -527.86343     2577.344    180932.13    10.472245    314.08054 
   45100   -609.85004    93.742415   -516.10763    2844.0113    187397.65    10.472245    313.58155 
   45200   -612.53204    83.199016   -529.33303    2524.1396    180102.25    10.472245    315.56025 
   45300   -617.90584    85.362842   -532.54299     2589.787    174967.26    10.472245    317.28189 
   45400    -608.5717    90.038935   -518.53276     2731.653    184568.66    10.472245    320.91583 
   45500   -610.65797    80.732343   -529.92563    2449.3043    181393.65    10.472245    322.26089 
   45600   -616.86291    83.302064   -533.56085    2527.2659    174270.82    10.472245    324.81448 
   45700   -606.47751    89.515894   -516.96162    2715.7847    186205.38    10.472245    325.86473 
   45800   -612.23369    82.155953   -530.07774    2492.4946     179969.5    10.472245    325.63515 
   45900   -620.18783    82.160536    -538.0273    2492.6336    170169.63    10.472245    329.22545 
   46000   -613.66739     77.19803   -536.46936    2342.0782    175379.44    10.472245    330.04159 
   46100    -612.3655    89.043334   -523.32216    2701.4479    180377.47    10.472245    331.94411 
   46200   -613.60847    76.667284   -536.94119    2325.9762    176809.65    10.472245    334.12702 
   46300   -612.70909    82.999473   -529.70962    2518.0857    180366.25    10.472245    336.74441 
   46400   -609.21863    81.411916   -527.80672    2469.9215    183058.62    10.472245    336.03977 
   46500   -618.76663    87.549374   -531.21726    2656.1233     174432.8    10.472245    336.71659 
   46600    -621.3446    83.057862   -538.28673    2519.8572    169808.42    10.472245    336.24981 
   46700   -606.31808    81.080495   -525.23758    2459.8667    188220.52    10.472245    337.35698 
   46800   -610.39673    78.527528   -531.86921    2382.4133    181511.09    10.472245    336.72789 
   46900   -618.29815    88.934441   -529.36371    2698.1442    174780.31    10.472245    336.24358 
   47000   -616.78698    84.097952   -532.68902     2551.412    174695.74    10.472245    336.60084 
   47100   -624.41232    81.146741   -543.26558    2461.8765    164577.62    10.472245    338.94166 
   47200   -612.41197    82.719408   -529.69257     2509.589    180377.92    10.472245    338.50936 
   47300   -619.03479    87.986925   -531.04787    2669.3979    172151.96    10.472245    338.80861 
   47400   -619.92793    77.513803   -542.41413    2351.6583    170512.32    10.472245    339.75051 
   47500   -613.68773    89.889795   -523.79793    2727.1283    181520.13    10.472245    336.42269 
   47600   -617.96639    82.956278   -535.01011    2516.7753    176054.54    10.472245     339.0486 
   47700   -617.04721    82.517591   -534.52962    2503.4661    176809.19    10.472245     340.3341 
   47800   -611.10677     86.81588   -524.29089    2633.8701    183277.13    10.472245    342.38503 
   47900   -610.02809    81.055685   -528.97241     2459.114    181009.68    10.472245    344.46578 
   48000   -611.19249    78.201126   -532.99137    2372.5107    181915.68    10.472245    347.35252 
   48100   -612.88024     89.44717   -523.43307    2713.6997    182580.33    10.472245    351.58025 
   48200   -610.34817    81.117696   -529.23048    2460.9953    181425.27    10.472245    352.37952 
   48300   -618.97159    84.846888    -534.1247    2574.1337    173027.78    10.472245    354.19093 
   48400   -608.74698    80.538191   -528.20878     2443.414    184911.22    10.472245    354.54243 
   48500   -609.25131     78.20337   -531.04794    2372.5788    182225.54    10.472245    360.98644 
   48600    -609.4117    84.967392   -524.44431    2577.7896    184743.54    10.472245    360.76745 
   48700   -610.92738    84.581959   -526.34542    2566.0961    181524.94    10.472245    361.22509 
   48800    -612.7425    78.661451   -534.08104    2386.4764    181978.24    10.472245    360.83007 
   48900   -609.70268    83.866399   -525.83628     2544.387    185712.58    10.472245    362.27069 
   49000   -610.16866    92.626808   -517.54185    2810.1654    181139.26    10.472245    363.22804 
   49100   -612.11693    77.709698   -534.40723    2357.6015    176930.21    10.472245    366.81639 
   49200   -610.68903    81.633111   -529.05592    2476.6323     179961.3    10.472245    367.67041 
   49300   -607.07627    82.365518   -524.71075    2498.8525    189419.77    10.472245    367.52782 
   49400    -609.0932    78.538428   -530.55477     2382.744    183272.81    10.472245     368.7618 
   49500   -617.88054    85.177297   -532.70324    2584.1578    171300.99    10.472245    369.41293 
   49600   -614.59701    81.148813    -533.4482    2461.9394    174362.96    10.472245    369.60705 
   49700    -605.2152    82.767025   -522.44818    2511.0336    188166.64    10.472245    371.21592 
   49800   -618.45118    89.816588   -528.63459    2724.9073     175930.3    10.472245    372.99356 
   49900   -616.15127    82.067309   -534.08396    2489.8052    175725.43    10.472245     374.6154 
   50000   -607.05557    81.258165   -525.79741    2465.2569       185059    10.472245    378.65864 
   50100    -614.7383    80.571108   -534.16719    2444.4126    176122.98    10.472245    379.77664 
   50200   -618.66706    86.621487   -532.04558    2627.9725    174080.97    10.472245    380.83501 
   50300   -604.21163    83.590881   -520.62075    2536.0282    192297.43    10.472245    380.67746 
   50400   -618.38134    80.928166   -537.45318    2455.2452    171890.71    10.472245    382.37924 
   50500   -616.85745    86.982753    -529.8747    2638.9328     175344.9    10.472245    383.32456 
   50600   -609.41314    81.327077   -528.08606    2467.3476    184673.17    10.472245    384.24937 
   50700   -616.78562    79.307143   -537.47848    2406.0657    173551.58    10.472245      386.702 
   50800   -616.24188    88.207167   -528.03471    2676.0798    176247.25    10.472245    387.36347 
   50900   -611.66134    78.720017   -532.94133    2388.2532    179472.92    10.472245    390.19719 
   51000   -615.28209    78.426962   -536.85513    2379.3623    174779.61    10.472245    391.99942 
   51100   -610.42855    82.572164   -527.85639    2505.1218    181891.96    10.472245    391.45742 
   51200    -606.5518    78.660861   -527.89094    2386.4584    185829.52    10.472245     391.1985 
   51300    -610.3438    84.055882   -526.28792    2550.1357     182604.3    10.472245    392.18758 
   51400   -612.35212    72.648602   -539.70352    2204.0551     179456.2    10.472245    390.84035 
   51500   -613.79646    84.073499   -529.72296    2550.6702    177897.84    10.472245    393.27222 
   51600   -614.96983    83.256948   -531.71288    2525.8972    177133.61    10.472245    393.82769 
   51700   -611.95013    86.641916   -525.30821    2628.5923    183978.18    10.472245    396.76751 
   51800   -611.21688    80.134301   -531.08258    2431.1605    181725.22    10.472245    399.07051 
   51900   -617.15155    81.247233   -535.90431    2464.9253    174208.13    10.472245    401.39249 
   52000   -602.53391    82.064264   -520.46964    2489.7129    189772.98    10.472245    400.64591 
   52100   -615.92124    83.317161   -532.60408     2527.724    180153.27    10.472245    401.62044 
   52200   -615.47014    80.478192   -534.99195    2441.5937    176299.61    10.472245    403.22101 
   52300   -612.49236    85.038333   -527.45403    2579.9418    180655.24    10.472245    407.18517 
   52400   -612.07713    88.366036    -523.7111    2680.8996    180339.06    10.472245    407.57535 
   52500   -612.62136    78.333679   -534.28768    2376.5322     177826.6    10.472245    410.38458 
   52600   -616.12121    86.689927   -529.43128    2630.0489    177506.45    10.472245    411.17118 
   52700   -606.61189    87.652536   -518.95936     2659.253    188419.44    10.472245    412.67702 
   52800   -618.65449    84.159584    -534.4949    2553.2819    174099.47    10.472245    415.65958 
   52900   -611.93385    82.009745    -529.9241    2488.0588     179195.1    10.472245    417.77128 
   53000   -608.32725     87.28878   -521.03847    2648.2172    188270.48    10.472245    419.82005 
   53100   -622.68802    83.719017     -538.969    2539.9157    167795.24    10.472245    424.04706 
   53200   -611.96852    85.198463   -526.77006       2584.8    181025.56    10.472245    428.43537 
   53300   -612.33189    89.082995    -523.2489    2702.6511    183856.25    10.472245    429.96671 
   53400   -615.44282     77.23489   -538.20793    2343.1965     174002.4    10.472245    433.16992 
   53500   -613.71229    81.176121   -532.53617    2462.7678    176552.63    10.472245     435.1543 
   53600    -604.1062    83.075272   -521.03093    2520.3854    190015.02    10.472245    434.53668 
   53700    -613.7346    78.393529   -535.34107     2378.348    177733.76    10.472245     435.3619 
   53800    -612.0424    77.720941   -534.32146    2357.9426     180410.2    10.472245    436.01193 
   53900   -613.66346    89.918349   -523.74511    2727.9946    181189.79    10.472245    435.09941 
   54000   -614.12962    82.160895   -531.96872    2492.6445    177283.93    10.472245    435.43673 
   54100    -613.8463    81.019214   -532.82709    2458.0075    178670.86    10.472245    436.72053 
   54200   -606.37068    88.739436   -517.63124     2692.228    192481.12    10.472245    438.60557 
   54300     -615.452    80.440044   -535.01195    2440.4363    175991.13    10.472245    441.16827 
   54400   -608.15828    82.242484   -525.91579    2495.1198    184486.99    10.472245    444.41097 
   54500   -613.23491    78.046758   -535.18816    2367.8274    177306.96    10.472245    446.42954 
   54600   -606.02348    77.502526   -528.52095    2351.3162    187376.39    10.472245    450.61054 
   54700   -610.57211    86.524648   -524.04746    2625.0345    181225.83    10.472245    453.16061 
   54800   -619.35158    81.650691   -537.70089    2477.1656    170207.05    10.472245    454.55229 
   54900   -618.70474    85.166804   -533.53794    2583.8395    171307.12    10.472245    455.36275 
   55000   -613.55142    81.884009   -531.66741    2484.2442     179632.5    10.472245    454.86311 
   55100   -615.06681    92.492522   -522.57429    2806.0913    179691.93    10.472245    458.51887 
   55200   -617.30729    83.780497   -533.52679    2541.7809    175086.79    10.472245    459.54762 
   55300   -618.78206    83.374075   -535.40798    2529.4507    172330.74    10.472245      462.984 
   55400   -612.40798    92.275552   -520.13243    2799.5088     181134.2    10.472245    466.28979 
   55500   -613.31203    80.492004   -532.82003    2442.0127    179380.76    10.472245    467.20081 
   55600   -610.77834     78.46525   -532.31309    2380.5239    182041.36    10.472245     466.4337 
   55700   -610.43821    85.069175   -525.36903    2580.8776    186722.39    10.472245    466.81941 
   55800    -616.2159    84.656121   -531.55978    2568.3461    177053.62    10.472245    467.33265 
   55900   -614.72637    70.775462    -543.9509    2147.2267    174667.68    10.472245    468.58336 
   56000   -616.31507    83.859835   -532.45524    2544.1879    178356.34    10.472245    468.64597 
   56100   -608.37887    82.246511   -526.13236     2495.242    183922.31    10.472245    468.72359 
   56200   -617.60072    76.816544   -540.78417    2330.5045    171353.22    10.472245    469.01465 
   56300    -614.6837    85.413435   -529.27027    2591.3219    176786.43    10.472245    466.77409 
   56400   -615.42834    82.447368   -532.98097    2501.3357    178793.81    10.472245    468.86457 
   56500   -614.83338    71.863027   -542.97035    2180.2219    174931.69    10.472245    472.35385 
   56600   -607.30804    77.547718   -529.76033    2352.6873    186066.69    10.472245    473.16247 
   56700   -613.05825    86.602949    -526.4553    2627.4101    179271.72    10.472245    474.08651 
   56800   -614.88103    77.083221   -537.79781    2338.5951     172773.9    10.472245    477.95276 
   56900   -612.77525    87.275126   -525.50013     2647.803    182607.54    10.472245    481.27474 
   57000   -612.68364    84.060271   -528.62337    2550.2688    177715.77    10.472245    482.76626 
   57100   -614.70716    77.121512   -537.58565    2339.7568    173566.26    10.472245    483.03576 
   57200   -610.22964    84.140896   -526.08875    2552.7149    185692.74    10.472245    486.59292 
   57300   -612.60341    86.399372   -526.20404    2621.2338    183491.27    10.472245    485.65975 
   57400   -620.30311    87.640779   -532.66233    2658.8964    173577.96    10.472245    483.80524 
   57500   -610.45476     80.98165   -529.47311    2456.8679    185398.24    10.472245    484.35704 
   57600    -610.5857     86.36483   -524.22087    2620.1859    186337.59    10.472245     484.6766 
   57700    -615.1343    77.365631   -537.76867     2347.163    175642.94    10.472245    486.47191 
   57800   -613.09834    87.381467   -525.71688    2651.0292    181006.99    10.472245     488.2306 
   57900   -604.36244     79.94305   -524.41939    2425.3582    192331.51    10.472245     489.8054 
   58000   -618.29372    81.987005   -536.30671    2487.3689     173022.9    10.472245    493.92142 
   58100   -614.35268    81.335722   -533.01696    2467.6099    178097.74    10.472245    495.45957 
   58200   -613.32967    82.831885   -530.49778    2513.0014    181159.91    10.472245    497.76779 
   58300    -609.7142    92.779283   -516.93492    2814.7912    184388.56    10.472245    498.26917 
   58400   -611.27705    83.388627   -527.88842    2529.8921    179542.59    10.472245     502.0528 
   58500   -612.13983    80.344841   -531.79499     2437.548    179309.42    10.472245    504.75001 
   58600   -618.18597    85.775721   -532.41025    2602.3131    175930.09    10.472245    500.74147 
   58700   -611.51833     78.67755   -532.84078    2386.9648    179605.75    10.472245    503.67468 
   58800   -619.85322    81.255278   -538.59794    2465.1694    171362.86    10.472245    507.05763 
   58900   -605.48337    81.469307   -524.01407    2471.6627    187328.87    10.472245     509.0836 
   59000   -612.92495    85.849505   -527.07544    2604.5517    182773.11    10.472245    510.07238 
   59100   -615.36777    70.634108   -544.73367    2142.9382     174469.8    10.472245    508.69245 
   59200   -618.21277    81.199306   -537.01346    2463.4712    175329.08    10.472245     511.4161 
   59300   -614.31753    87.996697   -526.32083    2669.6944    178207.54    10.472245    516.40029 
   59400   -618.59676    84.146235   -534.45053    2552.8769    172982.89    10.472245    516.15046 
   59500   -619.57286    76.000471   -543.57239     2305.746    169053.03    10.472245    520.28228 
   59600   -613.99543    79.519224   -534.47621       2412.5    177471.37    10.472245    520.05443 
   59700   -611.08669    85.612686   -525.47401    2597.3669    181095.53    10.472245    521.66795 
   59800   -621.12766    86.518712   -534.60895    2624.8545    169539.37    10.472245    519.65628 
   59900   -617.54571    81.341893   -536.20382    2467.7971    172486.25    10.472245    520.44672 
   60000   -610.03592    83.436832   -526.59909    2531.3546     183792.9    10.472245    523.69868 
   60100   -615.60177    74.967514   -540.63426    2274.4076       173561    10.472245     526.1681 
   60200   -615.59281    83.713214   -531.87959    2539.7396     176365.9    10.472245    526.79897 
   60300   -606.36321    79.127034   -527.23617    2400.6015    186403.61    10.472245    526.38084 
   60400   -614.64069    81.922748   -532.71795    2485.4194    176669.75    10.472245    528.46903 
   60500   -612.78862    77.598732   -535.18989     2354.235    177999.48    10.472245    527.05566 
   60600   -611.28806    86.202128   -525.08593    2615.2497    181339.75    10.472245     528.9007 
   60700   -616.70535    77.408042    -539.2973    2348.4497    175542.54    10.472245    530.40975 
   60800   -617.51276    77.939231   -539.57353    2364.5652    172603.03    10.472245    527.30999 
   60900   -610.56448    84.188073   -526.37641    2554.1462    184066.16    10.472245    527.88325 
   61000   -614.91713    84.874076   -530.04306    2574.9585    177514.66    10.472245    527.20104 
   61100   -617.56768    81.811462   -535.75621    2482.0432    173826.79    10.472245    524.15098 
   61200   -613.25032     81.52503   -531.72529    2473.3533    178494.78    10.472245    525.77483 
   61300   -604.43168    89.446257   -514.98542     2713.672    191359.12    10.472245    523.63606 
   61400   -612.88968    86.274411   -526.61527    2617.4427    181020.24    10.472245    529.12228 
   61500   -615.13335     82.53947   -532.59388    2504.1299    176880.63    10.472245    531.74729 
   61600   -600.78269    81.990469   -518.79222     2487.474    194253.02    10.472245    531.30463 
   61700   -615.78946    85.321448   -530.46801    2588.5312    177194.77    10.472245    531.77656 
   61800   -616.47749    80.889779   -535.58771    2454.0806    175310.67    10.472245    534.45756 
   61900   -614.80809    86.103288   -528.70481    2612.2511    179405.36    10.472245    541.50102 
   62000   -611.98007     86.85036   -525.12971    2634.9162    181808.01    10.472245    542.48072 
   62100   -616.86124    77.807582   -539.05366    2360.5712    173768.23    10.472245    546.14508 
   62200   -612.06006    84.296001   -527.76406    2557.4206    181169.11    10.472245    544.75218 
   62300   -610.04379    78.996768   -531.04702    2396.6494    182062.45    10.472245       545.44 
   62400   -619.28192    83.349617    -535.9323    2528.7086    172791.26    10.472245    548.30956 
   62500   -608.93919    86.255177   -522.68401    2616.8592    185717.15    10.472245    546.08893 
   62600   -614.56856    85.204784   -529.36378    2584.9917    179061.52    10.472245    548.62941 
   62700   -614.32325     77.62195    -536.7013    2354.9394    177200.72    10.472245    551.21286 
   62800   -610.82916    88.462635   -522.36653    2683.8303    182425.79    10.472245    550.54259 
   62900   -617.56188    83.848366   -533.71352    2543.8399    177675.55    10.472245    550.96049 
   63000   -613.58672    84.193584   -529.39314    2554.3134    177903.47    10.472245    551.72228 
   63100   -603.12333    91.648021   -511.47531    2780.4704     193417.6    10.472245    550.71179 
   63200   -610.42503    82.736512   -527.68852    2510.1079    184610.41    10.472245    556.48106 
   63300   -610.87258    75.153517   -535.71906    2280.0506    181318.06    10.472245    555.45874 
   63400   -610.45544    83.777988   -526.67745    2541.7048    183283.89    10.472245    554.19396 
   63500   -611.33998    86.300385    -525.0396    2618.2307    183468.16    10.472245    553.03066 
   63600   -616.53878    82.629392   -533.90939     2506.858    175242.72    10.472245    552.76975 
   63700    -612.6333    84.541237   -528.09207    2564.8607    179805.61    10.472245    553.74634 
   63800   -609.67862    78.001178   -531.67744    2366.4446    183903.51    10.472245      554.247 
   63900   -612.95912    80.302821    -532.6563    2436.2732    178750.45    10.472245    555.94295 
   64000   -612.43686    82.860279   -529.57658    2513.8628    180913.28    10.472245    558.52999 
   64100   -597.64605     79.23068   -518.41537    2403.7459    198279.29    10.472245    559.24305 
   64200   -612.64198    77.504243   -535.13774    2351.3683    180154.23    10.472245    559.85355 
   64300   -616.50175    88.424263   -528.07749    2682.6661    177972.15    10.472245    562.01531 
   64400   -614.55686    78.283669   -536.27319     2375.015     175541.7    10.472245     564.6026 
   64500   -619.18951    83.955215    -535.2343    2547.0816     173300.7    10.472245     562.9223 
   64600   -612.96813    86.911711   -526.05642    2636.7775    180497.02    10.472245    562.43388 
   64700   -610.47858    75.544075    -534.9345    2291.8996    180713.59    10.472245    564.70201 
   64800   -619.33293    82.502562   -536.83037    2503.0102    173536.35    10.472245    566.52663 
   64900    -610.8488    86.149059   -524.69974    2613.6397    185678.55    10.472245    567.62755 
   65000   -612.45489    74.844184    -537.6107    2270.6659     178577.4    10.472245    566.83727 
   65100   -608.14958    85.162295   -522.98729    2583.7027    185019.25    10.472245    567.25154 
   65200   -614.15689    82.830839   -531.32605    2512.9697    178933.96    10.472245    568.50887 
   65300   -613.63253    81.054461   -532.57807    2459.0769    177117.38    10.472245    567.82699 
   65400   -606.21302    87.269112   -518.94391    2647.6205    187681.38    10.472245    573.37926 
   65500   -610.98599    77.202257   -533.78374    2342.2065    180190.08    10.472245    573.26629 
   65600   -615.34021    79.303935   -536.03628    2405.9684    175256.06    10.472245    574.69162 
   65700   -610.75535    84.468852    -526.2865    2562.6646    180732.16    10.472245    575.96857 
   65800   -606.86597    89.465887   -517.40008    2714.2676    190627.28    10.472245    575.50342 
   65900   -610.32158     77.20634   -533.11524    2342.3303     182062.7    10.472245    577.98511 
   66000   -608.71958    86.959876    -521.7597    2638.2387    182734.23    10.472245    577.11232 
   66100   -617.81006    82.063407   -535.74665    2489.6868    173196.99    10.472245    576.27912 
   66200   -608.92927    78.080524   -530.84875    2368.8519    181073.06    10.472245    578.99678 
   66300   -609.22515    81.220145     -528.005    2464.1035    182421.58    10.472245    583.08966 
   66400   -622.96288    83.547661   -539.41522     2534.717    167699.86    10.472245    582.94623 
   66500   -615.71133    89.756266   -525.95506    2723.0772    180215.19    10.472245    582.08755 
   66600   -611.05285    80.034043    -531.0188    2428.1188    181825.25    10.472245    580.21427 
   66700   -613.27736     84.59422   -528.68314    2566.4681    178466.69    10.472245    581.24819 
   66800   -603.08127    79.001654   -524.07962    2396.7976    189864.51    10.472245    582.94225 
   66900   -616.54103    79.955278   -536.58575    2425.7292     174620.7    10.472245    585.80564 
   67000   -616.10212    84.713989   -531.38813    2570.1017    176178.93    10.472245    581.53872 
   67100    -606.4174    87.383918   -519.03349    2651.1036    192756.61    10.472245    587.27495 
   67200   -610.17084    80.711503   -529.45934     2448.672    185226.81    10.472245     590.9906 
   67300   -612.12083    89.680021   -522.44081    2720.7641    181166.05    10.472245    592.82962 
   67400    -610.6759    85.583158   -525.09274    2596.4711    183542.96    10.472245    595.23325 
   67500   -615.81395    81.557811   -534.25614    2474.3478    175246.71    10.472245     596.6541 
   67600   -609.10578    81.270423   -527.83536    2465.6288    184318.35    10.472245    597.76673 
   67700   -606.44702    84.711819    -521.7352    2570.0359     188591.3    10.472245    597.69527 
   67800   -612.79248    79.731193   -533.06128    2418.9308    178784.77    10.472245    601.81646 
   67900   -613.34997    82.833838   -530.51613    2513.0606    181423.63    10.472245    601.06937 
   68000   -606.52912    79.242975   -527.28614     2404.119    187206.44    10.472245     602.8733 
   68100   -613.14184    85.929492   -527.21235    2606.9784    179070.64    10.472245      609.345 
   68200    -607.8568    73.318698    -534.5381    2224.3848    183679.47    10.472245    611.10442 
   68300   -609.40136    83.230509   -526.17085     2525.095    184524.23    10.472245    612.32121 
   68400    -609.1953    85.460964   -523.73433    2592.7639    186664.82    10.472245    612.59641 
   68500   -618.09656    77.558007   -540.53856    2352.9994    172584.29    10.472245    611.91208 
   68600   -612.41964    80.662527   -531.75711    2447.1861    180341.77    10.472245    608.69009 
   68700   -611.48205    89.923887   -521.55816    2728.1626    181248.79    10.472245    607.21038 
   68800   -617.16932    81.346127   -535.82319    2467.9256    174778.39    10.472245    607.89097 
   68900   -616.74349    84.700855   -532.04263    2569.7033    176586.15    10.472245    611.88918 
   69000   -615.94927    82.899667    -533.0496    2515.0578    176167.93    10.472245     613.6764 
   69100    -622.2083    80.650195   -541.55811     2446.812    167449.88    10.472245    619.43951 
   69200   -612.81837    81.369143   -531.44922    2468.6239    179880.83    10.472245    619.25056 
   69300   -608.31464    80.762012   -527.55262    2450.2044    184985.57    10.472245    618.95063 
   69400   -617.52181    80.320335   -537.20147    2436.8045    173329.18    10.472245    623.09455 
   69500   -606.32625    84.200631   -522.12561    2554.5272    190178.05    10.472245    623.16497 
   69600   -609.25825    82.558981   -526.69927    2504.7218    182669.73    10.472245     626.5614 
   69700   -613.30195    81.223874   -532.07807    2464.2166    179516.27    10.472245    629.65206 
   69800   -614.01195    85.245533   -528.76641     2586.228    179313.82    10.472245    631.56823 
   69900   -608.47482    85.308861   -523.16596    2588.1493    188470.65    10.472245    630.67446 
   70000   -616.46677    83.766883   -532.69988    2541.3679    176225.25    10.472245    631.79746 
   70100     -618.276    87.013489   -531.26251    2639.8653    174145.93    10.472245    633.33945 
   70200   -612.80999    89.357129   -523.45286     2710.968    178738.59    10.472245    635.07829 
   70300   -611.93049    78.560983   -533.36951    2383.4283    181186.42    10.472245    634.98795 
   70400   -612.88327    91.209142   -521.67413    2767.1554    182814.45    10.472245    636.39018 
   70500   -614.28812    86.573513   -527.71461     2626.517    177734.61    10.472245     634.9875 
   70600   -609.50027    79.060256   -530.44001    2398.5755    181489.22    10.472245    635.64889 
   70700   -615.81223    84.936952   -530.87528    2576.8661    178606.42    10.472245    637.11571 
   70800   -619.37756    88.765301   -530.61226    2693.0128    173465.36    10.472245    640.66496 
   70900    -613.9242    76.776162   -537.14804    2329.2794    175979.25    10.472245    640.76135 
   71000   -614.99205     91.06472   -523.92733    2762.7738    180894.78    10.472245    642.20231 
   71100    -612.9148    82.525835   -530.38896    2503.7162    179882.38    10.472245    643.69057 
   71200   -614.49719    81.914794    -532.5824    2485.1781    177100.62    10.472245    646.32306 
   71300   -607.75283    81.290535   -526.46229     2466.239    187605.18    10.472245    647.66664 
   71400   -608.71004    87.388831   -521.32121    2651.2526    186942.62    10.472245     647.8329 
   71500   -617.75794    82.387494   -535.37044    2499.5192    172304.78    10.472245    650.16537 
   71600   -609.69888    84.347124   -525.35175    2558.9716     180175.3    10.472245    652.10083 
   71700   -615.01224     84.27299   -530.73925    2556.7224    177808.29    10.472245    654.11621 
   71800   -615.70971    79.074315   -536.63539    2399.0021    175412.29    10.472245    652.33642 
   71900   -612.42326    86.089044   -526.33421    2611.8189    182692.93    10.472245    654.99244 
   72000   -603.90314    84.974409   -518.92873    2578.0025    192208.01    10.472245    654.69057 
   72100   -607.03633     84.63562   -522.40071    2567.7241    188042.24    10.472245    656.27989 
   72200   -613.37421    80.729256   -532.64496    2449.2106    177903.13    10.472245     654.9359 
   72300    -602.5388    81.325299    -521.2135    2467.2937    191892.88    10.472245    650.33253 
   72400    -613.5869    90.151719   -523.43518    2735.0747    179520.97    10.472245    648.63525 
   72500    -612.3065    80.731172   -531.57533    2449.2687    178371.08    10.472245    654.60349 
   72600   -620.37458    81.983423   -538.39116    2487.2602    168597.79    10.472245    652.82521 
   72700   -619.99794    80.922691   -539.07525    2455.0791    170711.45    10.472245    652.12707 
   72800   -613.27355    83.502032   -529.77152    2533.3327    180304.03    10.472245    653.03218 
   72900   -613.95691     83.13294   -530.82397    2522.1349    177222.01    10.472245    654.11895 
   73000   -614.39396    75.644474   -538.74949    2294.9456    173019.42    10.472245     655.0471 
   73100   -610.29564    86.044089   -524.25155    2610.4551    186559.98    10.472245    654.98279 
   73200   -611.03669    80.827369   -530.20932    2452.1872    180054.88    10.472245     658.1329 
   73300   -613.37416    82.765971   -530.60819    2511.0016    179215.13    10.472245    661.63356 
   73400   -615.05861    87.970873   -527.08773    2668.9109    176672.58    10.472245    665.54153 
   73500   -611.32184    79.238432   -532.08341    2403.9811    180273.62    10.472245    665.51794 
   73600   -615.17043    76.406391   -538.76404     2318.061    173596.96    10.472245    665.01338 
   73700   -612.14096    88.146821   -523.99414     2674.249     180951.9    10.472245    669.83434 
   73800   -613.04842    84.221054   -528.82737    2555.1468    180302.45    10.472245    670.79063 
   73900   -616.43622    79.483126    -536.9531    2411.4048    174664.61    10.472245    671.99016 
   74000   -606.60775    79.511347    -527.0964     2412.261    186815.01    10.472245    674.48868 
   74100   -606.66233     85.39915   -521.26318    2590.8885    189286.89    10.472245    676.94849 
   74200   -610.33812    74.961834   -535.37629    2274.2353    180990.12    10.472245    674.64657 
   74300   -610.98642     82.33053   -528.65589     2497.791    181030.31    10.472245    678.06363 
   74400   -604.40261    88.555692   -515.84691    2686.6535    190705.62    10.472245    677.49155 
   74500    -614.6205    81.491503     -533.129    2472.3361    177988.05    10.472245    679.98702 
   74600    -615.4996    81.377835   -534.12177    2468.8876    175739.04    10.472245    684.14429 
   74700   -609.54293    84.918834   -524.62409    2576.3164    183810.76    10.472245    684.66535 
   74800   -616.19556    82.381211   -533.81435    2499.3286    173954.32    10.472245    681.74537 
   74900    -617.0901    76.806923   -540.28317    2330.2126    170539.18    10.472245    682.62871 
   75000   -614.70019    84.700933   -529.99926    2569.7056    178813.83    10.472245    685.11892 
   75100   -612.51445    84.020606   -528.49385    2549.0655    181868.93    10.472245    686.67296 
   75200   -611.20841    88.288119   -522.92029    2678.5357    181744.14    10.472245    689.24459 
   75300   -616.91912    80.873283   -536.04584    2453.5802    174984.86    10.472245    690.25628 
   75400   -609.64216    84.336418   -525.30574    2558.6468    184006.29    10.472245    691.61495 
   75500   -610.80293    83.605143   -527.19779    2536.4609    180472.85    10.472245    692.49801 
   75600   -618.72169    83.046511   -535.67518    2519.5128    172387.77    10.472245    695.92263 
   75700   -610.63351     87.70509   -522.92842    2660.8475     183383.8    10.472245    697.67878 
   75800   -608.05302     83.33027   -524.72274    2528.1217    187592.25    10.472245     698.8928 
   75900   -612.44942    81.030214   -531.41921    2458.3412    176366.71    10.472245     703.0056 
   76000   -620.19314    84.384378   -535.80877    2560.1018    170718.03    10.472245     702.8938 
   76100   -613.03271    71.413647   -541.61906    2166.5883    174702.64    10.472245    703.73288 
   76200   -609.50538    82.138231   -527.36715    2491.9569    184379.76    10.472245     703.8492 
   76300   -608.47888    84.206009   -524.27287    2554.6903     184318.4    10.472245    702.92748 
   76400    -612.6657    74.918124   -537.74758    2272.9091    175102.09    10.472245    703.89709 
   76500   -612.90185    86.759497   -526.14235    2632.1595    179721.61    10.472245    701.86531 
   76600   -615.15124    87.832705   -527.31854    2664.7191    176851.16    10.472245    702.82073 
   76700   -614.34646    75.730808   -538.61565    2297.5648     176230.7    10.472245    704.23688 
   76800   -605.04118    83.483124   -521.55805     2532.759    189636.51    10.472245    704.49797 
   76900    -610.0513    84.549364   -525.50194    2565.1072    185773.03    10.472245    704.44523 
   77000   -618.86486    85.210237   -533.65462    2585.1572     174009.7    10.472245    705.77422 
   77100   -614.13815    89.523031   -524.61512    2716.0012    178414.45    10.472245    704.84846 
   77200   -615.84847    88.304102   -527.54437    2679.0206     177626.9    10.472245    700.65973 
   77300   -615.62304     79.35763   -536.26541    2407.5974    174903.44    10.472245    704.27482 
   77400   -610.11554    87.260518   -522.85502    2647.3598    185326.51    10.472245    708.52194 
   77500   -615.46876    85.843775   -529.62498    2604.3778    177172.18    10.472245    710.91355 
   77600   -611.57652    80.435067   -531.14146    2440.2853     179819.1    10.472245    712.99411 
   77700    -595.3876    80.405098    -514.9825    2439.3761    201959.65    10.472245    712.20093 
   77800   -610.64123    82.654661   -527.98657    2507.6246    181617.27    10.472245    710.65165 
   77900   -611.50165    80.970919   -530.53073    2456.5423    179774.26    10.472245    714.71314 
   78000   -609.54999    89.732983   -519.81701    2722.3708    185626.43    10.472245    715.94387 
[...]
   81400   -615.03225    85.115675   -529.91658    2582.2883    174142.58    10.472245    756.07617 
   81500   -612.20399     85.93927   -526.26472     2607.275     181734.6    10.472245     756.4013 
   81600    -618.1649    83.768334   -534.39657    2541.4119    174148.02    10.472245    755.65879 
   81700   -611.98773    86.398285   -525.58945    2621.2009    182512.78    10.472245    759.36679 
   81800   -616.63964    81.853023   -534.78661    2483.3041    175424.28    10.472245    759.83766 
   81900   -619.02195    83.721166   -535.30078    2539.9809    173157.93    10.472245    761.81833 
   82000   -609.99009     85.79348   -524.19661    2602.8519    184442.07    10.472245    763.46636 
   82100    -602.9819    75.692214   -527.28969    2296.3939    189788.42    10.472245    762.59831 
   82200    -604.3735    74.194644   -530.17885    2250.9598    189212.93    10.472245    763.26569 
   82300   -621.58216    78.529682   -543.05248    2382.4787    168765.59    10.472245    764.33297 
   82400   -616.08092    87.449372   -528.63155    2653.0894    176612.46    10.472245    764.61445 
   82500   -606.15403    79.112062   -527.04197    2400.1472    186770.77    10.472245    762.43647 
   82600   -619.60716     82.19195   -537.41521    2493.5867    170207.21    10.472245    762.97612 
   82700   -618.35676    84.307809   -534.04895    2557.7788    172721.02    10.472245    763.77064 
   82800   -615.68217     93.56989   -522.11228    2838.7771    176343.48    10.472245    766.48222 
   82900   -610.67853    77.755937   -532.92259    2359.0044    182544.48    10.472245    764.00475 
   83000   -616.70806     86.70123   -530.00684    2630.3918     176363.1    10.472245    759.82219 
   83100   -611.96844    81.467893   -530.50054    2471.6198     180393.3    10.472245    762.59583 
   83200   -602.61917    86.319845   -516.29933    2618.8211    196046.21    10.472245    764.57376 
   83300   -614.29496    82.899777   -531.39519    2515.0611    178690.15    10.472245    761.52206 
   83400   -617.75264    88.062802   -529.68983    2671.6999    176077.92    10.472245    766.79154 
   83500   -606.26257     84.05466   -522.20791    2550.0986    185684.47    10.472245    775.21193 
   83600   -608.79309     75.61034   -533.18275      2293.91    183603.22    10.472245    777.63249 
   83700   -609.88247    81.929236   -527.95323    2485.6163    182436.95    10.472245    782.88171 
   83800   -607.98947    78.815065   -529.17441    2391.1368    185676.21    10.472245    782.93226 
   83900   -611.71198    75.698449   -536.01353    2296.5831    178341.64    10.472245    783.57287 
   84000   -608.41072    87.420397   -520.99032    2652.2103    187080.92    10.472245    781.08858 
   84100   -605.57365    84.915069   -520.65859    2576.2022    189430.42    10.472245    782.06935 
   84200   -613.93713    83.496686   -530.44045    2533.1705    178700.29    10.472245    785.99499 
   84300   -617.09606    81.425251   -535.67081    2470.3261    174604.24    10.472245    789.31088 
   84400    -610.5623    90.414257   -520.14804    2743.0397    184412.31    10.472245    791.35798 
   84500   -608.98479    79.205118   -529.77967    2402.9704    185191.01    10.472245    793.07039 
   84600   -612.18607      78.9527   -533.23337    2395.3124    179316.22    10.472245    793.64074 
   84700   -611.08991    77.094212    -533.9957    2338.9285    180836.36    10.472245    794.49103 
   84800   -608.21839    84.398426   -523.81996     2560.528    186406.18    10.472245    799.21864 
   84900     -608.127    79.439777   -528.68723    2410.0896    184142.68    10.472245    801.04755 
   85000   -612.91195    75.672064   -537.23988    2295.7826    177430.67    10.472245    803.45982 
   85100   -608.78094    84.424564   -524.35638     2561.321    183542.16    10.472245    803.58191 
   85200   -617.59474    80.886996   -536.70774    2453.9962    175507.69    10.472245    805.71448 
   85300    -618.1834    82.540451   -535.64295    2504.1597    173693.99    10.472245     806.0558 
   85400   -613.29527    85.506885   -527.78838    2594.1571    179150.95    10.472245    804.97601 
   85500   -616.29515    77.815238   -538.47992    2360.8034    173417.09    10.472245    804.16793 
   85600   -614.20788    79.105807   -535.10207    2399.9575    176435.09    10.472245    808.01784 
   85700    -607.5955    81.184717   -526.41079    2463.0286    186889.99    10.472245    813.01963 
   85800   -615.82704    78.242082   -537.58496    2373.7533    174062.43    10.472245    817.44708 
   85900    -609.2147    82.834305   -526.38039    2513.0748    184130.12    10.472245    815.06201 
   86000   -612.47335    85.306348     -527.167    2588.0731    183497.55    10.472245    818.54372 
   86100   -615.54841    79.326274   -536.22213    2406.6461    173891.35    10.472245    821.21834 
   86200   -610.26647    88.755877   -521.51059    2692.7269    182878.85    10.472245    821.57205 
   86300   -613.53242    84.712271   -528.82015    2570.0496    179691.23    10.472245    816.13613 
   86400    -617.3522     83.06197   -534.29023    2519.9818    174424.13    10.472245    817.50949 
   86500   -611.67875    78.830899   -532.84785    2391.6172    179174.59    10.472245     818.0409 
   86600   -612.98826     91.20723   -521.78103    2767.0974    184714.11    10.472245    818.28255 
   86700   -610.18769    76.245052   -533.94264    2313.1662    178348.15    10.472245    819.27608 
   86800   -609.80807    76.480982   -533.32708     2320.324    180809.23    10.472245    819.05577 
   86900   -607.42023    87.751315   -519.66892    2662.2499    187396.46    10.472245    823.09772 
   87000   -612.24003    79.782815   -532.45721    2420.4969    180541.35    10.472245    826.38138 
   87100   -611.01208    81.530686    -529.4814    2473.5248    180413.74    10.472245    826.52962 
   87200   -612.13965    86.571877   -525.56778    2626.4674    182738.93    10.472245    827.01821 
   87300   -619.47533    84.544569   -534.93076    2564.9618    172110.26    10.472245    826.32447 
   87400   -611.22237    79.556523   -531.66585    2413.6315    182416.23    10.472245     827.2962 
   87500   -609.42997    85.414321   -524.01565    2591.3488    183695.58    10.472245    830.02295 
   87600   -615.66913    77.469165   -538.19996    2350.3041    174166.72    10.472245    831.01169 
   87700   -605.46754     77.52063   -527.94691    2351.8655    188918.29    10.472245    834.13444 
   87800   -610.56013    83.846965   -526.71316    2543.7974     184763.6    10.472245    833.09488 
   87900   -612.57788    77.556896   -535.02099    2352.9657    177967.96    10.472245     831.4128 
   88000   -623.42795    74.724982   -548.70297    2267.0495    165699.78    10.472245    829.28157 
   88100    -611.7252    79.212171   -532.51303    2403.1844    181472.43    10.472245    832.73509 
   88200   -609.50819    86.086052   -523.42214    2611.7282    183853.61    10.472245     833.3734 
   88300   -616.14343    78.551758   -537.59167    2383.1484    176321.63    10.472245    830.96197 
   88400   -609.73929    77.599406   -532.13989    2354.2554    184473.18    10.472245    829.86722 
   88500    -614.6631    89.215442   -525.44766    2706.6694    177665.06    10.472245    829.68783 
   88600   -616.17517    74.875284   -541.29988    2271.6094    173500.47    10.472245    829.33994 
   88700   -608.40881     80.02402   -528.38479    2427.8148    185234.64    10.472245    831.83148 
   88800   -607.63321    84.273384   -523.35982    2556.7344    186741.88    10.472245    833.70014 
   88900   -616.03265    76.473442   -539.55921    2320.0953    173213.41    10.472245     835.3062 
   89000    -615.8874    86.727206    -529.1602    2631.1798    179088.01    10.472245    836.11577 
   89100   -614.26503     79.88767   -534.37736    2423.6781    176420.53    10.472245    841.72073 
   89200   -615.86014    76.029425   -539.83071    2306.6244    175822.56    10.472245    847.90016 
   89300   -614.84889    86.420136   -528.42876    2621.8638    177849.81    10.472245    848.76087 
   89400   -621.09806    81.382898   -539.71516    2469.0412    169797.25    10.472245    850.03927 
   89500   -613.72943    82.558619   -531.17081    2504.7109    178416.85    10.472245    850.14857 
   89600    -619.7228    87.239094   -532.48371    2646.7098    172728.97    10.472245    846.69524 
   89700   -613.22468    77.192158   -536.03252    2341.9001    178508.19    10.472245    849.95392 
   89800   -612.07201    86.456298   -525.61572    2622.9609    182771.61    10.472245    849.87746 
   89900   -617.17898     77.54387   -539.63511    2352.5705    174906.89    10.472245    849.82001 
   90000   -618.57856    85.815167    -532.7634    2603.5099    172835.44    10.472245    851.59348 
   90100   -611.68002    80.850921    -530.8291    2452.9017    180643.91    10.472245    852.60303 
   90200   -613.26561    90.291993   -522.97362    2739.3304    180480.22    10.472245     853.6127 
   90300     -608.591    82.711941   -525.87906    2509.3624    185465.32    10.472245    853.25016 
   90400   -620.84143    83.257574   -537.58386    2525.9162    169406.42    10.472245    856.17787 
   90500   -617.69382    87.269515    -530.4243    2647.6327    175322.07    10.472245    859.35274 
   90600   -600.59094    81.493621   -519.09732    2472.4003    193355.42    10.472245    858.41284 
   90700   -613.93864    81.676891   -532.26175    2477.9605     179829.1    10.472245    856.42901 
   90800   -612.46299    83.647038   -528.81596    2537.7319     178923.7    10.472245    855.59843 
   90900   -611.85818    89.356729   -522.50145    2710.9558    180056.95    10.472245    856.38043 
   91000   -616.16773    81.096546   -535.07119    2460.3537    178055.68    10.472245    856.91574 
   91100   -611.60278    83.862835   -527.73994    2544.2789    182721.99    10.472245    858.55329 
   91200    -605.9277    82.447239   -523.48046    2501.3318    186771.64    10.472245    857.36879 
   91300   -611.12881    78.998502   -532.13031     2396.702    179915.53    10.472245    862.76467 
   91400   -612.55874    83.902114   -528.65662    2545.4706    180439.29    10.472245    862.15018 
   91500   -606.17506    87.972493   -518.20256    2668.9601    190366.77    10.472245    866.40887 
   91600   -603.97764    77.027131   -526.95051    2336.8934    189244.72    10.472245    864.59522 
   91700   -613.26139    82.443752   -530.81763     2501.226    178189.77    10.472245    864.82079 
   91800   -611.20608    88.841669   -522.36441    2695.3297    181326.59    10.472245    867.74725 
   91900   -606.12618     75.57963   -530.54655    2292.9783    186312.64    10.472245    864.19545 
   92000   -614.06887    80.829601   -533.23927    2452.2549    179047.33    10.472245    866.38732 
   92100   -604.55753    85.468843   -519.08868    2593.0029    190348.89    10.472245    865.07917 
   92200   -619.76448    89.329694   -530.43479    2710.1356    172675.22    10.472245    867.26285 
   92300   -613.22639     82.19895   -531.02744     2493.799    177377.71    10.472245    870.06636 
   92400   -608.60669    83.478183   -525.12851    2532.6091    185409.77    10.472245     876.6184 
   92500   -615.84409    77.917858   -537.92624    2363.9168    175555.07    10.472245    875.35459 
   92600   -611.16725    82.834167   -528.33308    2513.0706     181149.5    10.472245      880.776 
   92700   -619.11865    85.838924   -533.27973    2604.2306    173732.33    10.472245    878.28368 
   92800   -614.26263    76.933286   -537.32935    2334.0463    175916.87    10.472245    880.40184 
   92900   -617.88982     91.60773   -526.28209     2779.248    175859.06    10.472245    884.66418 
   93000   -612.55739    81.637017   -530.92037    2476.7508    179859.23    10.472245    885.86474 
   93100   -614.93778    78.914137   -536.02364    2394.1425    175516.99    10.472245    886.52915 
   93200   -609.45195    86.684022   -522.76793    2629.8697    183564.73    10.472245    887.81601 
   93300   -613.95044    80.732865   -533.21758    2449.3201    178028.62    10.472245    887.33222 
   93400   -613.16596    80.442475   -532.72349    2440.5101    175315.83    10.472245    891.49538 
   93500   -612.18119    83.736465   -528.44472     2540.445     181387.4    10.472245    890.20938 
   93600    -601.5821    87.989431   -513.59267     2669.474    195434.21    10.472245    890.15389 
   93700   -611.79132    88.897198   -522.89412    2697.0143    182112.21    10.472245    891.96153 
   93800   -612.53932    78.610714   -533.92861     2384.937    178087.13    10.472245    891.92808 
   93900   -611.17203    88.009403   -523.16262    2670.0799    184129.14    10.472245    895.57336 
   94000   -608.21347    83.568712   -524.64475    2535.3556     184578.7    10.472245    894.34349 
   94100    -608.5741    79.167934   -529.40617    2401.8423    187646.42    10.472245     897.1173 
   94200   -610.59291    77.619442   -532.97347    2354.8633    182257.51    10.472245    902.17457 
   94300   -613.92963    76.631683   -537.29794    2324.8961    177277.22    10.472245      906.325 
   94400   -612.54725    88.631969   -523.91529    2688.9677    182094.45    10.472245    907.80017 
   94500   -616.00524     84.53235   -531.47289    2564.5911    179118.38    10.472245    910.51202 
   94600   -608.76084    88.452947   -520.30789    2683.5364    184770.07    10.472245     911.9611 
   94700   -611.08061    81.441166   -529.63944    2470.8089    179657.87    10.472245    911.28957 
   94800   -612.44885     84.71494   -527.73391    2570.1306    181836.76    10.472245    913.16255 
   94900   -615.93236    88.989233   -526.94313    2699.8065    176456.98    10.472245    918.19357 
   95000   -615.01522    77.190492   -537.82473    2341.8495    176031.72    10.472245    919.65934 
   95100   -608.77896    83.516399   -525.26256    2533.7685    185983.47    10.472245     917.1441 
   95200   -609.08409    77.180551   -531.90354    2341.5479    182857.69    10.472245    916.52492 
   95300   -617.56352    79.242921    -538.3206    2404.1173    172416.16    10.472245    916.35444 
   95400   -611.20006    84.315932   -526.88413    2558.0253    182523.29    10.472245    917.65921 
   95500   -611.41559    86.799964   -524.61563    2633.3872     182705.5    10.472245    914.27129 
   95600   -621.50372    82.053437   -539.45029    2489.3844    167582.47    10.472245    915.83919 
   95700   -618.29064    91.546414   -526.74423    2777.3878    176110.33    10.472245    915.03453 
   95800   -616.01858    87.823276    -528.1953    2664.4331    177185.28    10.472245    918.75513 
   95900   -606.98306     78.00455   -528.97851    2366.5469    186105.54    10.472245    916.67531 
   96000   -611.56062    75.252959   -536.30766    2283.0676    180556.96    10.472245    919.13766 
   96100   -613.68066    80.527779   -533.15289    2443.0981    178846.58    10.472245    925.60533 
   96200   -611.75895    82.348904   -529.41004    2498.3484    179098.43    10.472245    929.05993 
   96300   -614.85752    82.420741   -532.43678    2500.5279    176398.14    10.472245    932.61184 
   96400   -613.25248     77.99459   -535.25789    2366.2447    178445.23    10.472245    935.36622 
   96500   -608.65873    83.813171   -524.84556    2542.7722    184784.81    10.472245     935.9642 
   96600   -619.63149    78.908103   -540.72339    2393.9594    173201.75    10.472245    938.00866 
   96700   -611.50382    82.222012   -529.28181    2494.4987     180437.1    10.472245    937.74264 
   96800   -607.97834    81.221266   -526.75708    2464.1375     186933.8    10.472245    940.90063 
   96900   -611.04838    73.904577    -537.1438    2242.1596    177866.85    10.472245    941.84388 
   97000   -611.07325    87.604446   -523.46881    2657.7941    182600.06    10.472245    942.64791 
   97100   -614.45184    83.414463   -531.03738     2530.676    178377.25    10.472245    942.69129 
   97200   -614.40763    83.230846   -531.17679    2525.1053    177052.92    10.472245    940.54521 
   97300   -610.58341    80.681498   -529.90191    2447.7617    182001.26    10.472245    939.06177 
   97400   -609.74817    79.441515   -530.30665    2410.1424    183919.01    10.472245    939.18462 
   97500   -616.35207    82.441323   -533.91074    2501.1523    174153.13    10.472245    939.51706 
   97600   -607.58345    84.424066   -523.15939    2561.3059    188844.99    10.472245    941.66023 
   97700   -603.77508    77.199872   -526.57521    2342.1341    187443.46    10.472245    944.52258 
   97800   -615.20476    83.413946   -531.79082    2530.6603    178734.29    10.472245    945.34671 
   97900   -606.72636    76.110986   -530.61538    2309.0989    185487.79    10.472245    946.31298 
   98000   -611.00222    74.507834   -536.49439    2260.4615    178466.64    10.472245    946.05853 
   98100   -613.93519    81.398396   -532.53679    2469.5113    179614.48    10.472245     946.3012 
   98200    -610.6461    90.368162   -520.27794    2741.6413    182626.53    10.472245    946.74277 
   98300   -611.86181    84.018315   -527.84349     2548.996    178887.98    10.472245    949.46481 
   98400   -610.06284    80.099155   -529.96369    2430.0942    182376.77    10.472245    952.20044 
   98500   -604.93561    78.885663   -526.04995    2393.2786    188299.84    10.472245    953.52794 
   98600   -606.77266    84.089131   -522.68353    2551.1444    188526.54    10.472245    951.90868 
   98700   -617.35583    84.619025   -532.73681    2567.2207    174266.76    10.472245     954.8732 
   98800   -605.77206    78.362691   -527.40937    2377.4124    187581.67    10.472245    953.91842 
   98900   -605.06386    85.506293   -519.55756    2594.1391    186949.46    10.472245    957.35928 
   99000   -613.58548    81.893566   -531.69192    2484.5341    177116.07    10.472245    957.47697 
   99100   -614.84318    90.534845   -524.30834    2746.6982    180452.19    10.472245    960.83329 
   99200   -608.88538    83.932045   -524.95333    2546.3787    182261.52    10.472245     961.3562 
   99300   -611.51934     73.37535   -538.14399    2226.1036    179189.17    10.472245    959.03397 
   99400   -614.68807    88.983367   -525.70471    2699.6286    178746.44    10.472245    961.62792 
   99500   -608.68703    79.458025     -529.229    2410.6433    183507.36    10.472245    958.12757 
   99600   -621.70124    79.571077   -542.13017    2414.0731       169911    10.472245    959.09575 
   99700   -617.71084     80.79044    -536.9204    2451.0668    170262.51    10.472245    961.72715 
   99800   -613.59957    89.571297   -524.02827    2717.4655    181495.09    10.472245    965.05893 
   99900   -611.12066    76.273964    -534.8467    2314.0434    176553.95    10.472245     970.0389 
  100000   -617.19231    85.374268   -531.81805    2590.1337    175623.61    10.472245    974.60504 
Loop time of 74.4348 on 1 procs for 100000 steps with 256 atoms

Performance: 580.373 ns/day, 0.041 hours/ns, 1343.457 timesteps/s
100.0% CPU use with 1 MPI tasks x no OpenMP threads

MPI task timing breakdown:
Section |  min time  |  avg time  |  max time  |%varavg| %total
---------------------------------------------------------------
Pair    | 44.252     | 44.252     | 44.252     |   0.0 | 59.45
Neigh   | 3.8235     | 3.8235     | 3.8235     |   0.0 |  5.14
Comm    | 0.86776    | 0.86776    | 0.86776    |   0.0 |  1.17
Output  | 0.0261     | 0.0261     | 0.0261     |   0.0 |  0.04
Modify  | 25.323     | 25.323     | 25.323     |   0.0 | 34.02
Other   |            | 0.1428     |            |       |  0.19

Nlocal:    256 ave 256 max 256 min
Histogram: 1 0 0 0 0 0 0 0 0 0
Nghost:    1564 ave 1564 max 1564 min
Histogram: 1 0 0 0 0 0 0 0 0 0
Neighs:    13471 ave 13471 max 13471 min
Histogram: 1 0 0 0 0 0 0 0 0 0

Total # of neighbors = 13471
Ave neighs/atom = 52.6211
Neighbor list builds = 6941
Dangerous builds = 44
Total wall time: 0:01:14
