LAMMPS (3 Mar 2020)

    # ---------- Initialize simulation ---------------------
    units metal
    atom_style atomic
    dimension  3
    boundary   p p p
    read_data /home/modeler/RemLabs/Lab4/Problem2A_v1_size_3/temp_2320/lammps.data
  orthogonal box = (0 0 0) to (12.27 12.27 12.27)
  1 by 1 by 1 MPI processor grid
  reading atoms ...
  108 atoms
  read_data CPU = 0.000938886 secs

    pair_style eam
    pair_coeff * * /usr/share/lammps-stable/potentials/Ag_u3.eam
Reading potential file /usr/share/lammps-stable/potentials/Ag_u3.eam with DATE: 2007-06-11

    velocity  all create 2320 87287 dist gaussian

    # ---------- Describe computed properties------------------
    compute msdall all msd
    thermo_style custom step pe ke etotal temp press density c_msdall[4]
    thermo 100

    # ---------- Specify ensemble  ---------------------
    #fix  1 all nve
    fix  1 all nvt temp 2320 2320 0.25

    # --------- Compute RDF ---------------
    compute rdfall all rdf 100 1 1
    fix 2 all ave/time 1 125000 125000 c_rdfall[*] file /home/modeler/RemLabs/Lab4/Problem2A_v1_size_3/temp_2320/lammps.rdf mode vector

    # --------- Run -------------
    timestep 0.005
    run 500000
Neighbor list info ...
  update every 1 steps, delay 10 steps, check yes
  max neighbors/atom: 2000, page size: 100000
  master list distance cutoff = 7.55
  ghost atom cutoff = 7.55
  binsize = 3.775, bins = 4 4 4
  2 neighbor lists, perpetual/occasional/extra = 1 1 0
  (1) pair eam, perpetual
      attributes: half, newton on
      pair build: half/bin/atomonly/newton
      stencil: half/bin/3d/newton
      bin: standard
  (2) compute rdf, occasional, copy from (1)
      attributes: half, newton on
      pair build: copy
      stencil: none
      bin: none
Per MPI rank memory allocation (min/avg/max) = 3.723 | 3.723 | 3.723 Mbytes
Step PotEng KinEng TotEng Temp Press Density c_msdall[4] 
       0       -307.8    32.087538   -275.71246         2320    18553.269    10.472245            0 
     100   -287.20901    23.396054   -263.81295    1691.5865    84572.489    10.472245   0.11411657 
     200   -276.89273     31.10118   -245.79155    2248.6841    119533.52    10.472245   0.15345677 
     300   -272.23646    36.060902   -236.17556     2607.283    135337.75    10.472245   0.24998982 
     400   -273.24103    29.514861   -243.72617    2133.9898    127591.05    10.472245   0.24293248 
     500    -277.1084    30.177758   -246.93065    2181.9186    117992.51    10.472245   0.19890155 
     600   -270.39647    31.416159   -238.98031    2271.4578    144382.87    10.472245   0.25013548 
     700   -272.10266    30.860041   -241.24262    2231.2492     134363.9    10.472245   0.26034388 
     800   -277.58922     31.05148   -246.53774    2245.0907    114372.52    10.472245   0.18720096 
     900   -274.66022    33.706113    -240.9541    2437.0265    127881.51    10.472245     0.192382 
    1000   -273.39376    31.181204   -242.21256      2254.47    132461.25    10.472245   0.22013684 
    1100   -274.24857    31.942186   -242.30638    2309.4907    128266.99    10.472245   0.30223512 
    1200   -269.19234    35.313492   -233.87885    2553.2436     146469.9    10.472245   0.30520983 
    1300   -277.31883    35.700113   -241.61872    2581.1971    121211.49    10.472245   0.16293118 
    1400   -275.64227    29.841762   -245.80051    2157.6254    122667.59    10.472245   0.19473627 
    1500    -272.3221    32.327614   -239.99449     2337.358    136054.47    10.472245   0.27063688 
    1600   -268.68541    30.208107    -238.4773     2184.113    144387.85    10.472245    0.3055373 
    1700   -275.31299    32.965616   -242.34738    2383.4869    123752.17    10.472245   0.18146142 
    1800   -275.42171    31.975337   -243.44638    2311.8876    126500.52    10.472245   0.27998122 
    1900   -270.34598    33.268682    -237.0773    2405.3993    140333.85    10.472245   0.25234735 
    2000   -275.35523    35.682714   -239.67252    2579.9391    125469.09    10.472245   0.22964921 
    2100   -275.13718    33.211908   -241.92527    2401.2944    128767.82    10.472245   0.24239878 
    2200   -277.56104    27.446424   -250.11462    1984.4372     115709.1    10.472245     0.192918 
    2300   -275.70129    31.418278   -244.28301     2271.611    123563.28    10.472245   0.22610975 
    2400   -272.77721    31.242917   -241.53429     2258.932    134125.11    10.472245   0.20893034 
    2500   -279.28764    33.235036    -246.0526    2402.9666    113955.33    10.472245   0.15650522 
    2600   -280.33341    30.222196   -250.11121    2185.1316    107937.21    10.472245   0.18406535 
    2700   -271.77905    31.562997   -240.21605    2282.0745    133531.59    10.472245   0.26824277 
    2800   -273.28759    31.121703   -242.16588     2250.168    131870.75    10.472245   0.22556835 
    2900   -273.69491    25.505177   -248.18974    1844.0807    126828.49    10.472245   0.20215173 
    3000   -273.07992    30.500288   -242.57963    2205.2383    135986.45    10.472245   0.20373815 
    3100   -276.33602    33.327339   -243.00868    2409.6403    122202.96    10.472245   0.17009145 
    3200   -276.28555    29.238987   -247.04656    2114.0434    121503.72    10.472245   0.19578843 
    3300   -275.07565     35.94856    -239.1271    2599.1604    127964.39    10.472245    0.1872311 
    3400     -271.934    31.399925   -240.53407    2270.2841    136160.99    10.472245   0.25755327 
    3500   -279.36698    30.012722   -249.35426    2169.9862    110262.69    10.472245   0.15663303 
    3600   -275.97014    33.603149   -242.36699     2429.582    124701.85    10.472245   0.16409385 
    3700   -277.20371    34.029281   -243.17443    2460.3923    120855.99    10.472245   0.20760679 
    3800   -280.23324    31.389074   -248.84416    2269.4995    108985.75    10.472245   0.21191126 
    3900    -275.6362    32.277595    -243.3586    2333.7415    124134.17    10.472245   0.21400878 
    4000   -275.65586    34.915267   -240.74059     2524.451    124193.53    10.472245   0.22235873 
    4100   -276.53636    28.681786   -247.85458    2073.7566    120826.34    10.472245   0.21249246 
    4200   -278.13265    32.043004   -246.08964    2316.7801    115672.31    10.472245   0.19412634 
    4300    -273.7299    32.245153   -241.48475    2331.3959    133069.71    10.472245   0.21502564 
    4400   -274.88454    28.579174   -246.30536    2066.3375    125847.55    10.472245   0.17633026 
    4500   -275.84396    28.082972   -247.76098     2030.461    125218.87    10.472245   0.16478856 
    4600   -276.43281    38.347716   -238.08509    2772.6247    126250.66    10.472245    0.1691427 
    4700   -274.48664    29.829622   -244.65701    2156.7477    129045.14    10.472245   0.18267022 
    4800   -276.46947    31.206011   -245.26346    2256.2636    122081.66    10.472245   0.19944185 
    4900   -274.32924    32.664335   -241.66491    2361.7037    128276.99    10.472245   0.19988856 
    5000   -278.92618      32.2311   -246.69508    2330.3798     117261.9    10.472245   0.14475777 
    5100   -276.36229    30.283324   -246.07897    2189.5513    121184.42    10.472245   0.19739828 
    5200   -275.92454     34.33605   -241.58849    2482.5723     125652.9    10.472245   0.21231797 
    5300   -272.86262    29.138519    -243.7241    2106.7794    130344.95    10.472245    0.2254491 
    5400   -277.21274    30.779716   -246.43303    2225.4416    119450.37    10.472245   0.15813939 
    5500   -271.05594     32.71661   -238.33933    2365.4833    138053.32    10.472245   0.28802698 
    5600   -273.75439    33.631417   -240.12297    2431.6258    133408.37    10.472245   0.22246371 
    5700   -274.41494    31.127637    -243.2873     2250.597    127955.09    10.472245   0.23846012 
    5800   -273.17606    32.672364    -240.5037    2362.2842    133510.85    10.472245    0.2155484 
    5900    -276.3923    30.483671   -245.90863    2204.0368    121248.22    10.472245   0.17578646 
    6000   -273.79995    28.301441   -245.49851    2046.2568    126784.37    10.472245    0.2226265 
    6100    -273.0182    32.912407   -240.10579    2379.6398    130947.63    10.472245   0.25628317 
    6200   -272.15277    29.726031   -242.42674    2149.2578    133844.29    10.472245   0.24788431 
    6300   -278.86449    29.202457   -249.66204    2111.4022    112121.42    10.472245   0.17196473 
    6400   -274.24012    32.696367   -241.54375    2364.0196    128538.95    10.472245   0.24753945 
    6500   -270.55853     29.20987   -241.34866    2111.9382    141917.83    10.472245   0.23121865 
    6600   -275.67333       27.422   -248.25133    1982.6712     121336.7    10.472245    0.1880527 
    6700   -275.22894    31.478339    -243.7506    2275.9535    125879.69    10.472245    0.2095494 
    6800   -272.29871    33.879516   -238.41919     2449.564    134191.95    10.472245   0.25368732 
    6900   -275.02036     29.03286    -245.9875      2099.14    124991.85    10.472245    0.1771771 
    7000   -276.16645    31.411878   -244.75457    2271.1482    121680.46    10.472245   0.17196745 
    7100    -273.7635     35.78267   -237.98083    2587.1662    135004.77    10.472245   0.19843559 
    7200   -275.78997    29.810091   -245.97988    2155.3355    123937.59    10.472245   0.18275484 
    7300    -274.0453    31.770403    -242.2749    2297.0704     127528.5    10.472245   0.21288209 
    7400   -273.91079    35.306438   -238.60435    2552.7335    133281.07    10.472245   0.20960896 
    7500   -274.75888    30.628462   -244.13042    2214.5055    128509.81    10.472245   0.24720071 
    7600   -276.82964    33.864042   -242.96559    2448.4452    122700.24    10.472245   0.17221397 
    7700   -269.09095    32.639648    -236.4513    2359.9187    141799.46    10.472245   0.23223347 
    7800   -277.66875     33.08772   -244.58103    2392.3153    118977.29    10.472245   0.19182788 
    7900   -275.31473    30.901243   -244.41348    2234.2282    124845.28    10.472245    0.1990197 
    8000   -269.51531    35.029614    -234.4857    2532.7186    146209.86    10.472245   0.24639793 
    8100   -277.69619    32.355875   -245.34031    2339.4013    118405.85    10.472245   0.19322784 
    8200    -273.1653    28.661811   -244.50349    2072.3123    130718.54    10.472245   0.24136281 
    8300   -273.00987    33.905994   -239.10387    2451.4784    135469.11    10.472245   0.19631273 
    8400   -275.68908    28.778626   -246.91046    2080.7583    125610.88    10.472245   0.20563414 
    8500   -276.06128    31.992521   -244.06876      2313.13    122914.09    10.472245   0.19190162 
    8600   -272.67553    33.578123   -239.09741    2427.7726    134718.27    10.472245   0.20438064 
    8700   -276.32135    31.992853    -244.3285     2313.154    121003.87    10.472245   0.18193316 
    8800   -279.35703    32.518471   -246.83856    2351.1574    112958.32    10.472245   0.18096409 
    8900   -275.81489     37.95782   -237.85707    2744.4344    124773.93    10.472245   0.16786267 
    9000    -273.8438    29.095724   -244.74808    2103.6852    126866.86    10.472245    0.2227419 
    9100   -275.59774    31.794493   -243.80324    2298.8122    123382.37    10.472245   0.22131389 
    9200   -269.57613     35.95388   -233.62225     2599.545    145227.28    10.472245   0.23543759 
    9300   -275.20055    32.363381   -242.83717    2339.9441    126630.81    10.472245   0.18134758 
    9400   -277.37291    31.191614    -246.1813    2255.2227    117237.18    10.472245   0.17247175 
    9500   -274.01869    35.905512   -238.11318    2596.0479    131212.39    10.472245   0.17916303 
    9600   -275.54968    31.243879    -244.3058    2259.0016    123555.24    10.472245   0.20626712 
    9700   -276.14614    31.089803   -245.05634    2247.8616    120965.98    10.472245   0.19702372 
    9800   -274.22873    33.787964   -240.44076    2442.9446    130895.74    10.472245   0.21237096 
    9900   -265.71945     31.30408   -234.41537    2263.3542    152897.94    10.472245   0.35303232 
   10000   -270.45899    29.589235   -240.86976    2139.3672    141670.56    10.472245    0.2457182 
   10100   -273.50041    27.712984   -245.78743      2003.71    129079.77    10.472245   0.24586558 
   10200   -268.81226    32.654322   -236.15793    2360.9797    145414.42    10.472245   0.24239946 
   10300   -271.51282    29.693422    -241.8194    2146.9001    134178.99    10.472245   0.21218424 
   10400   -276.08884    33.142925   -242.94592    2396.3068    123140.03    10.472245   0.20666091 
   10500   -268.66345     30.11394   -238.54951    2177.3045    143062.44    10.472245   0.30243036 
   10600   -276.48714    35.431696   -241.05544      2561.79    122497.06    10.472245   0.16906981 
   10700    -277.1829    30.659571   -246.52332    2216.7548    118391.47    10.472245   0.18277198 
   10800   -271.73002    32.932503   -238.79751    2381.0928    136327.45    10.472245   0.20508073 
   10900   -276.33288    29.158317   -247.17457    2108.2108    120176.09    10.472245   0.17576549 
   11000   -277.04337    33.100102   -243.94326    2393.2106    122565.59    10.472245   0.26157801 
   11100   -270.42754    31.024685   -239.40286    2243.1534    137232.29    10.472245   0.24392525 
   11200   -277.49019    30.877071   -246.61312    2232.4805    117042.54    10.472245   0.20348727 
   11300   -277.70975    30.667849    -247.0419    2217.3533    118040.48    10.472245   0.15880671 
   11400   -275.80406    35.955743   -239.84832    2599.6798    125238.37    10.472245   0.17875105 
   11500   -276.07936    28.804461    -247.2749    2082.6262    121542.71    10.472245   0.21663542 
   11600   -272.28627    32.313364   -239.97291    2336.3277    137739.47    10.472245   0.22179494 
   11700   -275.89076     36.69865   -239.19211    2653.3935     129465.5    10.472245   0.18768495 
   11800   -278.77381    34.671439   -244.10237    2506.8217    118179.96    10.472245   0.16932735 
   11900   -273.25477    34.078742   -239.17602    2463.9684    133373.27    10.472245   0.21527123 
   12000    -270.4773    31.285691   -239.19161    2262.0246    137462.98    10.472245    0.2849831 
   12100   -273.98675    28.007147    -245.9796    2024.9787    130164.29    10.472245    0.2118419 
   12200   -273.16471    31.514322   -241.65039    2278.5552    133847.04    10.472245   0.21197226 
   12300   -268.57841    37.325932   -231.25248    2698.7474    145960.72    10.472245   0.25237507 
   12400   -273.02579    31.572489    -241.4533    2282.7608    131318.85    10.472245   0.27296766 
   12500   -276.29281    32.504036   -243.78878    2350.1137    122801.23    10.472245    0.2042277 
   12600   -277.17161    29.594638   -247.57697    2139.7578    118207.91    10.472245   0.22127152 
   12700   -273.37928    33.176865   -240.20241    2398.7607    130056.57    10.472245   0.18771874 
   12800   -272.93697    34.494061   -238.44291    2493.9969    133546.94    10.472245   0.20464433 
   12900   -278.95862    31.958334   -247.00029    2310.6582    114338.15    10.472245   0.14743711 
   13000   -276.74354    35.451181   -241.29236    2563.1988    126564.66    10.472245   0.15888468 
   13100   -275.18471    34.113052   -241.07166    2466.4491    128985.19    10.472245   0.18413197 
   13200   -276.54227    28.427492   -248.11478    2055.3705       118766    10.472245   0.21473655 
   13300    -279.3067     29.26491   -250.04179    2115.9177    113805.35    10.472245   0.19121138 
   13400   -273.68154    33.221244   -240.46029    2401.9694    133526.05    10.472245   0.21437118 
   13500   -274.87895    31.204855   -243.67409      2256.18    125121.86    10.472245   0.22115645 
   13600   -279.27677    32.848835   -246.42794    2375.0435    113694.14    10.472245   0.19618065 
   13700   -272.79787    36.081446   -236.71643    2608.7683    134478.38    10.472245   0.24298453 
   13800   -274.11641    29.185786   -244.93063    2110.1969    128314.49    10.472245   0.19553222 
   13900   -276.05297    32.676333   -243.37664    2362.5712    124686.42    10.472245   0.21587344 
   14000   -271.19442    38.874714   -232.31971    2810.7278    141586.09    10.472245    0.2614655 
   14100   -275.72573    35.427856   -240.29787    2561.5124    126736.52    10.472245   0.17592032 
   14200   -276.53157    30.496153   -246.03541    2204.9393    122883.04    10.472245   0.19340613 
   14300   -272.82712    33.060263   -239.76686    2390.3302    136987.05    10.472245   0.20711952 
   14400   -271.56459    30.881888    -240.6827    2232.8288    134325.96    10.472245   0.18983614 
   14500   -278.62484    34.290716   -244.33412    2479.2946    117305.75    10.472245    0.1849599 
   14600   -272.99279     30.03147   -242.96132    2171.3417     130690.7    10.472245   0.20158163 
   14700   -271.79757    34.224541   -237.57303      2474.51    136494.12    10.472245   0.20102448 
   14800   -275.60214    30.247834   -245.35431    2186.9853    123583.44    10.472245   0.19856095 
   14900   -278.64566    33.393392   -245.25227    2414.4161    115117.81    10.472245   0.19229087 
   15000   -270.72797    31.368223   -239.35974    2267.9919    140043.33    10.472245    0.2273243 
   15100   -272.91902    29.244288   -243.67473    2114.4267    130805.24    10.472245   0.22538001 
   15200   -279.30441    32.318566   -246.98585    2336.7038    115669.54    10.472245   0.17994931 
   15300   -272.68475    33.078403   -239.60635    2391.6417    133879.79    10.472245   0.23834965 
   15400    -279.8833     35.32547   -244.55784    2554.1096    116033.09    10.472245   0.15581589 
   15500   -279.54543     32.98682   -246.55861    2385.0201    114069.96    10.472245    0.1597775 
   15600   -275.76997    35.768447   -240.00153    2586.1378    127084.21    10.472245   0.21718929 
   15700   -275.42843    31.246468   -244.18197    2259.1887    124956.58    10.472245   0.24757026 
   15800   -276.05661    27.509792   -248.54682    1989.0188    120788.02    10.472245   0.18972816 
   15900   -272.09356    29.877274   -242.21629     2160.193     130227.7    10.472245    0.2139627 
   16000   -278.12225     34.19305    -243.9292    2472.2331    118929.95    10.472245   0.18474581 
   16100    -277.4106    27.055618   -250.35498     1956.181    116302.89    10.472245   0.19129456 
   16200   -277.27964    35.770923   -241.50872    2586.3169    119424.74    10.472245   0.17236965 
   16300    -275.8613     33.92464   -241.93666    2452.8265    123678.85    10.472245   0.19755108 
   16400   -276.73356    31.795655    -244.9379    2298.8962    122157.62    10.472245   0.21066211 
   16500   -272.28419    28.188173   -244.09601    2038.0672    133669.29    10.472245   0.25356546 
   16600    -275.0067    36.251552   -238.75514    2621.0674    128912.12    10.472245   0.22629513 
   16700    -276.8982    32.600097    -244.2981    2357.0591    120852.56    10.472245   0.17843185 
   16800   -272.52098    29.081827   -243.43916    2102.6804    131908.52    10.472245   0.26359798 
   16900   -272.60009    33.787274   -238.81281    2442.8947    133938.99    10.472245   0.22100504 
   17000   -274.78046     31.97862   -242.80184     2312.125    125135.62    10.472245   0.18730976 
   17100   -276.48404    33.422252   -243.06179    2416.5027    123356.54    10.472245   0.16804557 
   17200   -272.55428    33.977675    -238.5766    2456.6611    135221.49    10.472245   0.25221109 
   17300   -273.73254    33.815846   -239.91669    2444.9604    129662.41    10.472245   0.23055081 
   17400   -274.86064    29.301024   -245.55962    2118.5288     123999.6    10.472245   0.22918575 
   17500   -277.10654    37.696597   -239.40995    2725.5473     122422.8    10.472245   0.19223427 
   17600   -262.15522    32.526618   -229.62861    2351.7464    170796.59    10.472245   0.43311529 
   17700    -271.6763    34.004713   -237.67159    2458.6159    137112.94    10.472245   0.50105752 
   17800   -275.65237     30.81521   -244.83715    2228.0079    122401.45    10.472245    0.4780778 
   17900   -276.63687    36.627295   -240.00958    2648.2345    124256.56    10.472245   0.44013406 
   18000   -273.50339    35.611865   -237.89153    2574.8166    134069.29    10.472245   0.47891008 
   18100   -275.27031    30.359264   -244.91104    2195.0419    124278.14    10.472245   0.44594316 
   18200   -271.58645    31.359775   -240.22668    2267.3811    137007.82    10.472245   0.41468106 
   18300   -270.98209    34.387784   -236.59431    2486.3128    140320.92    10.472245    0.4532677 
   18400   -274.48052    29.541156   -244.93937    2135.8909    126240.65    10.472245   0.44890564 
   18500   -273.31073    32.124119   -241.18662    2322.6448    133182.51    10.472245   0.39707585 
   18600    -271.5064    34.078327   -237.42807    2463.9384    135964.09    10.472245   0.45613241 
   18700   -274.16181    30.175237   -243.98658    2181.7364    127505.97    10.472245   0.46611048 
   18800   -277.83866    35.219245   -242.61941    2546.4293    120919.74    10.472245   0.42777972 
   18900   -271.84621    32.668195   -239.17801    2361.9828    137612.93    10.472245    0.4416962 
   19000   -273.76722    27.386848   -246.38037    1980.1297    126283.22    10.472245   0.47216982 
   19100   -272.38669    32.986318   -239.40037    2384.9838    136356.51    10.472245    0.4864336 
   19200   -271.55648    34.031187   -237.52529    2460.5301    137560.77    10.472245   0.48918459 
   19300   -275.14235    31.013154   -244.12919    2242.3196    128327.76    10.472245   0.45408828 
   19400   -268.98789    28.045022   -240.94287    2027.7171    141405.97    10.472245   0.59354855 
   19500   -269.82685    30.868336   -238.95851     2231.849    140839.24    10.472245   0.47700274 
   19600   -277.56362    31.443769   -246.11985     2273.454    119412.99    10.472245   0.34232147 
   19700   -274.77909    34.215401   -240.56369    2473.8492    129524.62    10.472245   0.46104856 
   19800   -273.07914    32.876039    -240.2031    2377.0104    131661.77    10.472245   0.41356505 
   19900    -274.8809    28.785107   -246.09579    2081.2269     126535.9    10.472245   0.40552326 
   20000   -273.99468    33.894912   -240.09977    2450.6771    128378.28    10.472245   0.45283295 
   20100   -272.67062     33.02248   -239.64814    2387.5984    135209.18    10.472245   0.51270637 
   20200   -273.84024    29.490039    -244.3502    2132.1951    127333.06    10.472245   0.44884415 
   20300   -275.70352    32.257389   -243.44613    2332.2806    124646.59    10.472245   0.40060711 
   20400   -273.65722    32.018666   -241.63855    2315.0204    131601.59    10.472245    0.4150166 
   20500   -274.33559    29.961401   -244.37418    2166.2756    125271.62    10.472245   0.42082467 
   20600   -274.69185    26.392991   -248.29886    1908.2717    122879.18    10.472245   0.47020208 
   20700   -270.63011    31.279949   -239.35016    2261.6095    141872.79    10.472245   0.45622491 
   20800   -273.39278    27.933078   -245.45971    2019.6233    129345.05    10.472245   0.47406135 
   20900   -275.31622    34.207115    -241.1091    2473.2501    127429.18    10.472245   0.40503593 
   21000   -273.33741    34.629917   -238.70749    2503.8196    131651.36    10.472245   0.48654241 
   21100   -275.97857    30.644612   -245.33396    2215.6732    123913.35    10.472245   0.45061266 
   21200   -273.57537    31.528197   -242.04717    2279.5583    131029.16    10.472245   0.44677519 
   21300   -277.92338     35.22338       -242.7    2546.7283    118668.16    10.472245   0.42100939 
   21400   -274.49682    29.081274   -245.41554    2102.6404    128425.77    10.472245   0.42756635 
   21500   -271.89104    30.469714   -241.42133    2203.0277    134863.43    10.472245   0.43308159 
   21600   -272.22999    32.793353   -239.43664     2371.032    135235.25    10.472245   0.46063312 
   21700   -275.98972    29.197967   -246.79176    2111.0776    121715.33    10.472245   0.44607678 
   21800   -272.88705    31.843887   -241.04316    2302.3835    134092.12    10.472245   0.61189721 
   21900   -271.89938    31.772551   -240.12683    2297.2257    135876.37    10.472245   0.49599367 
   22000   -277.67954      31.3715   -246.30804    2268.2288    117264.39    10.472245   0.43276201 
   22100    -271.8848    28.918497    -242.9663    2090.8713    134646.63    10.472245   0.42671632 
   22200   -272.64179    32.378716   -240.26307    2341.0528    133193.95    10.472245   0.48193997 
   22300   -273.82843    26.719861   -247.10857    1931.9051    129126.19    10.472245   0.42208363 
   22400   -277.84269    39.026706   -238.81598    2821.7172    121875.44    10.472245    0.4232449 
   22500   -276.75941    35.823138   -240.93627    2590.0921    120573.91    10.472245   0.41842696 
   22600     -277.483    30.861393   -246.62161     2231.347     118804.4    10.472245   0.42718374 
   22700   -275.95356    32.910443   -243.04311    2379.4979    124785.77    10.472245   0.44296359 
   22800   -272.57874    29.208088   -243.37065    2111.8094    128734.94    10.472245   0.42979034 
   22900   -276.15561    29.282799   -246.87281    2117.2111    121493.66    10.472245   0.38489107 
   23000   -273.34618    29.008873   -244.33731    2097.4057    128777.86    10.472245     0.478719 
   23100   -274.79373    34.083692   -240.71003    2464.3263    131206.36    10.472245   0.45215494 
   23200   -281.72165    33.711025   -248.01063    2437.3816    106592.52    10.472245   0.37902183 
   23300   -275.59829    33.879333   -241.71896    2449.5507    125171.55    10.472245   0.42279822 
   23400   -272.56905    33.149579   -239.41947    2396.7879    133759.82    10.472245   0.43886316 
   23500   -275.95642    29.300335   -246.65608     2118.479    122065.12    10.472245   0.44994228 
   23600   -274.35959    34.910548   -239.44904    2524.1098    129984.41    10.472245   0.42055934 
   23700   -272.36866    31.761113   -240.60755    2296.3987    136822.19    10.472245   0.44592188 
   23800   -275.36562    30.566639   -244.79899    2210.0356    123206.35    10.472245   0.44450255 
   23900   -270.68322    32.203048   -238.48017    2328.3516    140021.11    10.472245    0.5397875 
   24000   -273.74176    34.313407   -239.42835    2480.9352    134806.84    10.472245   0.41966815 
   24100   -278.41008    33.400023   -245.01006    2414.8955    116452.77    10.472245   0.40988809 
   24200    -273.6386    35.683805   -237.95479     2580.018    134728.21    10.472245   0.44018958 
   24300   -274.00518    29.293626   -244.71156    2117.9939    130823.13    10.472245   0.41242684 
   24400   -276.80738    31.850919   -244.95646    2302.8919    120284.82    10.472245   0.40787209 
   24500   -270.81681    31.357792   -239.45902    2267.2377    138983.06    10.472245   0.46015448 
   24600   -276.95027    28.371054   -248.57922      2051.29    117940.15    10.472245   0.39838316 
   24700   -275.28444    30.950009   -244.33443    2237.7541     124421.8    10.472245   0.40341684 
   24800   -273.63869    31.606707   -242.03198    2285.2349    132142.83    10.472245   0.47204654 
   24900   -275.81362    33.631215    -242.1824    2431.6112    123587.77    10.472245   0.38650053 
   25000   -276.21494    33.066309   -243.14863    2390.7673    123118.52    10.472245   0.43563122 
   25100   -273.80362    30.326727   -243.47689    2192.6894    131967.05    10.472245   0.47889149 
   25200   -271.90223    32.187975   -239.71425    2327.2618    137293.25    10.472245   0.48883634 
   25300   -278.10526    30.832088   -247.27317    2229.2281    115389.68    10.472245   0.40086634 
   25400   -276.27233    33.849195   -242.42313    2447.3716     123224.1    10.472245   0.40035823 
   25500   -273.81103    33.622607   -240.18843    2430.9888    130408.22    10.472245   0.43247213 
   25600   -277.54467    30.215173   -247.32949    2184.6239    116645.73    10.472245   0.44018592 
   25700   -277.16415    29.243307   -247.92084    2114.3558    117767.18    10.472245   0.43796744 
   25800   -274.12746    35.153119   -238.97434    2541.6483    130095.41    10.472245   0.44488792 
   25900   -277.06897    32.575867    -244.4931    2355.3073    120432.57    10.472245   0.45300558 
   26000   -278.13224    29.608651   -248.52359     2140.771    117441.71    10.472245   0.42602692 
   26100   -274.04611    35.002779   -239.04333    2530.7784     131307.5    10.472245   0.46888809 
   26200   -275.51656    30.266182   -245.25038    2188.3119    122408.11    10.472245   0.41640328 
   26300   -278.07644    31.828045   -246.24839    2301.2381    118463.36    10.472245   0.40665414 
   26400   -267.05805    32.027479   -235.03058    2315.6576    151925.91    10.472245   0.50861943 
   26500   -272.68657     31.41627    -241.2703    2271.4658    130655.34    10.472245   0.50756867 
   26600   -277.83778     34.76946   -243.06832    2513.9089    119513.74    10.472245   0.44011913 
   26700   -269.51273    34.793272   -234.71946    2515.6305    143523.18    10.472245   0.49619112 
   26800    -274.3683    31.558503    -242.8098    2281.7496    128814.91    10.472245   0.48356263 
   26900   -274.20055    30.916578   -243.28397     2235.337    127477.15    10.472245   0.47556873 
   27000   -273.68102    33.030837   -240.65018    2388.2026    133489.65    10.472245    0.4085567 
   27100   -271.69605    30.341063   -241.35499     2193.726    133463.14    10.472245   0.47687748 
   27200   -275.31328    29.918942   -245.39434    2163.2057    123057.13    10.472245   0.50009877 
   27300   -273.09867    36.779993   -236.31868    2659.2748     135751.8    10.472245   0.45443055 
   27400   -276.49323    34.112021   -242.38121    2466.3746    123332.08    10.472245   0.43977173 
   27500   -278.10538    33.285737   -244.81965    2406.6324    116244.86    10.472245   0.36322788 
   27600    -278.9965    34.571355   -244.42515    2499.5854    114914.83    10.472245   0.37956099 
   27700   -277.04727      36.8542   -240.19307    2664.6402    120987.21    10.472245   0.42853425 
   27800   -275.63228    32.969953   -242.66233    2383.8005    126312.63    10.472245   0.44911444 
   27900   -279.96928    31.914732   -248.05455    2307.5057    109696.34    10.472245   0.37796858 
   28000   -273.62203     34.79491   -238.82712    2515.7489    132613.07    10.472245   0.46656206 
   28100   -276.18131    32.942791   -243.23852    2381.8367    123691.56    10.472245   0.42780992 
   28200   -276.36937    28.825084   -247.54429    2084.1173    121300.63    10.472245   0.41968923 
   28300   -275.46281    32.677806   -242.78501    2362.6776    126311.56    10.472245   0.41075505 
   28400   -275.50998    33.865487    -241.6445    2448.5496    124588.49    10.472245   0.44367825 
   28500    -276.9495    28.264485   -248.68501    2043.5848    119549.25    10.472245   0.41587974 
   28600   -276.51385    36.444502   -240.06935    2635.0181    126110.96    10.472245   0.47043735 
   28700   -276.73346     34.21068   -242.52278    2473.5078    123707.97    10.472245   0.41023735 
   28800   -273.49086    26.165463   -247.32539    1891.8209    126258.97    10.472245   0.49688413 
   28900   -273.88383    36.919222    -236.9646    2669.3414    134400.38    10.472245   0.46584413 
   29000   -276.20018    31.372266   -244.82792    2268.2842    124525.59    10.472245   0.38886313 
   29100    -276.6058    31.746467   -244.85934    2295.3398    122929.45    10.472245   0.41065225 
   29200   -273.26755    30.923512   -242.34404    2235.8383    133309.03    10.472245   0.44003989 
   29300     -275.891    33.318968   -242.57203    2409.0351    123317.81    10.472245   0.41561384 
   29400   -277.37899    28.651133   -248.72786    2071.5403     117527.8    10.472245   0.41428726 
   29500   -273.47702    30.400343   -243.07667    2198.0121    132505.52    10.472245   0.44643629 
   29600   -276.71285    35.885969   -240.82688     2594.635     123754.3    10.472245   0.42680452 
   29700   -276.64958    31.026281    -245.6233    2243.2687    119795.14    10.472245   0.41057127 
   29800   -275.33933     28.15684   -247.18249    2035.8018    122515.63    10.472245   0.45314997 
   29900   -270.73614    30.945996   -239.79015    2237.4639    138414.95    10.472245   0.47955481 
   30000   -267.32522    27.340829   -239.98439    1976.8024    145659.48    10.472245   0.54265775 
   30100   -276.05269    27.844103   -248.20858    2013.1902    118763.02    10.472245   0.41264749 
   30200   -279.02831    35.994854   -243.03346    2602.5076    115866.53    10.472245    0.3740926 
   30300   -272.82147    29.976247   -242.84523     2167.349    131249.56    10.472245   0.49531173 
   30400   -274.38447    32.368808   -242.01566    2340.3364    128280.29    10.472245   0.44983126 
   30500   -275.93188    26.829839   -249.10204    1939.8567    118587.21    10.472245   0.42719412 
   30600   -274.80521    33.732423   -241.07279    2438.9288     127878.7    10.472245   0.43002531 
   30700   -272.92357    31.599232   -241.32433    2284.6944    133753.82    10.472245   0.45440328 
   30800   -277.83909    27.650417   -250.18868    1999.1863    116262.92    10.472245   0.42657833 
   30900   -275.25246      32.4832   -242.76926    2348.6072    126958.61    10.472245   0.42664375 
   31000   -273.20795    31.038192   -242.16976    2244.1299    131823.72    10.472245   0.47831832 
   31100   -275.03939    32.700216   -242.33918     2364.298     126004.1    10.472245   0.43578124 
   31200    -273.4758    30.684985   -242.79082    2218.5923    131121.45    10.472245   0.51445359 
   31300   -273.39797    30.541183   -242.85679    2208.1951    131898.44    10.472245   0.48532382 
   31400   -275.48591     29.32093   -246.16498    2119.9681    122513.85    10.472245   0.42813944 
   31500   -277.04978    34.846868   -242.20291    2519.5057    121835.58    10.472245    0.4473273 
   31600   -273.91132    33.821803   -240.08952    2445.3912     130202.7    10.472245   0.43928907 
   31700   -276.39739    30.593663   -245.80373    2211.9895    119084.23    10.472245   0.39274237 
   31800   -274.28388     31.56753   -242.71635    2282.4023    129959.03    10.472245    0.5137334 
   31900   -273.70258    33.233264   -240.46931    2402.8385       130643    10.472245   0.46131895 
   32000   -276.25181    31.227638   -245.02417    2257.8273    121358.72    10.472245   0.45179937 
   32100   -272.62756    29.680455   -242.94711    2145.9625    133939.17    10.472245   0.42068338 
   32200   -277.65837    39.229706   -238.42866    2836.3945    123723.73    10.472245    0.3778866 
   32300    -278.5568    32.258979   -246.29782    2332.3956    115540.57    10.472245   0.38874862 
   32400   -272.08699    31.358045   -240.72895     2267.256    134646.13    10.472245   0.46232229 
   32500   -271.67602    31.402795   -240.27323    2270.4915    137720.72    10.472245   0.46115285 
   32600   -275.10685    30.328636   -244.77821    2192.8275    125761.44    10.472245   0.43614238 
   32700   -275.04881    31.184849   -243.86396    2254.7335    126628.52    10.472245   0.42644345 
   32800   -272.33812    29.442296   -242.89583    2128.7431    135650.33    10.472245   0.45633383 
   32900   -273.52696    32.548365   -240.97859    2353.3188    130601.16    10.472245   0.50337361 
   33000   -274.95461    29.452508    -245.5021    2129.4815    122593.32    10.472245   0.43749804 
   33100   -276.61313    31.375292   -245.23783     2268.503    120910.82    10.472245   0.42342501 
   33200   -271.42796    31.839246   -239.58871    2302.0479    138120.26    10.472245   0.42064802 
   33300   -277.88965    32.505296   -245.38435    2350.2048     118103.9    10.472245   0.39979713 
   33400   -276.00909    34.139085   -241.87001    2468.3314    123718.86    10.472245   0.42985348 
   33500   -269.39758    31.343141   -238.05444    2266.1784    140713.14    10.472245    0.5377394 
   33600   -276.62575    31.074309   -245.55144    2246.7413    118987.36    10.472245   0.48752923 
   33700   -273.53295    31.950956     -241.582    2310.1248    133364.33    10.472245   0.44713884 
   33800   -265.74632    32.861467   -232.88486    2375.9567    157299.85    10.472245   0.51567599 
   33900   -275.05215    33.156249    -241.8959    2397.2701    127994.01    10.472245   0.47291935 
   34000   -277.27512    34.527212   -242.74791    2496.3938     121559.2    10.472245   0.43741272 
   34100   -276.80044    36.409939   -240.39051    2632.5191    122138.76    10.472245   0.41805907 
   34200   -275.08808    29.905272   -245.18281    2162.2173    124469.74    10.472245   0.46178094 
   34300   -275.63444    30.176993   -245.45745    2181.8633    124725.98    10.472245    0.4503055 
   34400   -272.45787    32.515461   -239.94241    2350.9398    133516.91    10.472245   0.45484267 
   34500   -275.79521    29.191807    -246.6034    2110.6322    122261.18    10.472245    0.4641011 
   34600   -270.48014    34.318979   -236.16116    2481.3381    141242.33    10.472245   0.50138799 
   34700   -273.80322    34.663167   -239.14005    2506.2237    131177.59    10.472245   0.47713429 
   34800   -276.00308    30.593647   -245.40943    2211.9884    125831.88    10.472245   0.42185256 
   34900   -275.63486    33.855018   -241.77984    2447.7927     122769.5    10.472245   0.41075455 
   35000   -270.42277    36.567699   -233.85507    2643.9255    143255.41    10.472245   0.51261203 
   35100   -275.04424    30.359983   -244.68426    2195.0939    125261.95    10.472245   0.42731728 
   35200   -275.40792    32.686754   -242.72116    2363.3246    125633.73    10.472245   0.46424934 
   35300   -273.90924    36.306868   -237.60237    2625.0669    131175.79    10.472245   0.46852921 
   35400   -275.42239    27.962809   -247.45958    2021.7729    122408.48    10.472245   0.38398588 
   35500   -275.23004    33.446101   -241.78394    2418.2271    125582.37    10.472245   0.42907635 
   35600   -278.50012    33.844752   -244.65537    2447.0504    117708.77    10.472245   0.42032685 
   35700   -277.78629    29.776069   -248.01022    2152.8756    114455.47    10.472245    0.4364239 
   35800   -274.43363     33.18035   -241.25328    2399.0127    128571.61    10.472245   0.41072096 
   35900   -272.06697    26.470133   -245.59684    1913.8492    133815.14    10.472245   0.50999327 
   36000   -274.72477    27.422502   -247.30226    1982.7075    126405.48    10.472245   0.46445135 
   36100   -273.83394    34.306899   -239.52704    2480.4647    129445.87    10.472245   0.42095144 
   36200   -274.21762    28.761585   -245.45604    2079.5262    128317.46    10.472245   0.44909454 
   36300   -278.66514    31.567037    -247.0981    2282.3666    114881.64    10.472245   0.40861895 
   36400   -272.85217    30.174053   -242.67812    2181.6508    133197.85    10.472245   0.55332964 
   36500   -272.31029    32.582604   -239.72768    2355.7943    135683.98    10.472245   0.41947842 
   36600   -276.80858    27.832697   -248.97589    2012.3655    120398.31    10.472245   0.41591701 
   36700   -276.41514    33.069718   -243.34542    2391.0137    124066.23    10.472245   0.38989071 
   36800   -278.33463    36.136468   -242.19816    2612.7466     120401.8    10.472245   0.38570112 
   36900   -277.27613    33.090639   -244.18549    2392.5264    118730.57    10.472245   0.41278531 
   37000   -273.33303    34.472517   -238.86051    2492.4392    131733.76    10.472245   0.44871936 
   37100   -275.28738    31.039999   -244.24738    2244.2606    124553.03    10.472245   0.44593721 
   37200   -275.76387    30.182076    -245.5818    2182.2308    125051.69    10.472245   0.45480388 
   37300    -271.4991    33.808675   -237.69043     2444.442    138830.31    10.472245   0.53725917 
   37400   -273.46684    29.950077   -243.51676    2165.4568    126895.63    10.472245   0.42946396 
   37500   -273.07518    31.315785   -241.75939    2264.2005    132614.52    10.472245   0.42508908 
   37600   -269.98318    34.029913   -235.95327     2460.438    143356.86    10.472245   0.43897962 
   37700   -273.61384    28.270884   -245.34296    2044.0474    127667.94    10.472245   0.45521814 
   37800   -273.46352    32.345835   -241.11768    2338.6754    131850.11    10.472245   0.46627451 
   37900   -270.95029     32.67264   -238.27765    2362.3042    139597.09    10.472245   0.46223866 
   38000   -276.46429    33.422242   -243.04205     2416.502    122709.16    10.472245   0.37982917 
   38100   -277.03513    34.426717   -242.60841    2489.1278    121668.83    10.472245   0.42955511 
   38200    -270.4048    33.856707   -236.54809    2447.9148    143781.35    10.472245   0.47671018 
   38300    -271.5237    27.584147   -243.93955    1994.3948    134508.79    10.472245   0.48332601 
   38400   -279.53772    39.601467   -239.93625    2863.2737     116754.7    10.472245   0.41076832 
   38500   -274.69644    33.339938    -241.3565    2410.5513    126795.12    10.472245   0.47332477 
   38600   -277.07514    31.067336    -246.0078    2246.2371    118913.62    10.472245   0.42939762 
   38700   -272.08879    33.444469   -238.64433    2418.1091    138051.66    10.472245    0.4282441 
   38800   -276.47022    30.349695   -246.12053    2194.3501    121592.55    10.472245    0.4337103 
   38900   -276.69894    31.291478   -245.40746    2262.4431    122078.36    10.472245   0.42522117 
   39000   -275.59156    35.765925   -239.82564    2585.9555    126308.06    10.472245   0.38339788 
   39100   -277.49897    32.936348   -244.56262    2381.3708    121616.92    10.472245   0.46066697 
   39200   -278.74022     35.03016   -243.71006    2532.7581     115059.9    10.472245   0.38486777 
   39300    -272.5295    35.499865   -237.02964    2566.7188    136157.46    10.472245   0.44114951 
   39400   -278.75305    34.710549    -244.0425    2509.6494    116612.73    10.472245   0.44061292 
   39500   -276.10185    30.306412   -245.79544    2191.2206    121091.53    10.472245    0.4053896 
   39600    -271.1071     33.62261   -237.48449    2430.9891    137163.25    10.472245    0.5340925 
   39700   -274.14338    34.203812   -239.93956    2473.0113    128981.42    10.472245   0.48618455 
   39800   -274.28353    30.750769   -243.53276    2223.3486    129097.45    10.472245   0.43346094 
   39900   -276.29279     32.20131   -244.09148    2328.2259    124257.38    10.472245   0.48785351 
   40000    -271.7242     33.62861   -238.09559    2431.4229    138367.64    10.472245   0.43998998 
   40100   -274.56024    29.979929   -244.58031    2167.6152    126046.02    10.472245   0.42318815 
   40200   -275.19166    30.831897   -244.35976    2229.2144    125037.05    10.472245    0.4635358 
   40300   -272.58906    33.977091   -238.61197    2456.6188    135282.98    10.472245   0.42786387 
   40400   -275.64397    27.681792   -247.96218    2001.4548     122992.3    10.472245    0.4112809 
   40500   -274.99846    31.969568   -243.02889    2311.4704    124135.11    10.472245   0.41627045 
   40600   -274.23495    33.130334   -241.10461    2395.3964    129042.49    10.472245   0.42336147 
   40700   -273.97045    31.938506   -242.03194    2309.2247    128810.98    10.472245   0.44025977 
   40800   -275.09023    30.955319   -244.13491    2238.1381    124317.41    10.472245   0.41817508 
   40900    -276.4698    31.982268   -244.48753    2312.3887    123360.22    10.472245   0.42354557 
   41000   -275.64157    33.836061   -241.80551     2446.422    125504.21    10.472245   0.39503619 
   41100   -274.08533    33.979376   -240.10596     2456.784    128552.25    10.472245     0.426761 
   41200   -280.26835    32.462059   -247.80629    2347.0786    111456.12    10.472245   0.38797086 
   41300   -276.19976    34.681717   -241.51804    2507.5648    125217.02    10.472245   0.42453318 
   41400   -276.15633    35.626554   -240.52977    2575.8787    125613.14    10.472245   0.44269747 
   41500   -274.83214    28.696377   -246.13576    2074.8115     125871.7    10.472245   0.42212021 
   41600   -271.12303    35.334262   -235.78877    2554.7453    139223.14    10.472245   0.44576702 
   41700   -273.67662    32.406729   -241.26989    2343.0782    129872.16    10.472245   0.47177981 
   41800    -273.7291    28.453337   -245.27577    2057.2392    128672.86    10.472245   0.45492695 
   41900   -270.46137    34.899209   -235.56216      2523.29    140212.27    10.472245   0.44283953 
   42000   -269.82989    32.678891   -237.15099    2362.7561    145130.54    10.472245   0.46651863 
   42100   -275.22314    31.071406   -244.15173    2246.5314    124494.77    10.472245    0.4222861 
   42200   -277.42177    32.528987   -244.89278    2351.9177     117975.8    10.472245   0.45299819 
   42300   -268.18408    32.077305   -236.10678    2319.2601    143895.93    10.472245    0.5740329 
   42400   -276.28256    35.883203   -240.39935     2594.435    122891.16    10.472245     0.425444 
   42500   -274.06174    29.162276   -244.89946     2108.497    129312.86    10.472245   0.41728357 
   42600   -273.92898    31.897796   -242.03118    2306.2812    130105.21    10.472245   0.40963636 
   42700   -267.70505    32.982956    -234.7221    2384.7407    151121.81    10.472245   0.53612723 
   42800   -277.41844     32.58446   -244.83398    2355.9285    120055.01    10.472245   0.42713689 
   42900   -272.64905    30.776019   -241.87303    2225.1742    132611.94    10.472245   0.42755956 
   43000    -270.3255    29.551082   -240.77442    2136.6086    136610.43    10.472245   0.52846197 
   43100    -276.9472    28.894101    -248.0531    2089.1074    117779.81    10.472245    0.4271571 
   43200   -275.15073    33.428954   -241.72177    2416.9873    129074.96    10.472245   0.45664064 
   43300   -272.82604    33.152467   -239.67358    2396.9967    133885.25    10.472245   0.41768774 
   43400    -272.6354    26.925837   -245.70956    1946.7976    132877.06    10.472245   0.46020544 
   43500   -276.68459    32.983906   -243.70068    2384.8094    122391.09    10.472245   0.44542489 
   43600   -275.45796    33.672084   -241.78587    2434.5661    128546.87    10.472245   0.43393015 
   43700   -275.67743    29.571223   -246.10621    2138.0649    122813.64    10.472245   0.40186712 
   43800   -276.55482    32.304446   -244.25038    2335.6829    120107.16    10.472245   0.34611664 
   43900   -273.45987    34.921818   -238.53805    2524.9247    134389.46    10.472245   0.41010972 
   44000   -277.94367    29.317957   -248.62571    2119.7531    117805.35    10.472245   0.40768106 
   44100   -271.82512    29.260187   -242.56493    2115.5763    137892.99    10.472245    0.4404934 
   44200   -279.38989    37.660687    -241.7292    2722.9509    115430.82    10.472245   0.41533238 
   44300     -274.835    25.494167   -249.34083    1843.2847    121362.14    10.472245   0.43450499 
   44400   -280.67598    32.214462   -248.46152    2329.1769    108272.88    10.472245   0.37857429 
   44500   -274.17364    32.464411   -241.70923    2347.2487    127582.84    10.472245   0.46428952 
   44600   -270.79358    32.867132   -237.92645    2376.3664    139978.81    10.472245   0.42749548 
   44700   -272.25278     29.00395   -243.24883    2097.0498    132676.55    10.472245   0.46512376 
   44800   -274.90023    28.322995   -246.57724    2047.8152     126371.3    10.472245   0.40011002 
   44900   -272.62484    35.774542    -236.8503    2586.5785     137440.6    10.472245   0.42782421 
   45000   -279.62558      35.9308   -243.69478    2597.8763    115632.99    10.472245   0.37854818 
   45100   -275.40248    30.789045   -244.61343    2226.1161    125929.07    10.472245   0.42911233 
   45200   -274.55699    31.942666   -242.61432    2309.5254    127657.97    10.472245   0.40679799 
   45300   -272.27467    28.077789   -244.19688    2030.0862    131682.66    10.472245   0.40274147 
   45400     -278.843    29.818607   -249.02439    2155.9513    113311.52    10.472245     0.396172 
   45500   -275.35262     32.01407   -243.33855     2314.688    124188.36    10.472245    0.4042717 
   45600   -273.53247    32.125225   -241.40725    2322.7248    130815.29    10.472245   0.41364419 
   45700   -279.20456    28.498614   -250.70595    2060.5128    109900.22    10.472245   0.40335055 
   45800   -278.94116    30.272735   -248.66843    2188.7857    112855.21    10.472245   0.38768165 
   45900   -274.23345    31.906567   -242.32688    2306.9153    126240.45    10.472245   0.38860318 
   46000    -272.2418    31.941236   -240.30057     2309.422    136330.21    10.472245   0.45366388 
   46100   -279.26269    30.783818   -248.47887    2225.7382    111354.97    10.472245   0.42289388 
   46200   -274.67138    32.365599   -242.30578    2340.1044    126596.16    10.472245   0.43082442 
   46300   -274.33316    32.099946   -242.23321    2320.8971     128632.3    10.472245   0.46455139 
   46400   -281.98146    31.974645   -250.00681    2311.8376    103272.95    10.472245   0.40096407 
   46500   -275.06338    32.918484   -242.14489    2380.0792    127299.73    10.472245   0.47319425 
   46600   -272.27474    29.468865   -242.80587    2130.6641    132496.88    10.472245   0.40772443 
   46700   -280.90229    31.532731   -249.36956    2279.8862    107215.78    10.472245   0.37401184 
   46800   -277.16835    31.648729   -245.51962    2288.2731     119229.3    10.472245   0.39465989 
   46900   -275.92804    34.569007   -241.35903    2499.4157     126874.5    10.472245   0.41416266 
   47000   -272.13348     37.39299   -234.74049    2703.5959    138065.32    10.472245   0.46831898 
   47100   -277.37407    32.767154   -244.60691    2369.1377    118134.85    10.472245     0.431375 
   47200   -277.46662    34.069936   -243.39669    2463.3317     119494.5    10.472245   0.40886619 
   47300   -268.17276    32.688123   -235.48464    2363.4236    147752.92    10.472245   0.47277255 
   47400   -274.72011     32.28085   -242.43926    2333.9768    125454.25    10.472245   0.51713983 
   47500   -274.87786    33.590918   -241.28695    2428.6977    128804.98    10.472245   0.42848856 
   47600   -276.66778    29.274905   -247.39288    2116.6404    119827.75    10.472245   0.42191196 
   47700   -277.19736    32.792239   -244.40512    2370.9514    119957.16    10.472245    0.4198087 
   47800   -269.58561    28.563599   -241.02201    2065.2114    138958.47    10.472245   0.50025859 
   47900   -278.97365    31.642845    -247.3308    2287.8477     114113.3    10.472245   0.42930975 
   48000   -275.12849     33.71293   -241.41556    2437.5194     128557.7    10.472245   0.42422723 
   48100   -274.75882    34.677186   -240.08163    2507.2373    129680.19    10.472245   0.40308206 
   48200   -275.68602    29.473433   -246.21258    2130.9944    121956.56    10.472245   0.41814163 
   48300   -271.78337    30.786602   -240.99677    2225.9394    136755.58    10.472245   0.45997777 
   48400   -270.70856    33.255411   -237.45315    2404.4398    141622.44    10.472245   0.47389795 
   48500   -276.86894    32.810573   -244.05837     2372.277    122354.61    10.472245   0.40489556 
   48600   -270.25561    30.264976   -239.99063    2188.2247    140358.97    10.472245   0.45525861 
   48700   -271.90173    34.343532   -237.55819    2483.1134     137367.9    10.472245   0.43291335 
   48800   -275.13444    30.462934    -244.6715    2202.5375    126491.32    10.472245   0.46767268 
   48900   -275.48742    35.598403   -239.88901    2573.8433    129329.57    10.472245   0.41191576 
   49000    -271.0275    35.651594    -235.3759    2577.6891    138338.54    10.472245   0.47117059 
   49100   -277.09465    31.128951    -245.9657     2250.692     122299.4    10.472245   0.46560304 
   49200   -273.45951    32.645904   -240.81361    2360.3711    133403.88    10.472245   0.42153433 
   49300     -274.371    36.256637   -238.11436    2621.4351    131072.79    10.472245    0.4523263 
   49400   -276.84243    28.903244   -247.93919    2089.7685    120472.78    10.472245   0.41299615 
   49500   -269.25498    28.648728   -240.60625    2071.3664    140436.23    10.472245   0.51751428 
   49600   -272.66387    31.601437   -241.06244    2284.8538    134375.31    10.472245   0.50785199 
   49700   -273.74022    31.576625   -242.16359    2283.0598    127539.22    10.472245   0.46581698 
   49800   -273.14936    29.621618   -243.52774    2141.7085    131573.83    10.472245    0.4132754 
   49900    -280.0547    28.804521   -251.25017    2082.6306    109576.34    10.472245    0.3713275 
   50000   -276.57953    33.389262   -243.19027    2414.1175    121995.99    10.472245   0.41032301 
   50100   -276.59649     35.07055   -241.52594    2535.6784    123516.12    10.472245   0.45789481 
   50200   -278.28313    32.447394   -245.83574    2346.0184    116225.04    10.472245    0.3472777 
   50300   -276.79915    30.905749    -245.8934     2234.554    122023.25    10.472245    0.4170535 
   50400   -272.74042    33.960728   -238.77969    2455.4358     134050.9    10.472245   0.43752843 
   50500   -274.14913     30.98161   -243.16752    2240.0389    129926.46    10.472245   0.43294201 
   50600   -279.44406    27.940164    -251.5039    2020.1357    110058.42    10.472245   0.43503722 
   50700   -276.08908    31.559437   -244.52964    2281.8171    122837.22    10.472245   0.41070444 
   50800   -274.44172    31.050925   -243.39079    2245.0506    126791.15    10.472245    0.3822564 
   50900   -270.50047    30.474886   -240.02558    2203.4017    140938.29    10.472245   0.47782112 
   51000   -271.55431    30.727634   -240.82668    2221.6759    134741.97    10.472245   0.49779879 
   51100   -278.38097    32.613817   -245.76716    2358.0511    116318.29    10.472245   0.41083486 
   51200   -276.66279    35.843421   -240.81937    2591.5586    122712.78    10.472245   0.40755828 
   51300   -268.40938      37.0727   -231.33668    2680.4382    146167.19    10.472245   0.55433317 
   51400   -273.55977    30.320382   -243.23938    2192.2307    132343.05    10.472245   0.48175459 
   51500    -271.4898    27.812963   -243.67683    2010.9388    136958.86    10.472245    0.4958967 
   51600   -273.22016     32.08975   -241.13041    2320.1599    132022.62    10.472245   0.47389497 
   51700   -269.86038     31.97082   -237.88956     2311.561    139499.63    10.472245   0.41640809 
   51800   -277.26339    30.245858   -247.01754    2186.8424    119454.78    10.472245   0.47133306 
   51900   -276.45118    35.050037   -241.40114    2534.1952    122032.79    10.472245   0.43547841 
   52000   -276.38341     33.20445   -243.17896    2400.7552    123676.87    10.472245   0.42167325 
   52100    -277.9867    27.951585   -250.03511    2020.9614    116814.19    10.472245    0.4308939 
   52200     -273.914    32.299746   -241.61426    2335.3431    127105.56    10.472245   0.41691128 
   52300    -273.8351    29.352103     -244.483     2122.222     128572.3    10.472245   0.43562394 
   52400   -281.73872    32.871891   -248.86683    2376.7104    105216.58    10.472245   0.39932759 
   52500   -272.58783    32.780829     -239.807    2370.1265    133925.21    10.472245   0.47529653 
   52600   -280.74905    35.569131   -245.17992    2571.7269       110573    10.472245   0.39781888 
   52700   -276.25306    29.070813   -247.18224    2101.8841    123103.51    10.472245    0.4101893 
   52800   -271.50011    32.823635   -238.67647    2373.2214    138120.65    10.472245   0.48636419 
   52900   -275.15165    29.012227   -246.13943    2097.6482    122975.53    10.472245   0.48373896 
   53000   -275.20913    35.935848   -239.27328    2598.2413    128685.53    10.472245   0.43597957 
   53100   -270.20711     33.98415   -236.22296    2457.1292    142698.64    10.472245   0.39569599 
   53200    -275.5063    31.495598   -244.01071    2277.2014    124518.42    10.472245   0.44195794 
   53300   -279.70878     33.64737   -246.06141    2432.7793    111371.65    10.472245   0.40775184 
   53400   -270.01708    33.234788   -236.78229    2402.9486    144311.29    10.472245   0.49770203 
   53500   -274.15129    31.597914   -242.55337     2284.599    129514.81    10.472245   0.44416961 
   53600    -274.8344    31.601525   -243.23288    2284.8602    127508.41    10.472245   0.43863639 
   53700   -275.02821    30.149006    -244.8792    2179.8398    126317.54    10.472245   0.47106652 
   53800   -274.08319    34.455049   -239.62814    2491.1763       131862    10.472245   0.44484753 
   53900   -273.32749    33.737592    -239.5899    2439.3025    133478.38    10.472245   0.44483275 
   54000   -275.98429    29.905213   -246.07907     2162.213    122393.72    10.472245   0.41265148 
   54100   -276.95212    36.510056   -240.44206    2639.7578    122171.94    10.472245   0.36454271 
   54200   -267.99838    36.635156   -231.36323    2648.8028    150204.14    10.472245   0.51252075 
   54300    -272.3216    29.778853   -242.54275     2153.077    132399.04    10.472245   0.45718808 
   54400   -273.88987    29.325606   -244.56426    2120.3062    127752.48    10.472245    0.4170478 
   54500   -271.10496    31.711595   -239.39337    2292.8184    138379.18    10.472245   0.48368216 
   54600   -273.59172    37.462497   -236.12923    2708.6214    138277.37    10.472245   0.47913527 
   54700   -277.65523    32.876411   -244.77882    2377.0372    118984.03    10.472245   0.39944975 
   54800   -276.99684    34.639907   -242.35693    2504.5419    121957.63    10.472245   0.43109596 
   54900   -270.56208    36.466119   -234.09596     2636.581    143234.45    10.472245   0.47113587 
   55000   -275.68405    33.721456   -241.96259    2438.1359    123552.95    10.472245   0.45506998 
   55100    -274.6687    29.890015   -244.77868    2161.1142    127524.15    10.472245   0.41783745 
   55200   -278.10881     33.24537   -244.86344    2403.7138    115699.34    10.472245   0.41033271 
   55300   -271.28288     32.70177   -238.58111    2364.4103    139127.67    10.472245    0.4921095 
   55400    -278.8135    32.558957   -246.25454    2354.0846    115804.59    10.472245   0.43946059 
   55500   -276.61638    31.794627   -244.82176    2298.8219    124542.71    10.472245   0.39166775 
   55600   -273.37992    32.388931   -240.99098    2341.7914    132975.17    10.472245   0.42151158 
   55700   -278.03464     27.61622   -250.41843    1996.7138    113942.68    10.472245   0.42236297 
   55800   -273.05195    30.674492   -242.37746    2217.8336    130690.56    10.472245   0.46795423 
   55900   -273.49765    32.131764   -241.36589    2323.1976    128692.38    10.472245   0.47713504 
   56000    -277.4396    27.968151   -249.47145    2022.1592    115546.97    10.472245   0.39132531 
   56100   -276.96535    33.779538   -243.18581    2442.3353    119612.31    10.472245   0.40193011 
   56200   -275.00778    33.103813   -241.90397    2393.4789    127058.17    10.472245   0.37062798 
   56300    -280.1341     31.27353   -248.86057    2261.1454    110636.55    10.472245   0.35475243 
   56400   -274.22686    30.189521   -244.03734    2182.7691     129421.7    10.472245   0.46350133 
   56500    -277.3211    35.652265   -241.66883    2577.7376    120925.78    10.472245   0.42397657 
   56600   -276.90593    30.048238   -246.85769    2172.5541    118634.46    10.472245   0.40067224 
   56700   -273.45287    34.585496   -238.86738    2500.6079    131753.99    10.472245   0.51586841 
   56800   -272.93284    34.005248   -238.92759    2458.6547    131787.42    10.472245   0.41450359 
   56900   -275.63665    29.368775   -246.26788    2123.4274    124059.05    10.472245   0.42738411 
   57000   -272.71205    32.583492   -240.12856    2355.8585    133518.91    10.472245   0.48561901 
   57100   -271.40446    28.103361    -243.3011    2031.9352    137027.48    10.472245   0.45529132 
   57200   -277.24456     29.48533   -247.75923    2131.8546    116658.06    10.472245   0.38509382 
   57300   -276.55744    35.936154   -240.62129    2598.2634    124909.88    10.472245   0.42937034 
   57400   -275.73688    31.883634   -243.85325    2305.2573    126862.66    10.472245   0.42692124 
   57500   -279.43728    27.185531   -252.25175     1965.574     109522.2    10.472245   0.38670191 
   57600   -276.96366    30.991775   -245.97189    2240.7739    122199.03    10.472245   0.43743527 
   57700   -274.24671    33.507273   -240.73944    2422.6499    128219.76    10.472245   0.45756188 
   57800   -278.37459    30.769949   -247.60464    2224.7354    114433.27    10.472245   0.40707221 
   57900   -274.30665    27.596101   -246.71055    1995.2591    126204.98    10.472245   0.40921115 
   58000   -273.71526    31.208269   -242.50699    2256.4269    128042.59    10.472245     0.435339 
   58100   -275.88865    33.568652      -242.32    2427.0878    124761.34    10.472245   0.46567743 
   58200   -275.05508    31.382549   -243.67253    2269.0277    128519.76    10.472245   0.44869044 
   58300   -279.27062     34.90695   -244.36368    2523.8497    113612.67    10.472245   0.40552812 
   58400   -274.41517    37.768486   -236.64669    2730.7451     133070.4    10.472245   0.50029419 
   58500     -275.376    30.472056   -244.90395    2203.1971    124297.99    10.472245   0.42102168 
   58600   -275.49881    31.716162   -243.78265    2293.1487    125865.75    10.472245    0.4019438 
   58700   -275.36003    36.430818   -238.92921    2634.0287    126696.79    10.472245   0.50015384 
   58800   -273.59245    28.745172   -244.84727    2078.3395    128468.22    10.472245    0.4100471 
   58900   -275.62516     30.27869   -245.34647    2189.2163     123117.5    10.472245   0.38590933 
   59000   -269.94687    33.626495   -236.32038      2431.27     139628.7    10.472245   0.47461717 
   59100   -270.42648    30.901672   -239.52481    2234.2592    141981.19    10.472245   0.51624172 
   59200   -276.67085    30.939995   -245.73086    2237.0301     119596.3    10.472245   0.44397945 
   59300   -277.98322    33.409997   -244.57323    2415.6167     118157.7    10.472245   0.39675844 
   59400   -274.66789    33.045744   -241.62215    2389.2804    127180.27    10.472245   0.43931359 
   59500    -271.2235    34.402059   -236.82144     2487.345     139350.2    10.472245   0.49255579 
   59600   -276.28951    30.550448   -245.73906     2208.865    123756.31    10.472245   0.47708221 
   59700   -275.13995    32.812926   -242.32703    2372.4471    125370.84    10.472245   0.42410532 
   59800   -273.09388    34.841024   -238.25286    2519.0831    132703.93    10.472245   0.42952075 
   59900   -274.44911    27.774048   -246.67506    2008.1251    125585.92    10.472245   0.41050312 
   60000   -274.80698    35.014759   -239.79222    2531.6445     130515.4    10.472245   0.47511954 
   60100   -270.92615    31.139111   -239.78704    2251.4266    139066.75    10.472245   0.39631258 
   60200   -277.05214    30.975857   -246.07629     2239.623    121394.86    10.472245   0.42161015 
   60300   -273.27819    34.004486   -239.27371    2458.5996    130850.72    10.472245   0.42480536 
   60400   -275.56215    34.131996   -241.43016    2467.8188    126531.76    10.472245   0.50817427 
   60500   -275.55705    29.565434   -245.99162    2137.6463    122788.32    10.472245   0.43228537 
   60600   -274.53359    37.199912   -237.33368    2689.6359    131238.63    10.472245   0.40019479 
   60700   -275.18516    33.317203   -241.86796    2408.9075    125660.61    10.472245   0.47485073 
   60800   -275.74075    33.251605   -242.48914    2404.1646    124351.09    10.472245   0.41557147 
   60900   -279.29181    28.541643   -250.75017    2063.6239    110196.59    10.472245   0.41915511 
   61000   -276.30735    32.866183   -243.44117    2376.2977    124800.33    10.472245   0.43209096 
   61100   -276.03381     34.33565   -241.69816    2482.5434    124095.21    10.472245   0.41417016 
   61200   -276.71216    29.799449   -246.91271    2154.5661    120935.31    10.472245   0.42578016 
   61300   -271.33144     27.71306   -243.61838    2003.7156     135133.7    10.472245   0.48173059 
   61400   -272.46523    31.772976   -240.69226    2297.2565    135498.41    10.472245   0.36954789 
   61500   -278.40746    32.629513   -245.77795     2359.186     116338.8    10.472245   0.38786602 
   61600   -269.11151    33.481934   -235.62958    2420.8179     145865.1    10.472245   0.48106038 
   61700    -275.7459    34.846891   -240.89901    2519.5073    125826.77    10.472245   0.45790605 
   61800   -273.92607    30.358224   -243.56785    2194.9668    126612.94    10.472245   0.43024853 
   61900   -273.12128    31.666729   -241.45456    2289.5745    133647.48    10.472245   0.49145894 
   62000   -273.85587    39.139425   -234.71644     2829.867    136957.18    10.472245   0.45986342 
   62100   -277.42811    32.902673   -244.52543     2378.936    118859.03    10.472245   0.45310604 
   62200   -274.51067    30.834007   -243.67666    2229.3669    126715.15    10.472245   0.47783175 
   62300   -270.88739    34.781775   -236.10561    2514.7993    140014.81    10.472245   0.53923601 
   62400   -278.08826    30.517398   -247.57086    2206.4754    116898.88    10.472245   0.38995032 
   62500   -280.39702    38.005125    -242.3919    2747.8546    114987.31    10.472245   0.35259481 
   62600   -273.24382    33.686496   -239.55733    2435.6081    134429.34    10.472245   0.44341895 
   62700   -277.51387    29.431356   -248.08252    2127.9522    116389.51    10.472245   0.46309373 
   62800   -274.69545     32.80118   -241.89427    2371.5979    126064.69    10.472245   0.43236015 
   62900   -274.12993     34.13537   -239.99456    2468.0627    127992.52    10.472245   0.52072591 
   63000   -273.55723    30.985461   -242.57176    2240.3174    132277.02    10.472245   0.60247083 
   63100   -276.46258    30.085059   -246.37752    2175.2163    121898.43    10.472245   0.40515549 
   63200   -272.23784    29.403898   -242.83394    2125.9669    132165.51    10.472245   0.44527023 
   63300   -272.78249    33.693533   -239.08895     2436.117    134535.68    10.472245   0.49644918 
   63400   -276.07396    27.033846   -249.04011    1954.6069     120473.5    10.472245   0.39240823 
   63500   -275.45741     31.82949   -243.62792    2301.3425     124019.3    10.472245   0.42016495 
   63600   -271.91775    30.430114   -241.48764    2200.1645     135121.2    10.472245   0.51152465 
   63700   -273.28909    34.421084     -238.868    2488.7205    134038.74    10.472245   0.41829094 
   63800   -274.70435    29.251453    -245.4529    2114.9448    125832.51    10.472245   0.47424031 
   63900   -273.73544    31.929115   -241.80632    2308.5456    131352.05    10.472245   0.45281036 
   64000   -270.61167    31.170311   -239.44136    2253.6824    140480.57    10.472245   0.48900582 
   64100     -275.979    30.968508   -245.01049    2239.0917    123827.88    10.472245   0.42486417 
   64200   -277.66173    32.255906   -245.40582    2332.1733    120826.47    10.472245   0.44075761 
   64300   -272.68348    34.512638   -238.17084    2495.3401    131913.86    10.472245   0.44481025 
   64400   -278.95263    33.726361   -245.22627    2438.4905    114939.05    10.472245   0.37416702 
   64500   -275.17782    34.408119    -240.7697    2487.7831    126926.87    10.472245   0.40627411 
   64600   -274.65995    36.356397   -238.30356    2628.6479    128995.59    10.472245   0.46176291 
   64700    -272.1063    27.688386   -244.41791    2001.9316    133774.25    10.472245   0.52293468 
   64800   -274.23883    35.157188   -239.08164    2541.9425    128105.56    10.472245   0.38682224 
   64900   -270.00817    32.781256   -237.22691    2370.1573     141178.2    10.472245   0.44222017 
   65000   -278.21305    32.301046     -245.912    2335.4371    119104.28    10.472245   0.41556201 
   65100   -275.29616    34.108392   -241.18777    2466.1122    127608.24    10.472245   0.44318107 
   65200   -268.15422    34.457738   -233.69648    2491.3707    150840.06    10.472245   0.56327903 
   65300   -275.03254    31.467237    -243.5653    2275.1509    126255.67    10.472245   0.46665937 
   65400    -277.7019    33.098203    -244.6037    2393.0733    117960.95    10.472245   0.41594596 
   65500   -273.66686    34.976785   -238.69007    2528.8989    132212.15    10.472245   0.52061986 
   65600   -274.61663    25.766046   -248.85058    1862.9421    123468.06    10.472245   0.44424796 
   65700   -275.61634    31.951358   -243.66498    2310.1538    123956.81    10.472245   0.44732235 
   65800    -273.1505      33.7389    -239.4116    2439.3971     134044.5    10.472245   0.44190882 
   65900    -274.2779    25.023628   -249.25427    1809.2637    121795.93    10.472245   0.55196957 
   66000    -276.2226    30.918381   -245.30422    2235.4673    118399.08    10.472245   0.41998456 
   66100   -274.08008    35.481725   -238.59835    2565.4072    130642.93    10.472245   0.47504336 
   66200   -276.63243     29.76448   -246.86795    2152.0377    119210.75    10.472245   0.42089968 
   66300   -275.60971    30.622395   -244.98732    2214.0669    124062.72    10.472245   0.42785649 
   66400   -272.25588     31.51981   -240.73607     2278.952    132407.71    10.472245   0.50181292 
   66500   -273.58278    30.839383    -242.7434    2229.7556    131668.93    10.472245   0.47650391 
   66600   -278.27371     29.14282   -249.13089    2107.0904    112697.62    10.472245    0.3988217 
   66700    -272.5802    31.811419   -240.76878     2300.036    134832.88    10.472245   0.46431026 
   66800   -274.99785    31.256063   -243.74178    2259.8825    125890.82    10.472245   0.46429554 
   66900   -276.85739    29.902457   -246.95493    2162.0138    118393.51    10.472245   0.46622721 
   67000    -272.6003    33.872028   -238.72828    2449.0225    134158.99    10.472245   0.50086599 
   67100   -274.29871    31.416901   -242.88181    2271.5115     128071.1    10.472245   0.45492338 
   67200   -276.45312    31.035075   -245.41805    2243.9046    120222.52    10.472245   0.46556972 
   67300   -274.93021    32.786805    -242.1434    2370.5585     125669.4    10.472245   0.46269334 
   67400   -275.01335    33.334585   -241.67877    2410.1642    127770.86    10.472245   0.39718287 
   67500   -277.65187    27.754604   -249.89726    2006.7193    117293.23    10.472245    0.4344762 
   67600    -276.2963    32.769875   -243.52642    2369.3344    124066.34    10.472245   0.41600982 
   67700   -276.36642    33.266627    -243.0998    2405.2507    125056.98    10.472245   0.39279787 
   67800   -271.75613    28.232456   -243.52368     2041.269    131101.06    10.472245   0.48498053 
   67900   -271.79501    33.093394   -238.70161    2392.7256    137183.47    10.472245   0.46204298 
   68000   -273.20857    27.882129   -245.32644    2015.9396    131765.16    10.472245   0.45729618 
   68100   -274.57172    28.990864   -245.58086    2096.1036    124339.94    10.472245   0.43016547 
   68200   -269.86845    32.397263   -237.47119    2342.3938    140271.19    10.472245   0.55223134 
   68300   -276.64281     32.34904   -244.29377    2338.9071    123915.26    10.472245   0.38729896 
   68400   -276.59233    31.221883   -245.37045    2257.4112    124007.64    10.472245   0.44863874 
   68500   -275.20611    32.858954   -242.34716    2375.7751    128017.39    10.472245   0.45402814 
   68600    -273.6447    35.799212   -237.84549    2588.3622    133379.65    10.472245   0.41483481 
   68700   -277.84353    33.041814   -244.80172    2388.9962    116568.13    10.472245   0.46496679 
   68800    -275.3194    30.633809   -244.68559    2214.8921    123016.88    10.472245   0.45026114 
   68900    -272.4354    35.787665   -236.64773    2587.5273    135752.76    10.472245   0.41584703 
   69000   -277.69855    34.192741   -243.50581    2472.2108    119107.67    10.472245   0.40604906 
   69100    -275.8813    31.964745   -243.91656    2311.1218    124412.41    10.472245   0.41542627 
   69200   -271.34036    37.558539   -233.78182    2715.5654    142951.46    10.472245   0.44023127 
   69300   -269.03762     30.09936   -238.93826    2176.2503    142426.13    10.472245   0.53588372 
   69400   -275.43234    30.534321   -244.89802    2207.6989    122605.94    10.472245   0.43507419 
   69500    -274.0781    34.663687   -239.41441    2506.2612    129231.53    10.472245   0.36889247 
   69600   -274.64402     37.09073   -237.55329    2681.7418    130060.12    10.472245   0.47177111 
   69700   -276.14999    34.211617   -241.93838    2473.5756    124447.25    10.472245   0.45210239 
   69800   -277.95784    32.855731   -245.10211     2375.542     116753.1    10.472245   0.42340588 
   69900   -274.00928    28.742883    -245.2664     2078.174     130040.9    10.472245   0.42683221 
   70000   -272.48207    33.164253   -239.31781    2397.8488    131623.51    10.472245   0.47925412 
   70100   -276.59313    30.986185   -245.60694    2240.3697     119769.7    10.472245     0.444508 
   70200   -279.52152      34.2756   -245.24592    2478.2017     112092.5    10.472245   0.45912197 
   70300   -274.61236    34.691992   -239.92037    2508.3078    131399.85    10.472245   0.46250049 
   70400   -277.35004    33.218917   -244.13112    2401.8012    116402.47    10.472245   0.43576457 
   70500    -275.0636    26.616438   -248.44717    1924.4273    120368.05    10.472245   0.40694607 
   70600   -272.69011    32.487131   -240.20298    2348.8915    135188.96    10.472245    0.4891569 
   70700   -272.77714    32.986858   -239.79028    2385.0228    132137.92    10.472245   0.47902329 
   70800   -274.48861    29.647834   -244.84078     2143.604    125507.28    10.472245   0.43215204 
   70900   -275.25901    33.112756   -242.14625    2394.1255    124450.25    10.472245   0.46671781 
   71000     -268.264    37.147563   -231.11644    2685.8509     151335.4    10.472245   0.46522936 
   71100   -275.21528    34.790678    -240.4246     2515.443    127172.64    10.472245   0.40079044 
   71200   -277.75271     32.12493   -245.62778    2322.7035    119801.28    10.472245   0.32737473 
   71300   -274.06882    31.558428    -242.5104    2281.7441    127459.07    10.472245   0.42078629 
   71400   -273.01951    34.771267   -238.24824    2514.0395    133770.88    10.472245   0.41338252 
   71500   -276.49444    32.587247   -243.90719      2356.13    123012.59    10.472245   0.39391759 
   71600   -272.62176    28.707714   -243.91404    2075.6312    130312.72    10.472245   0.44372027 
   71700     -273.892    38.492407   -235.39959    2783.0862    132137.93    10.472245   0.41999605 
   71800   -275.78578    31.698917   -244.08686    2291.9018    123615.53    10.472245   0.41609517 
   71900   -273.68169    29.975539   -243.70615    2167.2977    129848.98    10.472245   0.42874837 
   72000   -272.76993    36.573009   -236.19693    2644.3094    135127.06    10.472245   0.48397884 
   72100   -274.80738    32.612325   -242.19506    2357.9432    129402.74    10.472245   0.45880254 
   72200   -274.95807    30.913322   -244.04475    2235.1015    126755.13    10.472245   0.45105258 
   72300   -274.57498    36.106578    -238.4684    2610.5855    131186.62    10.472245   0.46247028 
   72400   -272.59037    33.550613   -239.03975    2425.7835    137049.02    10.472245   0.44110848 
   72500   -275.56444    29.998909   -245.56554    2168.9875    123834.95    10.472245   0.45671391 
   72600   -270.26671    31.526479   -238.74023    2279.4341     137744.1    10.472245   0.46450449 
   72700   -273.57821    29.090809    -244.4874    2103.3298    130258.87    10.472245   0.44958437 
   72800   -275.97569    27.619782   -248.35591    1996.9713    120694.19    10.472245   0.41118916 
   72900   -272.40861    31.054008    -241.3546    2245.2734    132079.14    10.472245    0.4163478 
   73000   -276.39524    31.483728   -244.91152    2276.3432    122008.52    10.472245   0.41252868 
   73100   -278.78193    29.477297   -249.30464    2131.2738    112915.44    10.472245   0.39432808 
   73200   -275.87486    33.867015   -242.00785    2448.6601    125259.45    10.472245    0.4494367 
   73300   -272.49064    31.096748   -241.39389    2248.3637    134005.06    10.472245   0.41871009 
   73400    -281.6676    32.138191   -249.52941    2323.6623    106085.39    10.472245   0.41468795 
   73500   -275.23563    32.361724    -242.8739    2339.8242    125316.89    10.472245   0.42051663 
   73600   -274.18165    31.991672   -242.18998    2313.0687    127171.28    10.472245   0.43964319 
   73700   -277.25736    32.109738   -245.14763    2321.6051    121434.67    10.472245   0.39896328 
   73800   -277.64682    28.030201   -249.61662    2026.6455    113100.88    10.472245   0.37221549 
   73900   -274.61472    34.511886   -240.10284    2495.2857    129420.28    10.472245    0.4604645 
   74000   -277.43549    34.060098   -243.37539    2462.6204    120559.61    10.472245   0.41693575 
   74100    -278.9199    29.215003   -249.70489    2112.3094     112488.3    10.472245   0.40916656 
   74200   -273.60518    34.232387   -239.37279    2475.0773    128669.16    10.472245   0.44339825 
   74300   -277.02117    30.991537   -246.02963    2240.7567    118912.13    10.472245   0.40454809 
   74400   -275.01433    30.556082   -244.45824    2209.2723    124999.03    10.472245   0.45112138 
   74500   -272.95281    34.526534   -238.42628    2496.3448    134221.23    10.472245    0.4376441 
   74600   -279.58157    34.848123   -244.73344    2519.5964    112437.57    10.472245   0.39210219 
   74700   -273.52641    30.778746   -242.74766    2225.3714    131206.72    10.472245   0.48242207 
   74800   -270.35851    31.760353   -238.59815    2296.3438    140350.29    10.472245   0.44617117 
   74900   -275.25652    31.938206   -243.31831    2309.2029    125315.15    10.472245   0.43832576 
   75000   -274.51596    33.738864    -240.7771    2439.3945    128398.69    10.472245   0.44318512 
   75100   -271.51254    36.710756   -234.80179    2654.2689    140818.07    10.472245   0.46416059 
   75200   -274.27065    31.304894   -242.96576    2263.4131    126860.96    10.472245   0.47506457 
   75300    -272.1547    29.794019   -242.36068    2154.1735    134768.97    10.472245   0.42469279 
   75400   -270.70846    27.959252   -242.74921    2021.5158    132204.76    10.472245   0.45276803 
   75500   -276.96035    33.166784   -243.79357    2398.0319    121337.99    10.472245   0.43901399 
   75600   -277.01497    31.386827   -245.62814     2269.337    118346.28    10.472245   0.45882295 
   75700   -273.38812    35.959936   -237.42819    2599.9829    133808.98    10.472245   0.42773612 
   75800   -274.32529     30.42209    -243.9032    2199.5844    130013.27    10.472245   0.43485381 
   75900   -277.95316    33.605102   -244.34806    2429.7232     118356.8    10.472245   0.40784961 
   76000   -271.61539    35.644748   -235.97064    2577.1941    137925.53    10.472245   0.41730085 
   76100   -273.86269    32.017333   -241.84536     2314.924    131350.77    10.472245   0.39679072 
   76200    -276.6201    33.666874   -242.95323    2434.1895    122327.74    10.472245   0.43880868 
   76300   -277.07095    34.478735   -242.59221    2492.8888    121077.26    10.472245   0.46483658 
   76400   -275.31467    30.368619   -244.94605    2195.7183    125483.12    10.472245    0.4390294 
   76500   -271.98446     29.68288   -242.30158    2146.1379       136025    10.472245   0.46091805 
   76600   -270.64197    32.650296   -237.99168    2360.6886     141558.4    10.472245    0.4659477 
   76700     -277.912    33.189832   -244.72217    2399.6983    119486.28    10.472245   0.41654329 
   76800   -276.28751    35.133185   -241.15433     2540.207    126117.76    10.472245    0.4605333 
   76900   -271.97852    35.541076   -236.43745    2569.6984    138982.83    10.472245   0.44470699 
   77000   -276.26582     31.90455   -244.36127    2306.7695    124944.25    10.472245   0.45199436 
   77100   -276.76304    31.811265   -244.95177    2300.0248    121770.28    10.472245   0.46030118 
   77200    -270.9183    34.503777   -236.41452    2494.6994    138230.36    10.472245   0.45082813 
[...]
  481400   -276.49308    33.796226   -242.69685    2443.5419    124662.47    10.472245   0.95472353 
  481500   -272.80599    30.661955   -242.14404    2216.9272    129761.01    10.472245   0.92242265 
  481600    -272.9931    34.119052   -238.87405    2466.8829    132503.94    10.472245    1.0036372 
  481700   -277.80004    31.659939    -246.1401    2289.0836    116446.03    10.472245   0.89424975 
  481800    -276.6414    31.803508   -244.83789     2299.464     123179.6    10.472245   0.82749749 
  481900   -272.32753    33.071715   -239.25582    2391.1581    134520.44    10.472245   0.86048112 
  482000   -276.48858     32.02344   -244.46514    2315.3655    121321.29    10.472245   0.88756126 
  482100   -278.24651    30.017832   -248.22868    2170.3556    114701.01    10.472245   0.77833143 
  482200   -273.49301    32.210566   -241.28245    2328.8952    133310.03    10.472245   0.90786808 
  482300   -273.30088    30.756159   -242.54472    2223.7383    131043.06    10.472245   0.89261233 
  482400   -276.73426    28.747965   -247.98629    2078.5415    119017.87    10.472245   0.84764604 
  482500     -274.937    31.718661   -243.21834    2293.3293    125031.07    10.472245   0.87502169 
  482600   -272.13437    30.816761   -241.31761      2228.12    134452.24    10.472245   0.98023384 
  482700     -271.106    33.373222   -237.73278    2412.9578    137840.77    10.472245   0.94772215 
  482800   -276.57049    30.670838   -245.89965    2217.5695    118887.04    10.472245   0.86625177 
  482900   -274.16537    29.958913   -244.20646    2166.0957    126888.35    10.472245    0.9169798 
  483000    -267.9629    36.353115   -231.60979    2628.4106    150019.28    10.472245   0.93732051 
  483100   -271.82471     33.79002   -238.03469    2443.0932    137243.01    10.472245   0.92163093 
  483200   -273.58044     27.87946   -245.70098    2015.7466    126763.09    10.472245   0.91097331 
  483300   -274.24789    31.922272   -242.32562    2308.0509    129646.95    10.472245   0.90403288 
  483400   -275.84668    37.255389   -238.59129     2693.647    127124.37    10.472245   0.84839461 
  483500   -272.27465    28.245633   -244.02902    2042.2217    132403.01    10.472245   0.85933409 
  483600   -275.71663    33.439358   -242.27727    2417.7395    124120.87    10.472245   0.89548108 
  483700   -271.15175    30.124878   -241.02687    2178.0953    136736.46    10.472245   0.93273337 
  483800   -272.60083    31.964552   -240.63628    2311.1078    132486.68    10.472245   0.87999852 
  483900   -275.00076    27.259562    -247.7412    1970.9266    125557.08    10.472245   0.85626934 
  484000   -273.09064    35.110885   -237.97975    2538.5947    135812.06    10.472245   0.89073059 
  484100    -275.2731    32.580719   -242.69238     2355.658     127034.8    10.472245   0.84052472 
  484200   -274.77294    28.577651   -246.19529    2066.2274    125639.57    10.472245   0.77917871 
  484300   -272.67609    30.789845   -241.88625    2226.1739    134716.45    10.472245   0.89335135 
  484400   -275.70118    32.773418   -242.92776    2369.5906     123099.9    10.472245   0.86045038 
  484500   -274.91812    30.528668   -244.38945    2207.2902     128703.4    10.472245   0.87750409 
  484600   -273.63874    32.640339    -240.9984    2359.9687    130493.35    10.472245   0.87568828 
  484700   -275.11731     32.89247   -242.22484    2378.1984    127967.52    10.472245   0.86753629 
  484800   -276.74479    29.209297   -247.53549    2111.8968    117762.56    10.472245    0.8726982 
  484900   -274.66853    34.395251   -240.27328    2486.8527    126641.94    10.472245   0.94861358 
  485000   -276.41641    31.904384   -244.51202    2306.7575    121474.21    10.472245   0.81860737 
  485100   -277.31887    29.743683   -247.57518    2150.5341    119731.56    10.472245   0.83696225 
  485200   -273.21457    34.641946   -238.57263    2504.6893    129899.66    10.472245   0.88222888 
  485300   -273.40525    28.795785   -244.60947     2081.999     130124.6    10.472245   0.96679026 
  485400   -278.56902    32.597588   -245.97144    2356.8777    117230.71    10.472245   0.75732355 
  485500   -273.10816    32.064033   -241.04413    2318.3005    131254.01    10.472245   0.97711049 
  485600    -272.5994    30.779906   -241.81949    2225.4553    134336.41    10.472245   0.98991982 
  485700    -278.1486     31.37129   -246.77731    2268.2137    118061.57    10.472245   0.90610841 
  485800   -278.92942    27.204133   -251.72529     1966.919    113536.63    10.472245   0.85657684 
  485900   -273.72923    29.787239   -243.94199    2153.6833    127647.86    10.472245   0.87259293 
  486000   -276.13416    35.439891   -240.69427    2562.3825     123068.6    10.472245   0.83472323 
  486100   -274.93277    29.316535   -245.61624    2119.6504     126679.9    10.472245   0.83214041 
  486200   -276.52216    32.288823   -244.23333    2334.5533    121858.93    10.472245   0.86341634 
  486300   -273.29222    34.625255   -238.66696    2503.4826    132468.25    10.472245   0.88510428 
  486400   -279.78869    32.559371   -247.22932    2354.1145    114281.71    10.472245   0.85647327 
  486500   -276.80158    32.440008   -244.36157    2345.4843    121296.05    10.472245   0.82361648 
  486600   -271.93478    33.395938   -238.53884    2414.6002    135812.68    10.472245    0.8840526 
  486700    -274.8107    28.615378   -246.19532    2068.9551    123746.82    10.472245    0.8326919 
  486800   -272.96837    27.372989   -245.59538    1979.1277    132329.99    10.472245   0.89854107 
  486900   -270.53342    31.057625    -239.4758     2245.535    141523.36    10.472245   0.96249571 
  487000   -272.98862    27.797045   -245.19157    2009.7879       128131    10.472245   0.93436229 
  487100   -271.06126     32.09056    -238.9707    2320.2185     138043.8    10.472245   0.92765788 
  487200   -270.86024    32.912772   -237.94747    2379.6662    137787.44    10.472245   0.85459829 
  487300   -276.92558    33.020268   -243.90531    2387.4384    115888.78    10.472245   0.98218349 
  487400   -276.82483    35.208897   -241.61593    2545.6811    121452.18    10.472245   0.86913407 
  487500   -271.90225    34.822208   -237.08004    2517.7226    138077.16    10.472245   0.91422769 
  487600   -276.89275    32.257925   -244.63482    2332.3193    121386.73    10.472245   0.87438339 
  487700   -275.62458    31.976713   -243.64786    2311.9871    123574.47    10.472245   0.76381274 
  487800    -273.0476    34.374433   -238.67317    2485.3475    133875.15    10.472245   0.96916166 
  487900   -271.67752    35.132017    -236.5455    2540.1225    138592.79    10.472245     1.045963 
  488000   -274.07935    30.320687   -243.75867    2192.2527     128165.2    10.472245   0.85589389 
  488100   -275.03971    30.893339   -244.14637    2233.6567    124524.08    10.472245   0.88237779 
  488200   -268.09895    33.524094   -234.57485    2423.8661    145145.36    10.472245   0.90859003 
  488300   -270.01216    33.131189   -236.88097    2395.4583    141391.93    10.472245   0.86720204 
  488400   -277.77606     33.68847   -244.08759    2435.7509    119482.88    10.472245   0.90203487 
  488500   -274.88667    31.411089   -243.47558    2271.0912    125825.32    10.472245   0.88108707 
  488600   -271.96154    35.623735    -236.3378    2575.6749    139245.09    10.472245   0.89556893 
  488700   -276.41812    32.913787   -243.50434    2379.7396    123861.27    10.472245   0.92464485 
  488800   -274.67875    32.947908   -241.73084    2382.2066    125823.34    10.472245    1.0870634 
  488900   -273.38035    38.326514   -235.05384    2771.0917     133130.1    10.472245    1.0134172 
  489000   -272.03079    26.562565   -245.46823    1920.5322    134621.28    10.472245   0.91811637 
  489100   -275.85785    33.754908   -242.10294    2440.5545    125909.64    10.472245   0.86511162 
  489200   -268.70426    35.045539   -233.65872      2533.87    149076.42    10.472245   0.96810557 
  489300   -271.88755    33.046961   -238.84059    2389.3684    137116.29    10.472245    0.8479602 
  489400   -275.52655    30.978045    -244.5485    2239.7812    124006.98    10.472245   0.85540304 
  489500   -274.80682    30.133123   -244.67369    2178.6915     125595.5    10.472245   0.83505907 
  489600   -272.84373    35.658852   -237.18487    2578.2139    135721.59    10.472245   0.98396359 
  489700   -278.31445    32.475833   -245.83862    2348.0746    117501.36    10.472245   0.87494138 
  489800   -278.22231    35.140462   -243.08185    2540.7332    116651.84    10.472245   0.82532076 
  489900   -271.87265    35.778676   -236.09398    2586.8774    139471.91    10.472245   0.94868819 
  490000   -275.93986    32.525862     -243.414    2351.6918    125972.89    10.472245   0.82435646 
  490100   -274.65645    28.302763   -246.35368    2046.3524    126851.63    10.472245   0.87658988 
  490200    -272.0635    34.089773   -237.97372     2464.766    134153.38    10.472245   0.83030245 
  490300    -274.9936    32.854046   -242.13955    2375.4202    127058.63    10.472245   0.94317273 
  490400   -276.60825    35.025511   -241.58274    2532.4219    120650.75    10.472245   0.91311064 
  490500   -266.88831    29.766308     -237.122    2152.1699    147697.95    10.472245    1.0498396 
  490600   -275.06001     38.07819   -236.98182    2753.1374     129417.8    10.472245   0.95011371 
  490700   -275.27424    33.397856   -241.87638    2414.7389    127332.56    10.472245   0.79172522 
  490800    -276.2124    31.555531   -244.65687    2281.5347    122702.49    10.472245   0.86705577 
  490900   -274.83707    28.121449   -246.71562     2033.243    122732.62    10.472245   0.89673003 
  491000   -274.07438    36.015703   -238.05868     2604.015    131583.74    10.472245   0.93026113 
  491100   -275.59837    33.050407   -242.54796    2389.6175    129106.28    10.472245   0.91761057 
  491200   -272.91181    29.429567   -243.48224    2127.8228    132767.27    10.472245   0.90720668 
  491300   -273.40828    33.514642   -239.89364    2423.1827    132828.81    10.472245   0.87393187 
  491400   -277.73445    32.992684   -244.74176     2385.444    120400.65    10.472245   0.86025833 
  491500   -276.27709     30.06278   -246.21431    2173.6055    119891.32    10.472245   0.83038553 
  491600   -274.79615    36.087172   -238.70898    2609.1823    127894.73    10.472245   0.93890777 
  491700   -273.79222     30.54853   -243.24369    2208.7263    127381.61    10.472245   0.94102587 
  491800   -279.08241    30.553114   -248.52929    2209.0577    113537.92    10.472245   0.81427775 
  491900   -275.95988    30.515215   -245.44466    2206.3176    123457.23    10.472245   0.86192825 
  492000   -273.59231     31.69506   -241.89724     2291.623    132972.92    10.472245   0.87972802 
  492100   -277.89658    30.262146   -247.63443    2188.0201    117341.69    10.472245   0.82055688 
  492200   -277.26416    27.293075   -249.97108    1973.3497    114613.49    10.472245   0.83317387 
  492300   -274.93398    33.599834   -241.33415    2429.3423    127899.56    10.472245   0.87383805 
  492400   -277.18283    33.759652   -243.42318    2440.8975    120641.83    10.472245   0.83329232 
  492500   -279.28704    29.132627   -250.15441    2106.3533    112753.77    10.472245    0.8993997 
  492600   -273.97989    33.381654   -240.59824    2413.5674    132649.76    10.472245   0.94850835 
  492700   -271.73004    29.626476   -242.10356    2142.0597    136968.11    10.472245   0.85108307 
  492800   -278.59593    32.741084   -245.85485    2367.2528    114788.98    10.472245   0.95412958 
  492900   -273.72461    37.650719   -236.07389    2722.2303    133468.33    10.472245    0.9287681 
  493000   -273.22494    29.396064   -243.82888    2125.4004    129401.97    10.472245    0.8266269 
  493100   -277.53861    32.267639   -245.27097    2333.0217    118856.53    10.472245   0.81809714 
  493200   -269.87823    35.144442   -234.73379    2541.0209    145058.33    10.472245   0.89410235 
  493300   -275.18686     33.18746    -241.9994    2399.5268    126091.12    10.472245    1.0036945 
  493400   -275.96658    30.784293   -245.18228    2225.7725    123298.44    10.472245    0.8748312 
  493500   -280.91327    29.543362   -251.36991    2136.0505       105191    10.472245   0.80062524 
  493600   -273.63598    30.858903   -242.77708     2231.167    128995.01    10.472245   0.88291206 
  493700   -273.80639    31.209814   -242.59658    2256.5386     129619.3    10.472245   0.89247497 
  493800   -280.50595    31.050034   -249.45591    2244.9862    109585.22    10.472245   0.88267182 
  493900   -272.65951    31.904608    -240.7549    2306.7737    133213.33    10.472245   0.90211695 
  494000   -273.45732    30.887354   -242.56997     2233.224    129529.58    10.472245   0.91838907 
  494100    -278.9655    30.282786   -248.68272    2189.5124    114709.51    10.472245   0.84391023 
  494200   -274.88675      34.8887   -239.99805    2522.5302    129807.78    10.472245   0.88043535 
  494300   -271.12326    33.882687   -237.24058    2449.7932       139888    10.472245   0.88183465 
  494400   -277.05231    29.996918   -247.05539    2168.8435       118727    10.472245   0.77918472 
  494500   -277.57713    35.617886   -241.95924    2575.2519    121281.37    10.472245   0.87103727 
  494600   -274.84897    33.977165   -240.87181    2456.6242    129993.19    10.472245   0.83823002 
  494700   -275.67978    25.955417   -249.72437    1876.6341    120182.17    10.472245   0.90121305 
  494800   -275.39876    33.282811   -242.11595    2406.4208    126653.87    10.472245   0.88499247 
  494900   -271.91086    36.059442   -235.85142    2607.1774    136505.46    10.472245   0.87826031 
  495000   -275.83603    31.092373   -244.74365    2248.0473    124490.08    10.472245   0.94183081 
  495100   -273.57109    28.950198   -244.62089    2093.1633    129198.69    10.472245   0.81162628 
  495200   -274.97076    35.811055    -239.1597    2589.2185    126079.14    10.472245   0.85810272 
  495300   -274.64803    30.387272   -244.26076     2197.067    128898.41    10.472245   0.84237356 
  495400    -279.2185    32.782178   -246.43632     2370.224     112522.4    10.472245   0.94713837 
  495500    -271.7058    31.200596    -240.5052    2255.8721    134025.46    10.472245   0.87050479 
  495600   -273.04052    31.554739   -241.48578    2281.4774    132567.59    10.472245    0.8708215 
  495700   -277.71876    29.406194   -248.31257    2126.1329    116716.67    10.472245   0.77168201 
  495800   -275.34502    31.878111   -243.46691    2304.8579    125193.86    10.472245   0.97553089 
  495900   -273.93539    32.536227   -241.39916    2352.4412    129703.99    10.472245   0.87351083 
  496000   -276.55275    30.194862   -246.35789    2183.1553    119171.33    10.472245   0.90579269 
  496100   -278.50602    31.936073   -246.56995    2309.0487    114913.49    10.472245    0.8625554 
  496200   -275.31573    35.050706   -240.26502    2534.2436    127624.83    10.472245   0.88060179 
  496300   -277.15097    30.633656   -246.51732    2214.8811    118077.94    10.472245   0.86739755 
  496400   -271.59414    34.668069   -236.92607    2506.5781    138754.04    10.472245   0.91641974 
  496500   -270.95788    32.210329   -238.74755     2328.878    138580.88    10.472245   0.86387665 
  496600    -274.2603    30.001132   -244.25917    2169.1482    127335.22    10.472245   0.87948241 
  496700   -274.93256    34.660865    -240.2717    2506.0572    127252.85    10.472245   0.85071574 
  496800   -271.83586    33.803237   -238.03262    2444.0488    135019.69    10.472245    1.0070375 
  496900   -271.86883     27.77007   -244.09876    2007.8375     134522.5    10.472245   0.94351015 
  497000   -273.21979     29.43186   -243.78793    2127.9886    130523.92    10.472245   0.93455522 
  497100   -268.13316     33.35878   -234.77438    2411.9136    144811.75    10.472245   0.92896304 
  497200   -273.09276    30.957738   -242.13502    2238.3129    130999.82    10.472245   0.96335528 
  497300   -277.69859    32.027638   -245.67095    2315.6691    117497.23    10.472245   0.91565485 
  497400   -274.41991    31.572499   -242.84741    2282.7615    127358.19    10.472245   0.87106373 
  497500   -271.97862    29.074122    -242.9045    2102.1233    133875.68    10.472245    1.0339685 
  497600   -271.80285    36.122917   -235.67993    2611.7668    140713.71    10.472245   0.84574934 
  497700   -274.58469      29.1841   -245.40059     2110.075    128648.06    10.472245   0.90812428 
  497800    -275.4623    33.723075   -241.73922    2438.2529    124530.06    10.472245   0.87261583 
  497900   -275.23487    35.798717   -239.43615    2588.3264    127659.45    10.472245   0.99000029 
  498000   -278.92482     30.82383   -248.10099    2228.6311    112846.88    10.472245   0.85437635 
  498100   -272.89793    30.335837   -242.56209    2193.3481    131057.94    10.472245   0.87315386 
  498200   -273.11058    32.161146   -240.94943     2325.322    132430.02    10.472245   0.87411622 
  498300   -278.00607    28.738238   -249.26783    2077.8382    116691.43    10.472245   0.92608066 
  498400   -276.59276    34.070814   -242.52195    2463.3952    122578.07    10.472245   0.82942146 
  498500    -277.2194    33.716427   -243.50297    2437.7722    120166.47    10.472245   0.88910469 
  498600   -277.98505    31.284558   -246.70049    2261.9428    116680.64    10.472245   0.77950957 
  498700    -274.4909    27.487115   -247.00378    1987.3792    124007.23    10.472245   0.97401926 
  498800   -274.04684    33.346555   -240.70028    2411.0297    129224.88    10.472245   0.91091567 
  498900   -277.38878    30.126755   -247.26203     2178.231    116822.69    10.472245   0.92934036 
  499000   -275.81883    28.617221   -247.20161    2069.0884    122972.97    10.472245   0.91610655 
  499100   -278.59143    35.761845   -242.82958    2585.6605    116693.02    10.472245   0.91219391 
  499200   -270.44349    32.931923   -237.51157    2381.0509    139314.49    10.472245   0.96373439 
  499300   -281.16716    33.326553   -247.84061    2409.5835    107387.78    10.472245   0.86715676 
  499400    -274.9665    32.049145   -242.91735     2317.224     126923.3    10.472245   0.95181148 
  499500   -275.48465    35.301577   -240.18308    2552.3821    127731.96    10.472245   0.87386533 
  499600   -272.52775    28.653765   -243.87399    2071.7306    129883.74    10.472245   0.84659373 
  499700   -276.81505    33.147826   -243.66722    2396.6611    123421.78    10.472245   0.98831475 
  499800   -275.54007    33.080053   -242.46002     2391.761    126715.34    10.472245   0.88248089 
  499900   -269.31074    36.563038    -232.7477    2643.5885    147556.82    10.472245   0.91705629 
  500000   -273.94178    32.593218   -241.34856    2356.5617    127060.67    10.472245    1.0048937 
Loop time of 158.84 on 1 procs for 500000 steps with 108 atoms

Performance: 1359.863 ns/day, 0.018 hours/ns, 3147.830 timesteps/s
100.0% CPU use with 1 MPI tasks x no OpenMP threads

MPI task timing breakdown:
Section |  min time  |  avg time  |  max time  |%varavg| %total
---------------------------------------------------------------
Pair    | 93.908     | 93.908     | 93.908     |   0.0 | 59.12
Neigh   | 6.9283     | 6.9283     | 6.9283     |   0.0 |  4.36
Comm    | 2.5926     | 2.5926     | 2.5926     |   0.0 |  1.63
Output  | 0.089614   | 0.089614   | 0.089614   |   0.0 |  0.06
Modify  | 54.905     | 54.905     | 54.905     |   0.0 | 34.57
Other   |            | 0.4165     |            |       |  0.26

Nlocal:    108 ave 108 max 108 min
Histogram: 1 0 0 0 0 0 0 0 0 0
Nghost:    1025 ave 1025 max 1025 min
Histogram: 1 0 0 0 0 0 0 0 0 0
Neighs:    5606 ave 5606 max 5606 min
Histogram: 1 0 0 0 0 0 0 0 0 0

Total # of neighbors = 5606
Ave neighs/atom = 51.9074
Neighbor list builds = 29854
Dangerous builds = 35
    
Total wall time: 0:02:38
