LAMMPS (3 Mar 2020)

# ---------- 1. Initialize simulation ----------
units metal
atom_style atomic
dimension 3
boundary p p p
read_data /home/modeler/RemLabs/Project/arrhenius_3_test/T1300.0/n3_T1300.0_timestep3.000000e-03_eqsteps3200_time30_rseed3320/20201205-075854/lammps.data
  orthogonal box = (0 0 0) to (17.469 17.469 17.469)
  1 by 1 by 1 MPI processor grid
  reading atoms ...
  217 atoms
  read_data CPU = 0.00105001 secs

pair_style meam/c
pair_coeff * * library.meam Li Si LiSi.meam Li Si
Reading potential file library.meam with DATE: 2012-06-29
Reading potential file LiSi.meam with DATE: 2020-11-07

group Li type 1
1 atoms in group Li
group Si type 2
216 atoms in group Si

velocity all create 1300.0 3320 dist gaussian

# ---------- 2. Specify equilibration ensemble  ----------
fix 1 all npt temp 1300.0 1300.0 0.15 tchain 2 iso 1.0 1.0 1.0 pchain 2
# fix 1 all nvt temp 1300.0 1300.0 0.15

# ---------- 3. Run equilibration -------------
timestep 0.003
run 3200
Neighbor list info ...
  update every 1 steps, delay 10 steps, check yes
  max neighbors/atom: 2000, page size: 100000
  master list distance cutoff = 6
  ghost atom cutoff = 6
  binsize = 3, bins = 6 6 6
  2 neighbor lists, perpetual/occasional/extra = 2 0 0
  (1) pair meam/c, perpetual
      attributes: full, newton on
      pair build: full/bin/atomonly
      stencil: full/bin/3d
      bin: standard
  (2) pair meam/c, perpetual, half/full from (1)
      attributes: half, newton on
      pair build: halffull/newton
      stencil: none
      bin: none
Per MPI rank memory allocation (min/avg/max) = 8.895 | 8.895 | 8.895 Mbytes
Step Temp E_pair E_mol TotEng Press Volume 
       0         1300   -951.04357            0   -914.74732   -116958.82    5330.9442 
    3200    1386.5101   -960.31014            0   -921.59851    8892.2401    4521.4744 
Loop time of 2.37047 on 1 procs for 3200 steps with 217 atoms

Performance: 349.905 ns/day, 0.069 hours/ns, 1349.944 timesteps/s
100.0% CPU use with 1 MPI tasks x no OpenMP threads

MPI task timing breakdown:
Section |  min time  |  avg time  |  max time  |%varavg| %total
---------------------------------------------------------------
Pair    | 2.3173     | 2.3173     | 2.3173     |   0.0 | 97.76
Neigh   | 0.004967   | 0.004967   | 0.004967   |   0.0 |  0.21
Comm    | 0.013597   | 0.013597   | 0.013597   |   0.0 |  0.57
Output  | 2.6662e-05 | 2.6662e-05 | 2.6662e-05 |   0.0 |  0.00
Modify  | 0.02957    | 0.02957    | 0.02957    |   0.0 |  1.25
Other   |            | 0.004986   |            |       |  0.21

Nlocal:    217 ave 217 max 217 min
Histogram: 1 0 0 0 0 0 0 0 0 0
Nghost:    957 ave 957 max 957 min
Histogram: 1 0 0 0 0 0 0 0 0 0
Neighs:    4250 ave 4250 max 4250 min
Histogram: 1 0 0 0 0 0 0 0 0 0
FullNghs:  8500 ave 8500 max 8500 min
Histogram: 1 0 0 0 0 0 0 0 0 0

Total # of neighbors = 8500
Ave neighs/atom = 39.1705
Neighbor list builds = 8
Dangerous builds = 0

# ---------- 4. Describe computed properties----------
compute msdli Li msd
compute msdsi Si msd
thermo_style custom step pe ke etotal temp press density c_msdli[4] c_msdsi[4]
thermo 100

# ---------- 3. Run production -------------
timestep 0.003
run 10000
Per MPI rank memory allocation (min/avg/max) = 9.667 | 9.667 | 9.667 Mbytes
Step PotEng KinEng TotEng Temp Press Density c_msdli[4] c_msdsi[4] 
    3200   -960.31014    38.711626   -921.59851    1386.5101    8892.2401    2.2305353            0 5.3630016e-32 
    3300   -953.52425    38.942424   -914.58182    1394.7764    2259.3644    2.1985657   0.30079577  0.067713114 
    3400   -954.52127    33.330575    -921.1907    1193.7803   -3974.9256    2.1902542   0.63140496   0.08950186 
    3500   -958.09658    35.684916   -922.41167    1278.1043   -8211.5629    2.1843076   0.19401994  0.089752564 
    3600   -955.89265    37.008906   -918.88374    1325.5248   -2740.3126    2.1949322   0.15110434  0.086052546 
    3700   -954.85463    40.640274   -914.21436    1455.5872    4787.2631    2.2072641   0.18638748  0.072206944 
    3800   -960.12721    37.979355   -922.14785    1360.2828    9993.1079    2.2314023   0.14486889  0.073608743 
    3900     -956.824    35.337595   -921.48641    1265.6645    4170.6248    2.2134989   0.25269003  0.082252047 
    4000   -956.58471     36.47291    -920.1118    1306.3274   -7919.2131    2.1835599   0.12705558  0.094552244 
    4100   -949.82457    35.151794   -914.67278    1259.0098   -7176.0338    2.1719633   0.11701566  0.093027098 
    4200   -950.85268    36.393222   -914.45946    1303.4732    465.24308    2.1888693   0.24348146  0.077609464 
    4300    -958.8861    39.435818   -919.45028     1412.448    2514.4124    2.2120049   0.14441365  0.083760211 
    4400   -954.85246    33.657208   -921.19526    1205.4791    8055.0481    2.2214064   0.32978133   0.08173839 
    4500   -961.99273    38.782672   -923.21006    1389.0547    1060.0859    2.2136024  0.060687961  0.071462212 
    4600   -954.65049    38.968212   -915.68228       1395.7   -3903.2168    2.1877848  0.096237767  0.094587332 
    4700   -953.39934    35.272379   -918.12696    1263.3287    -2200.185    2.1904818  0.073879734  0.094621295 
    4800   -959.07082    37.209904   -921.86092    1332.7238   -827.88543    2.2039236    0.1524102  0.085624734 
    4900   -958.48724    36.589533   -921.89771    1310.5044    2298.1839    2.2132943  0.058788782  0.090723848 
    5000   -953.75432    39.414916    -914.3394    1411.6994    2678.0448     2.202419  0.077727934  0.091131911 
    5100   -959.58223    38.479634   -921.10259    1378.2009    288.28328     2.209905 0.0096543685  0.079039741 
    5200   -957.43286    35.046308   -922.38656    1255.2317   -2068.6665    2.1989476  0.061617218  0.089349854 
    5300   -954.76034    36.422136    -918.3382    1304.5088   -3409.2307    2.1894674   0.17205598   0.10895002 
    5400   -953.35524    36.986458   -916.36878    1324.7208   -1183.0081    2.1914636  0.082428549   0.08851052 
    5500   -958.12564    35.321956   -922.80368    1265.1044    2190.0545    2.2156187   0.19444725  0.084095939 
    5600   -959.34285    38.225752    -921.1171    1369.1078    5128.6558    2.2217397   0.19203646    0.0920939 
    5700   -957.05592    39.751924   -917.30399    1423.7698    819.35363    2.2061038   0.19434896   0.10244866 
    5800   -955.55848    39.772109   -915.78638    1424.4927   -6021.7675    2.1830993    0.4139442  0.097117647 
    5900   -958.74442    36.402704   -922.34172    1303.8128   -7581.5707    2.1888192    0.1279768   0.08593116 
    6000   -959.78051    38.016367   -921.76415    1361.6084   -216.53357    2.2078304   0.11591595  0.088130413 
    6100   -956.98921    37.172279   -919.81693    1331.3762    7885.8258    2.2232185   0.39033755  0.093111602 
    6200   -952.51589    40.422394   -912.09349    1447.7836    6241.5228    2.2051706  0.097108231   0.10133888 
    6300   -956.82111    36.681279   -920.13983    1313.7904   -242.74265    2.2037551  0.074773302  0.083177379 
    6400   -958.80725     37.07183   -921.73542    1327.7785    -6630.029    2.1909435   0.16465778  0.073271126 
    6500   -959.60602    37.931167   -921.67485    1358.5568   -6808.9398    2.1908098   0.15707172  0.085541883 
    6600   -954.36206    38.138129   -916.22393    1365.9695    1949.2497     2.202204   0.34897921   0.09546147 
    6700   -954.46563    38.234116   -916.23152    1369.4074     8614.105    2.2160029   0.26669248  0.088657909 
    6800   -957.47446    36.774287   -920.70018    1317.1216    4194.8875    2.2112506   0.16463771  0.071868209 
    6900   -957.88582    35.576265   -922.30956    1274.2128   -3427.6717    2.1965773   0.33117541  0.077917995 
    7000   -955.93971    37.299726   -918.63998    1335.9409   -7419.6741    2.1837991   0.29909865  0.083840154 
    7100    -953.5991     37.32954   -916.26956    1337.0088   -3515.0076    2.1848831   0.51146384  0.083684209 
    7200   -957.34774    35.537323   -921.81042     1272.818    2659.4724     2.210936   0.17701588  0.086930551 
    7300   -956.01788     34.25516   -921.76272    1226.8956    9288.0819    2.2246872   0.12086651  0.074876407 
    7400   -956.09998    40.583838   -915.51614    1453.5659    2836.9812    2.2082384   0.15778716  0.081725452 
    7500   -954.53458    35.339107   -919.19548    1265.7186   -215.23492    2.1944893    0.4199491  0.080979802 
    7600   -957.64812    34.994658   -922.65346    1253.3817   -9097.1172    2.1834478    0.1019621  0.091182134 
    7700   -954.74551    34.390208   -920.35531    1231.7325   -4352.9937    2.1877047   0.26387336  0.082515331 
    7800   -955.23951     40.76757   -914.47194    1460.1465    1704.7791    2.2007078   0.15019292  0.090439224 
    7900   -957.97772    35.546805   -922.43092    1273.1576    12461.376    2.2360277   0.12168653  0.083497323 
    8000   -960.25631    38.413885   -921.84242    1375.8461    5127.7543    2.2204721  0.097486106  0.074088635 
    8100   -957.55184    38.152575   -919.39927    1366.4869   -5776.6637    2.1895732   0.18656744  0.084893709 
    8200   -954.66314    39.563908   -915.09923    1417.0357   -8788.0101     2.172713    0.1700404  0.087415298 
    8300   -960.71169    36.966817   -923.74487    1324.0173   -1517.3442    2.2065414   0.11568582  0.079566396 
    8400   -956.78038    34.269895   -922.51048    1227.4234    4004.2865    2.2103751   0.11169171   0.08137489 
    8500   -957.28808     36.13927   -921.14881    1294.3776    817.87932    2.2055922  0.091528625  0.095104751 
    8600   -957.14097    37.994739   -919.14623    1360.8338   -1254.7299    2.1978816  0.090348958  0.079485112 
    8700   -951.48022    40.797235   -910.68298     1461.209   -1181.0164    2.1867032    0.1346295  0.096762558 
    8800   -955.19269    37.471978   -917.72071    1342.1104    3949.2214    2.2076908   0.16990885  0.093641506 
    8900   -958.11232    37.656143   -920.45618    1348.7065   -1340.8942    2.2047017   0.32883395  0.090008964 
    9000   -955.23747    32.930802   -922.30667    1179.4619   -2109.7129    2.1999244   0.16088017  0.089939443 
    9100   -958.12488    35.670644   -922.45423    1277.5931   -2338.2016    2.1996167  0.076279103  0.076311129 
    9200   -955.03022    40.265809   -914.76441    1442.1752   -5212.1054     2.187026   0.18039829  0.088711617 
    9300   -957.18413    36.828727    -920.3554    1319.0714    4250.8941      2.21475   0.30255912  0.084746446 
    9400    -960.4334    38.250787   -922.18261    1370.0045    8479.7961    2.2314138    0.1261942  0.080614313 
    9500   -957.75917    37.394204   -920.36497    1339.3248    5301.6719    2.2204045   0.24611416  0.089034183 
    9600   -955.55652    39.672683   -915.88384    1420.9316    -11970.53    2.1736756  0.084335217  0.089740316 
    9700   -960.98986    38.133908   -922.85595    1365.8183   -15861.956    2.1695167   0.23286743   0.08629402 
    9800   -957.09517     35.38233   -921.71284    1267.2668   -3248.0144    2.1950478  0.065149067    0.0936793 
    9900   -954.80068    37.889506   -916.91118    1357.0647    9572.8275    2.2214474  0.049164277  0.089831002 
   10000   -960.69358    39.351838   -921.34174    1409.4401    7445.0707    2.2272863   0.11376483  0.076957377 
   10100   -957.07348    33.560579    -923.5129    1202.0182    2049.4432    2.2083605   0.18492823  0.087983638 
   10200    -958.0313    37.006834   -921.02447    1325.4506   -4757.3678    2.1929311  0.084046614   0.09178107 
   10300    -957.6569    39.044111   -918.61279    1398.4184   -5840.4659    2.1908082   0.21124767  0.097707878 
   10400   -959.52035    32.843593   -926.67676    1176.3384    3209.9379    2.2199158  0.081427804  0.085910637 
   10500     -958.986      35.9284    -923.0576     1286.825    2781.5322    2.2181738   0.19101325  0.094242477 
   10600   -957.55523    37.582526   -919.97271    1346.0698    746.99722    2.2079527  0.049492656  0.097361113 
   10700    -957.0596    34.296357   -922.76324    1228.3711   -1260.3864    2.2000365   0.20343467  0.093009051 
   10800   -960.54983    33.908057   -926.64177    1214.4636    -3924.796    2.2017769  0.081711063  0.093831232 
   10900   -960.15598    39.377724   -920.77826    1410.3673   -2937.3878     2.201601   0.10182937  0.084920962 
   11000    -958.5532    37.690078   -920.86312    1349.9219    4038.2892     2.216168   0.18596062  0.086577103 
   11100   -962.31512    35.170488   -927.14463    1259.6793     5613.526    2.2324766   0.16500916  0.087095219 
   11200   -959.11585    37.793128   -921.32272    1353.6128   -1615.7056    2.2040472   0.20308018  0.099233847 
   11300   -956.82407    36.348977   -920.47509    1301.8885   -10040.868    2.1807108   0.26594217  0.098425959 
   11400   -958.57631      35.6201   -922.95621    1275.7828   -11458.533    2.1823968  0.074889604   0.10068839 
   11500   -962.29112    36.165031   -926.12609    1295.3002   -35.363111    2.2136996    0.2052354  0.092322766 
   11600   -954.37968    36.133194   -918.24648      1294.16    9667.2677    2.2245665  0.096709978  0.090986049 
   11700   -954.66214    34.883902   -919.77824    1249.4149    12360.947    2.2298011  0.059921018  0.093263143 
   11800   -957.50984     34.76048   -922.74935    1244.9943    2472.2692    2.2124758   0.17030545  0.093892376 
   11900    -956.4014    35.908295   -920.49311    1286.1049    -7714.206    2.1855526   0.19326698  0.094381478 
   12000   -956.90151    40.634337   -916.26717    1455.3746   -10086.979    2.1743711    0.1163382  0.098050575 
   12100    -958.8156    36.566159   -922.24944    1309.6672   -2742.0285    2.2018153   0.24572287  0.082113918 
   12200   -959.51986    37.675947   -921.84392    1349.4158    3463.1829    2.2197655  0.091916966    0.0775017 
   12300   -954.45975    39.604582   -914.85516    1418.4925    5074.0938     2.208313    0.1177087  0.088658904 
   12400    -956.9483    35.379231   -921.56907    1267.1558    1157.2038    2.2093344    0.2666164  0.091504232 
   12500   -957.25743    34.779385   -922.47805    1245.6715   -2149.0265    2.1971442   0.23279075  0.084532578 
   12600   -957.82338    39.441295   -918.38208    1412.6441   -4839.7198    2.1900828  0.063426709   0.07227038 
   12700   -956.83037    38.791573    -918.0388    1389.3735   -3433.3709    2.1967028  0.029660439  0.077602913 
   12800   -955.95414    32.201644    -923.7525    1153.3461    5500.3283    2.2175927   0.13608408  0.085966397 
   12900   -958.35842    37.616947   -920.74148    1347.3026    5564.5083    2.2194209   0.22947747  0.079542377 
   13000   -959.57681    40.301541   -919.27527     1443.455   -845.47582    2.2070003   0.10089041  0.085862529 
   13100   -960.35588    33.383192   -926.97269    1195.6649    -871.2746    2.2106048   0.25760296  0.080820193 
   13200   -958.53775    35.771658   -922.76609    1281.2111   -4585.5383    2.1951895   0.17099641  0.075879129 
Loop time of 7.33007 on 1 procs for 10000 steps with 217 atoms

Performance: 353.612 ns/day, 0.068 hours/ns, 1364.244 timesteps/s
100.0% CPU use with 1 MPI tasks x no OpenMP threads

MPI task timing breakdown:
Section |  min time  |  avg time  |  max time  |%varavg| %total
---------------------------------------------------------------
Pair    | 7.1724     | 7.1724     | 7.1724     |   0.0 | 97.85
Neigh   | 0.0035153  | 0.0035153  | 0.0035153  |   0.0 |  0.05
Comm    | 0.042472   | 0.042472   | 0.042472   |   0.0 |  0.58
Output  | 0.0035037  | 0.0035037  | 0.0035037  |   0.0 |  0.05
Modify  | 0.092902   | 0.092902   | 0.092902   |   0.0 |  1.27
Other   |            | 0.01531    |            |       |  0.21

Nlocal:    217 ave 217 max 217 min
Histogram: 1 0 0 0 0 0 0 0 0 0
Nghost:    957 ave 957 max 957 min
Histogram: 1 0 0 0 0 0 0 0 0 0
Neighs:    4208 ave 4208 max 4208 min
Histogram: 1 0 0 0 0 0 0 0 0 0
FullNghs:  8416 ave 8416 max 8416 min
Histogram: 1 0 0 0 0 0 0 0 0 0

Total # of neighbors = 8416
Ave neighs/atom = 38.7834
Neighbor list builds = 6
Dangerous builds = 0
Total wall time: 0:00:09
