LAMMPS (3 Mar 2020)
Reading data file ...
  orthogonal box = (0 0 0) to (8.18 8.18 8.18)
  1 by 1 by 1 MPI processor grid
  reading atoms ...
  32 atoms
  read_data CPU = 0.000882228 secs
Reading potential file /usr/share/lammps-stable/potentials/Ag_u3.eam with DATE: 2007-06-11
Neighbor list info ...
  update every 1 steps, delay 10 steps, check yes
  max neighbors/atom: 2000, page size: 100000
  master list distance cutoff = 7.55
  ghost atom cutoff = 7.55
  binsize = 3.775, bins = 3 3 3
  2 neighbor lists, perpetual/occasional/extra = 1 1 0
  (1) pair eam, perpetual
      attributes: half, newton on
      pair build: half/bin/atomonly/newton
      stencil: half/bin/3d/newton
      bin: standard
  (2) compute rdf, occasional, copy from (1)
      attributes: half, newton on
      pair build: copy
      stencil: none
      bin: none
Setting up Verlet run ...
  Unit style    : metal
  Current step  : 0
  Time step     : 0.005
Per MPI rank memory allocation (min/avg/max) = 3.706 | 3.706 | 3.706 Mbytes
Step PotEng KinEng TotEng Temp Press Density c_msdall[4] 
       0        -91.2    4.9487247   -86.251275         1235    9657.1697    10.472245            0 
     100   -88.190228    3.2863691   -84.903859    820.14379   -13193.722    9.8923908   0.04635754 
     200   -86.544602    2.8237009   -83.720901    704.68068   -15324.934    9.6697528  0.096812362 
     300   -86.648963    3.9868593   -82.662103    994.95761    800.74782    9.8195347   0.11139645 
     400   -85.924235    4.3909564   -81.533279    1095.8038    21071.141    9.9563442   0.10242202 
     500   -85.550527    5.0041947   -80.546332    1248.8431    2845.0978    9.6764808   0.12131222 
     600   -85.221551     5.362058   -79.859493    1338.1512   -11606.409     9.446652   0.12425596 
     700   -85.736474    4.3580519   -81.378422    1087.5922   -11420.926    9.5381907  0.099610062 
     800   -86.261426     4.274121   -81.987305    1066.6464   -7753.2507    9.6757573  0.098696809 
     900   -85.432745    5.3006567   -80.132088    1322.8279    4344.6534    9.6825639   0.13043896 
    1000   -84.727162    5.0050867   -79.722076    1249.0657    17296.303    9.7228526   0.15559666 
    1100   -86.756447    5.1499706   -81.606477    1285.2228   -13098.865    9.6816997  0.092821848 
    1200   -86.653936    4.8065044   -81.847432    1199.5076   -11177.827      9.68142  0.075302132 
    1300   -85.271791    5.0708972   -80.200894    1265.4893    6864.6647    9.6650565   0.14677131 
    1400   -85.023551    5.7817292   -79.241822     1442.884   -13161.781    9.4344953   0.16095687 
    1500   -85.151652    3.9246122    -81.22704    979.42327   -9481.3144    9.5001331   0.12415002 
    1600   -85.529607     4.189783   -81.339824    1045.5991     14853.33     9.806282   0.12414849 
    1700   -85.071544     5.683918   -79.387626    1418.4743   -284.06321    9.5775601   0.13944591 
    1800   -84.943854    4.6561528   -80.287702     1161.986    8766.8388      9.70299   0.13994016 
    1900   -85.549377     3.523883   -82.025494    879.41758   -7306.1635    9.6084098   0.11292897 
    2000   -84.070449    4.5522986   -79.518151    1136.0682   -7176.3247    9.3433959   0.20743866 
    2100    -84.93207     5.250318   -79.681752    1310.2654    5039.1315    9.6204276   0.12133983 
    2200   -85.896832    4.6488669   -81.247965    1160.1677     23702.06    9.9940579  0.080916204 
    2300   -84.716043    4.8042007   -79.911843    1198.9327    2914.9189    9.5809295   0.14810481 
    2400   -83.938627    4.7597348   -79.178892    1187.8358   -29542.153    9.1054362   0.17286292 
    2500   -85.515727    4.5876549   -80.928072    1144.8917    -23978.48    9.3824382    0.1427969 
    2600   -85.017006    5.1648527   -79.852153    1288.9367    15613.684    9.7346504   0.11358657 
    2700   -84.538711    6.4677524   -78.070959    1614.0874    20710.309     9.697328   0.11483167 
    2800   -85.580185    5.0092442   -80.570941    1250.1032    16956.918    9.8308485   0.11685991 
    2900   -85.543749    5.0038843   -80.539864    1248.7656   -7891.8889    9.5582736    0.1476779 
    3000   -83.105504    5.1587905   -77.946713    1287.4239   -27412.928     9.017838   0.18022743 
    3100   -84.442244    4.6814707   -79.760774    1168.3043    4336.7936    9.5352365   0.14208933 
    3200   -85.349859     4.637782   -80.712077    1157.4014    25012.433    9.8867662   0.12324465 
    3300   -85.109287      5.52244   -79.586847     1378.176    -5754.451    9.4984469   0.14024023 
    3400   -83.866934    5.6800503   -78.186884    1417.5091   -4350.8532    9.3394547   0.16115054 
    3500   -84.703792    4.3982733   -80.305519    1097.6298    6344.3249    9.6042557   0.14888597 
    3600   -85.693418    4.7509478    -80.94247     1185.643    10250.229    9.7920568   0.12857937 
    3700   -86.101706    5.9696104   -80.132095    1489.7715    5275.0483     9.749871   0.11915347 
    3800   -84.590467    5.0713756   -79.519092    1265.6087    1082.8293    9.5219851    0.1489837 
    3900   -86.081226    4.4644013   -81.616825    1114.1326   -21648.511    9.5051444  0.098292725 
    4000   -85.420671    3.7220094   -81.698662    928.86187    12790.498    9.7909993   0.11111576 
    4100   -85.080922    5.2781454   -79.802777      1317.21    4700.7457    9.6338469   0.10269601 
    4200   -85.852909    5.1922088     -80.6607    1295.7637   -1322.1805    9.6822314   0.10516117 
    4300   -86.410165    4.5184979   -81.891667    1127.6329    7163.9822     9.879335  0.082465655 
    4400   -84.476421    5.4113084   -79.065113    1350.4421   -11299.559    9.4104741   0.16576341 
    4500   -85.066584    4.9784569   -80.088127      1242.42    10297.728    9.7177738   0.13265225 
    4600   -84.352298    3.0386128   -81.313685    758.31393    26164.194     9.832552   0.11847621 
    4700   -84.067852    5.0067779   -79.061074    1249.4877    7497.2103    9.5185724   0.15593922 
    4800   -84.496135    5.4425336   -79.053602    1358.2346   -23256.454    9.2668744   0.20048216 
    4900   -85.540549    4.6307682   -80.909781     1155.651   -17502.457    9.4583588    0.1426597 
    5000   -85.689508    5.0002032   -80.689304     1247.847   -6360.5877    9.5625575   0.13555298 
    5100    -83.45488    5.2399475   -78.214933    1307.6774   -1345.0905    9.3515548   0.22100995 
    5200   -84.189497    3.7161806   -80.473316    927.40723    16809.746    9.7380391   0.14707078 
    5300   -86.413841    5.5210138   -80.892827      1377.82    2564.3358    9.7799888  0.098123811 
    5400    -83.26197    4.7873253   -78.474645    1194.7213   -14693.685    9.1785459    0.2179177 
    5500   -83.942334    5.1883258   -78.754008    1294.7947    5107.9225    9.4422552   0.22137714 
    5600   -84.724767    4.8318617   -79.892905    1205.8358   -29271.299    9.2155532   0.15800798 
    5700   -85.885552    5.6405949   -80.244958    1407.6626   -5742.2664    9.6217261   0.13492769 
    5800   -86.880659    4.6161805   -82.264478    1152.0105    26116.751    10.104776  0.071406242 
    5900    -85.46228    5.0828491   -80.379431     1268.472   -5726.7378    9.5690869   0.12067051 
    6000   -84.669646    4.7629142   -79.906732    1188.6293   -25842.583     9.236489   0.12160441 
    6100    -84.44704    4.2578412   -80.189199    1062.5837   -10529.185    9.4264607   0.15978404 
    6200   -86.660935    4.0028568   -82.658078    998.94994    18247.573    9.9744227  0.092063328 
    6300   -85.862656    4.8334316   -81.029224    1206.2276    1179.0389    9.6997059   0.12589342 
    6400   -83.732138    3.7126256   -80.019513    926.52005    5711.1176    9.4756208   0.21553351 
    6500   -83.869486    4.3948916   -79.474595    1096.7858   -14231.683     9.274099   0.21810977 
    6600    -85.43379     3.623382   -81.810408     904.2485    12439.951    9.7797455   0.13006925 
    6700   -85.427878    3.9136505   -81.514228    976.68767    12631.671    9.7880336    0.1166517 
    6800   -84.523766    4.5149577   -80.008808    1126.7494   -869.57086     9.517931   0.16378862 
    6900   -84.703132    4.5220205   -80.181112     1128.512   -12807.211    9.4101677   0.17527684 
    7000   -86.424807    3.9264343   -82.498373      979.878    10837.619    9.8940579   0.08023393 
    7100   -85.991298    5.5867945   -80.404504    1394.2362    26409.463    9.9804371   0.10162135 
    7200   -84.653415    4.5972422   -80.056173    1147.2843    12597.237    9.6244632   0.16257323 
    7300   -84.394968    4.9690056   -79.425963    1240.0613   -36637.618    9.0876053   0.12146129 
    7400     -85.2601     4.809997   -80.450103    1200.3792   -9317.5144    9.5047404   0.13450309 
    7500   -86.597803    4.7170098   -81.880793    1177.1734    5967.2159    9.8711395  0.096039724 
    7600   -84.978921    4.4930734   -80.485848     1121.288    13633.824    9.7377571   0.16817028 
    7700   -83.722064    4.5275744   -79.194489    1129.8981   -13852.599    9.2677697   0.17193457 
    7800   -85.213145    3.9634629   -81.249682    989.11882   -12462.621     9.496191   0.12789984 
    7900   -87.156329    5.9230817   -81.233248    1478.1598   -5655.8135     9.764352   0.07820587 
    8000   -84.909858    5.7717599   -79.138098     1440.396    23622.661    9.8350996   0.13121117 
    8100   -85.534572    5.4886214    -80.04595    1369.7362   -5583.8208    9.5697406   0.11605985 
    8200   -86.363598    4.2534398   -82.110158    1061.4852   -23678.766    9.5120726   0.11011882 
    8300   -84.152443    4.3067243   -79.845718    1074.7829    5522.2156     9.497877   0.18020071 
    8400   -84.952663    5.4093301   -79.543333    1349.9484    9317.8314    9.6572375   0.14040976 
    8500   -85.589697    4.1202025   -81.469494    1028.2346    417.18631    9.6652268   0.12715858 
    8600   -84.942345    4.8744001   -80.067945    1216.4516   -1822.5991    9.5522115   0.14115161 
    8700    -84.64601    5.5271331   -79.118877    1379.3472   -10293.515    9.3808307    0.1624781 
    8800   -85.541197    4.3703027   -81.170894    1090.6494    10607.985    9.7699734   0.11457447 
    8900   -85.440484    4.4979857   -80.942499    1122.5139    5921.3524    9.7195409   0.14065765 
    9000   -85.196198    6.2669623   -78.929236    1563.9784   -17342.524     9.352114   0.12713457 
    9100   -85.937252    4.9771157   -80.960136    1242.0853   -7097.7157    9.5773056   0.14574843 
    9200   -84.809776    4.1206417   -80.689135    1028.3442    12143.599    9.6726801   0.14252831 
    9300    -84.33984    6.1102544   -78.229586    1524.8705    16372.568    9.6098588   0.14896901 
    9400   -84.931506    4.7040482   -80.227457    1173.9387    8574.6332    9.6233723   0.12171221 
    9500   -85.506732    4.3542961   -81.152436    1086.6549   -12106.061    9.4898991   0.11439308 
    9600    -83.35298    4.8426087   -78.510371    1208.5178    7093.6963    9.3807126   0.20340211 
    9700   -84.097966    4.5326927   -79.565273    1131.1754   -3057.5035    9.4192799   0.18601927 
    9800   -86.827369    5.4244349   -81.402934    1353.7179     -2606.36    9.7899584  0.094714606 
    9900   -85.483895    5.4055435   -80.078352    1349.0034    8935.3167    9.7348212    0.1288288 
   10000   -84.147312    5.1281825    -79.01913    1279.7854   -1494.9781    9.4231217    0.2082103 
   10100   -85.412021    4.4465971   -80.965424    1109.6894   -29566.825    9.3123481    0.1375497 
   10200   -84.976863    4.1863093   -80.790553    1044.7322   -19000.531    9.3723979   0.14382138 
   10300   -84.438576     5.882842   -78.555734    1468.1176    15929.949    9.6294862   0.19504752 
   10400   -86.333229    6.4640402   -79.869189     1613.161     25120.63    9.9999074   0.10266718 
   10500   -85.988896    4.7227399   -81.266156    1178.6034   -2816.3407    9.6755928   0.11964686 
   10600   -84.731471    5.0381237   -79.693348    1257.3103   -6486.5837    9.4483996   0.15858006 
   10700   -82.765303    4.2002203   -78.565082    1048.2038    24385.788    9.4775198   0.25848997 
   10800   -85.377157    4.2766014   -81.100556    1067.2654   -22608.922    9.4117597   0.11583549 
   10900   -85.578192    4.5809944   -80.997197    1143.2295    4054.1094    9.6834643    0.1067147 
   11000   -85.144393    5.4549646   -79.689429    1361.3369     21375.79    9.7941363   0.14937538 
   11100   -84.117453     5.861766   -78.255687    1462.8579   -12773.823    9.2748894   0.17720141 
   11200   -84.372092    5.4191484   -78.952944    1352.3986   -17595.534    9.3000302   0.16937882 
   11300   -85.637185    5.4361187   -80.201066    1356.6337   -1743.1314    9.6307643   0.12186565 
   11400   -85.377188    4.9336013   -80.443587    1231.2258   -3526.6836    9.5982931   0.12500808 
   11500   -85.578226    5.9458847   -79.632342    1483.8505   -491.56358    9.6120205    0.1283239 
   11600   -82.558131    4.9370976   -77.621033    1232.0984    4725.1151    9.2450807   0.21005055 
   11700   -84.556002    4.3736387   -80.182363     1091.482    3238.3082    9.5348084   0.18091579 
   11800   -86.254236     5.855711   -80.398525    1461.3468   -13106.906    9.5961797  0.079312598 
   11900   -86.657476    4.8065625   -81.850913    1199.5221   -1326.1496    9.7722152  0.093307537 
   12000   -86.321226    3.4272172   -82.894009    855.29374   -8380.5505    9.6850541   0.10200591 
   12100   -84.873603    4.3208582   -80.552745    1078.3101    20608.328    9.7686482   0.11980889 
   12200   -84.242487    3.9154082   -80.327079    977.12633    10474.139    9.5900233   0.13104043 
   12300   -84.563404    4.0780342   -80.485369    1017.7111     3027.113    9.5577183   0.15081362 
   12400   -85.948048    4.0885492   -81.859498    1020.3353    2911.9818    9.7355458   0.12653953 
   12500   -86.672751    4.0682673   -82.604483    1015.2737    5745.0239    9.8842941  0.078371918 
   12600   -85.026096     4.145574   -80.880522    1034.5663     10576.82    9.7165656    0.1184122 
   12700   -85.196537    5.2778378   -79.918699    1317.1332   -6212.4836    9.5418359   0.13718445 
   12800   -84.829875    5.4889718   -79.340903    1369.8237   -24573.974    9.2712466   0.17569798 
   12900   -86.553332    4.4202823    -82.13305    1103.1223   -27898.907    9.5173513   0.10460809 
   13000   -85.655459    4.8941512   -80.761308    1221.3807   -7860.9736    9.5726157   0.13089745 
   13100   -85.069701    5.3801024   -79.689598    1342.6543    14153.583    9.7445721   0.13354148 
   13200   -85.351896    3.8734903   -81.478406    966.66532     21260.82    9.8941343  0.096180635 
   13300   -85.568995    4.0245387   -81.544456    1004.3608    8596.4399    9.7785059   0.15193401 
   13400    -83.65366    4.0453285   -79.608331    1009.5491   -9388.6374    9.2396362   0.21012001 
   13500   -83.956725    4.5941042    -79.36262    1146.5012   -33137.949    9.0762755   0.20989176 
   13600   -86.232018    4.4848634   -81.747155    1119.2391   -5550.5423    9.6790729  0.091206696 
   13700   -85.905161    5.1489142   -80.756247    1284.9592    29828.675    10.007552   0.09971972 
   13800   -84.436519    5.2499275   -79.186591     1310.168    21368.868    9.7132276   0.12400467 
   13900   -85.278797      4.53333   -80.745467    1131.3344    4159.9153    9.6668486   0.13181831 
   14000   -86.283719    4.5909911   -81.692728    1145.7243   -17609.928    9.6013018   0.10143879 
   14100   -84.219777    5.2989551   -78.920821    1322.4033   -14243.916    9.3266148   0.20916358 
   14200   -84.943577    5.2740236   -79.669553    1316.1814    -20529.94    9.3848852   0.13659572 
   14300   -86.337514    4.8516187   -81.485895    1210.7663    13251.101    9.9111937    0.1054745 
   14400   -84.851878    5.2509676    -79.60091    1310.4275    16092.206    9.7147638   0.13512368 
   14500   -84.021831    4.7082938   -79.313537    1174.9983   -7276.6923    9.3680387   0.19266603 
   14600   -85.608504    3.9403557   -81.668148    983.35219   -1418.1041     9.659994   0.13114987 
   14700   -85.373572     4.658555   -80.715017    1162.5855    8156.8378    9.7097944   0.10387683 
   14800   -84.210922    5.3018449   -78.909077    1323.1244    28909.096    9.7715495   0.19149955 
   14900   -85.278205    4.8380228   -80.440182    1207.3733   -8088.0435    9.5230559   0.12210638 
   15000   -86.454947    4.6843193   -81.770628    1169.0152   -16687.065     9.564251   0.09462712 
   15100   -84.830265    5.3003706   -79.529895    1322.7565   -6113.6329    9.4754669   0.16189779 
   15200   -84.737822    4.8844861   -79.853336    1218.9687    4995.8291    9.6081214   0.14498506 
   15300   -85.996644    4.1847011   -81.811943    1044.3309    17422.599     9.939647   0.10292644 
   15400   -84.360457    4.6543907   -79.706067    1161.5462    218.36478    9.5069507   0.13928484 
   15500   -84.184897    4.4704903   -79.714407    1115.6522    2171.5265    9.4976225   0.16122672 
   15600   -86.033062    4.5869638   -81.446098    1144.7192    -18707.79    9.5314434   0.11732488 
   15700    -85.45436    5.4782314   -79.976129    1367.1433   -14595.171    9.4744258   0.11671156 
   15800   -84.463598    5.7206232   -78.742975    1427.6344    15111.056     9.674877   0.14228185 
   15900     -85.9065    5.2447194   -80.661781    1308.8682    42437.889    10.146534   0.10358989 
   16000   -85.484145    4.9840715   -80.500074    1243.8211   -9867.6575    9.5166966   0.12464884 
   16100   -82.576422    4.1088171   -78.467605    1025.3933   -19433.636    9.0444572    0.2445926 
   16200    -84.99226    4.4545531   -80.537706    1111.6749   -19230.965    9.3885448   0.15600997 
   16300   -86.253363     4.975695   -81.277668    1241.7307    167.63213    9.7643955  0.081341231 
   16400    -84.36272    5.6682514   -78.694469    1414.5645    20658.485    9.6791769   0.16181989 
   16500   -85.874627    6.1628207   -79.711807    1537.9889   -2200.8362    9.6444314   0.10564298 
   16600   -86.197505    4.7814022   -81.416102    1193.2431    11059.441    9.8589905  0.091563977 
   16700   -84.582209    4.9278857   -79.654323    1229.7994   -2588.0126    9.4906709   0.17572124 
   16800   -83.894965    5.1681715   -78.726793     1289.765   -8723.2944     9.339018   0.17258153 
   16900   -85.894502     4.899235   -80.995267    1222.6494   -726.26472    9.6814891   0.10664988 
   17000   -84.869745    4.0914256   -80.778319    1021.0531    7987.9795    9.6654617   0.16160882 
   17100    -83.73683    5.2711827   -78.465647    1315.4724   -19082.587    9.1973436   0.17378109 
   17200   -85.360857    4.7142848   -80.646572    1176.4934    3534.0894    9.6480016   0.14002842 
   17300   -85.154346    4.1266531   -81.027692    1029.8444    29684.913    9.9256423   0.13495634 
   17400   -84.133009    5.5619019   -78.571107     1388.024   -9559.4949    9.3843601   0.14417445 
   17500   -84.687215    4.4297216   -80.257494     1105.478    13843.193    9.6698787   0.12077493 
   17600    -85.65163    4.2173171   -81.434313    1052.4705   -11507.144    9.5436698   0.13638944 
   17700   -84.475681    5.3665458   -79.109135    1339.2711    -5947.491    9.3689375   0.13646946 
   17800   -85.586908    6.5230985   -79.063809    1627.8996    20012.004    9.8311631  0.093356587 
   17900   -85.715451    4.4066203   -81.308831    1099.7128    13791.829    9.8460344   0.12006824 
   18000   -85.257905    5.6107969   -79.647108    1400.2263   -22107.777    9.3333288   0.12288717 
   18100   -82.706513    4.3328446   -78.373668    1081.3014    3147.6538    9.3387544   0.21454951 
   18200   -86.034137    4.8532473    -81.18089    1211.1727   -2902.6615    9.7268992   0.12491924 
   18300   -86.128996    5.3105495   -80.818447    1325.2967    609.04699    9.7078642   0.11619728 
   18400   -84.282384    5.4872693   -78.795115    1369.3988   -20961.605    9.2202029   0.14307953 
   18500   -85.035197    4.8995067    -80.13569    1222.7172   -27290.521    9.2893934   0.14067382 
   18600   -85.516124    4.4322071   -81.083917    1106.0983    15521.756    9.8332316   0.11087003 
   18700   -84.548216    5.4562271   -79.091989    1361.6519    27617.175    9.8006735    0.1665174 
   18800   -83.916388    4.9908603   -78.925528    1245.5154   -11002.779    9.3227916   0.17203678 
   18900   -85.755127    4.6309319   -81.124195    1155.6919   -16547.246    9.5194287   0.11200248 
   19000   -84.832462    4.3287455   -80.503717    1080.2785    6118.5196    9.6057319    0.1254171 
   19100   -84.387986    5.8349663   -78.553019    1456.1698    1683.1016    9.4597594   0.14695106 
   19200   -85.413398    4.6285207   -80.784878    1155.0901    17595.614    9.8288675   0.11683833 
   19300   -85.584665    4.7990475   -80.785618    1197.6467    18328.982    9.8407488    0.1260372 
   19400   -82.971605    4.6099481   -78.361657    1150.4552   -19170.089    9.1021543   0.18093862 
   19500   -84.637019    4.1832427   -80.453777    1043.9669    -19857.39    9.3186353   0.18048086 
   19600   -85.314976     4.692016    -80.62296     1170.936    4431.9696    9.6627602   0.11292502 
   19700   -84.587814    6.4018635    -78.18595    1597.6442     19897.94    9.7466651    0.1470334 
   19800   -84.464892    5.3571563   -79.107736    1336.9279     40877.15    9.9492841   0.12199067 
   19900   -85.333472    4.3142609   -81.019211    1076.6637    4626.0982    9.7128055   0.11856942 
   20000   -85.007997    5.2223413   -79.785655    1303.2836   -4487.7486    9.5155041   0.13139145 
   20100   -84.017569    6.1576079   -77.859961     1536.688   -22804.011     9.221703   0.18562913 
   20200   -85.769488    5.1076756   -80.661812    1274.6677   -15045.501     9.492458   0.11946791 
   20300   -85.087423    4.5462404   -80.541182    1134.5563    9677.6626    9.6693291   0.12266465 
   20400   -84.325586    5.1638333   -79.161752    1288.6824     12729.83    9.5963108   0.13955447 
   20500   -83.048974    5.8188664   -77.230107    1452.1519    1660.6713    9.3459102   0.20639769 
   20600   -84.797771    4.5107015    -80.28707    1125.6873    16755.743    9.7723361   0.12176068 
   20700   -85.644741    5.1196214   -80.525119    1277.6489    17498.432    9.8857773   0.13549554 
   20800   -84.510853    5.3621967   -79.148657    1338.1858    2644.7572    9.5458405   0.14332093 
   20900   -82.775884    5.0454064   -77.730478    1259.1278   -1664.7757    9.2643216   0.25069163 
   21000   -84.893274    4.6539135   -80.239361    1161.4271   -24705.067    9.2823233   0.15207032 
   21100    -85.09005     4.505099   -80.584951    1124.2891    2637.7785    9.6240552   0.13635796 
   21200   -85.400406    6.0093991   -79.391007    1499.7011    5948.6168     9.681714   0.15731259 
   21300    -83.84627    6.6031239   -77.243146    1647.8706   -10392.377    9.2830353   0.23262323 
   21400   -84.132135    4.0475528   -80.084582    1010.1042   -13256.564    9.3252689     0.179857 
   21500    -85.65728    5.4933061   -80.163974    1370.9053   -28078.244    9.3590923    0.1263425 
   21600   -84.462614    4.2439976   -80.218616    1059.1288    11126.389     9.631756   0.17278678 
   21700   -82.603558    6.0464199   -76.557138      1508.94    12945.831    9.3261461    0.2366568 
   21800   -84.649996    5.8172122   -78.832784    1451.7391     10407.83     9.624726   0.16477173 
   21900   -85.230292     4.896419   -80.333873    1221.9466   -2996.6056    9.5281105   0.16034172 
   22000   -84.069858    3.9724903   -80.097368    991.37169   -16702.865    9.2744742   0.16512354 
   22100   -85.694619    3.6502684   -82.044351    910.95823   -11710.514    9.5840778   0.12625797 
   22200   -85.970481    4.1375027   -81.832979    1032.5521    25578.046    10.010759  0.082984118 
   22300   -85.476465    5.5657623   -79.910702    1388.9875    5538.2793    9.6936522   0.13294324 
   22400   -85.500754     5.421223   -80.079531    1352.9163   -13290.516    9.4672821   0.12133118 
   22500   -86.322663    4.3266141   -81.996049    1079.7466   -9431.3191    9.6692383  0.094764496 
   22600   -86.195191    4.5843661   -81.610825    1144.0709   -9111.1314    9.6415678  0.088946007 
   22700   -84.836137    4.9832819   -79.852855    1243.6241    22702.892    9.7762385   0.16200036 
   22800   -85.315795    5.3197688   -79.996026    1327.5975   -9419.8759    9.5135101   0.12956373 
   22900   -85.433634    4.4671397   -80.966494     1114.816    12422.128    9.7787653   0.14678502 
   23000   -85.651461    3.1090075   -82.542454    775.88156    4514.3333    9.7744954  0.093967486 
   23100   -85.316407    4.7835175   -80.532889     1193.771     10025.91     9.741391   0.11476816 
   23200    -85.10436    5.2633239   -79.841036    1313.5112    13647.176    9.7340348   0.11785346 
   23300     -85.0642    4.5498728   -80.514327    1135.4628    -5300.815    9.5380363   0.15717262 
   23400   -86.341639    3.4539463   -82.887693    861.96423    2108.1381    9.7835942  0.083168332 
   23500   -85.919939     5.191576   -80.728363    1295.6058   -8149.6384    9.6103714   0.11906446 
   23600   -86.196329    6.4930105   -79.703318    1620.3908    16278.761    9.8474255  0.090840295 
   23700    -85.76568    5.1669832   -80.598697    1289.4684    3270.1945    9.7444316   0.11784099 
   23800   -85.530449    2.8600121   -82.670437    713.74248   -14463.053     9.522147   0.12464928 
   23900   -85.496717    4.2393824   -81.257335    1057.9771   -15896.665    9.4819304   0.12608075 
   24000   -85.976699    5.7547873   -80.221912    1436.1604   -3691.6148    9.6407454  0.078065283 
   24100    -85.31071     5.242937   -80.067773    1308.4234    15497.697     9.812469    0.1099664 
   24200   -85.133874    6.8578643   -78.276009    1711.4434    10440.697    9.6660144   0.12522081 
   24300   -83.347032     4.767988   -78.579044    1189.8955   -4359.3333    9.2957057    0.2755761 
   24400    -85.07057    4.1484557   -80.922114    1035.2855   -23112.244    9.3641688   0.16283119 
   24500   -85.314148    4.7929828   -80.521166    1196.1332   -3795.5475    9.5830682   0.13088774 
   24600   -83.943846    6.1119741   -77.831872    1525.2997   -3057.0276    9.4071247   0.23437018 
   24700   -84.000625    5.2299409   -78.770684    1305.1801   -17805.059    9.2455553   0.19973759 
   24800   -85.566691    4.9987976   -80.567894    1247.4962   -32047.698    9.2947849   0.12392854 
   24900   -85.202555     4.963192   -80.239363    1238.6105    6055.9867    9.6507733   0.14980934 
   25000   -84.818602    6.5952636   -78.223338     1645.909   -22424.529    9.2697789   0.19039584 
   25100   -85.659539    4.9721635   -80.687376    1240.8494    14737.364    9.7983815   0.13696013 
   25200   -85.872744    5.0457836   -80.826961     1259.222   -4733.0291     9.657944    0.1110876 
   25300   -84.400682    4.7300758   -79.670606    1180.4342     27414.06    9.8155183   0.13167758 
   25400   -84.225464    4.8648914   -79.360573    1214.0786    6795.1739    9.5253256   0.15296532 
   25500   -86.205876    3.9720639   -82.233812    991.26527   -26288.394    9.4852214   0.11328425 
   25600   -85.476063    4.6743898   -80.801673    1166.5372   -13690.709    9.5048654    0.1359231 
   25700   -84.240505    4.6371161   -79.603389    1157.2352   -3042.1351      9.45494   0.19869512 
   25800   -85.340086    4.7977338   -80.542352    1197.3188   -5609.5784    9.5690018   0.11785522 
   25900   -86.318056    4.3301191   -81.987937    1080.6213    -3409.389    9.7323852   0.11612142 
   26000   -84.510043    4.6822431     -79.8278    1168.4971    2514.5804    9.5114805   0.17289299 
   26100   -84.971562    4.8400809   -80.131481    1207.8869    559.63354    9.5654229   0.12032616 
   26200   -86.398163    4.2952231    -82.10294    1071.9127   -11841.853    9.6543358   0.12509445 
   26300   -85.363585    5.7088986   -79.654686    1424.7084   -21724.836    9.3683194   0.15879109 
   26400   -84.015254    4.4798661   -79.535388     1117.992    21840.477    9.6810363   0.16265532 
   26500   -85.823344    4.6462858   -81.177058    1159.5236   -2212.0375    9.6538143   0.12355633 
   26600   -86.481011    4.7900245   -81.690987    1195.3949   -23854.821     9.537976  0.078090385 
   26700   -84.511856    5.5687515   -78.943105    1389.7334   -1030.2141    9.4732367   0.17771156 
   26800   -85.149479    5.0320217   -80.117457    1255.7875   -4077.7917    9.5657245   0.14647446 
   26900   -86.102729    5.2713134   -80.831416     1315.505   -8007.6476    9.6239585  0.096483248 
   27000    -85.21748    5.5828796     -79.6346    1393.2592    13211.737    9.7055226   0.13729807 
   27100   -84.152174    5.9281604   -78.224013    1479.4272    -10016.89    9.3656579   0.15816303 
   27200   -84.778712    4.6889089   -80.089803    1170.1606    9716.4918    9.6593718   0.15343176 
   27300   -85.096493      4.40672   -80.689773    1099.7377    -2526.057     9.592377    0.1080177 
   27400   -85.259391    4.4003601   -80.859031    1098.1506    15018.423    9.7673042   0.10959739 
   27500   -83.424037    5.9176019   -77.506435    1476.7923   -8885.4819    9.2706362   0.18031661 
   27600   -84.670919    5.5911147   -79.079804    1395.3144    30303.102    9.8614492   0.14821585 
   27700   -85.008671    5.2070566   -79.801614    1299.4691    5975.8161    9.6521951   0.14139868 
   27800   -84.741532     4.582618   -80.158914    1143.6347    7696.6098    9.6504605   0.14840207 
   27900   -86.175823    3.6246207   -82.551202    904.55762    -23462.17    9.5150533   0.10099095 
   28000   -85.685677    5.1918855   -80.493791     1295.683   -32583.364    9.3454294   0.13519978 
   28100   -84.430706    4.7891276   -79.641579    1195.1711    40962.018    9.9221638   0.14427056 
   28200   -85.561239    5.2805037   -80.280736    1317.7985    24901.922     9.900041    0.1064122 
   28300   -86.878206    4.6671406   -82.211065    1164.7281   -11219.443    9.7159592  0.082268687 
   28400   -84.966316    5.0605677   -79.905748    1262.9115   -22019.538    9.3365383   0.14251621 
   28500   -85.144371    5.3029926   -79.841379    1323.4108    -1538.421    9.5722332   0.14893328 
   28600   -85.967505    4.0079248   -81.959581    1000.2147    6708.5726    9.8284352   0.11870401 
   28700   -85.190678    5.2013171   -79.989361    1298.0368    4843.7738    9.6471432   0.11065426 
   28800   -84.572084    4.9925681   -79.579516    1245.9415   -7868.3917    9.4174725   0.16443931 
   28900   -86.261612    4.6936806   -81.567932    1171.3514    -31685.15    9.4125043   0.10178402 
   29000   -86.000672    5.0303796   -80.970292    1255.3778    2141.0932    9.6972579   0.12495863 
   29100   -84.524255    5.7414918   -78.782763    1432.8424    17704.169    9.6497238    0.1521826 
   29200    -84.89535    4.4824548   -80.412895    1118.6381    13775.178    9.7365166   0.16167675 
   29300   -84.651623    3.4026855   -81.248938    849.17162   -27581.612    9.2625595   0.17431452 
   29400   -83.589176    4.7580889   -78.831087    1187.4251   -9486.1089    9.3014725   0.21755834 
   29500   -85.012684    5.4055739    -79.60711     1349.011     11281.42    9.6830843   0.16747831 
   29600    -85.48223    3.9335373   -81.548693    981.65061    2380.2049    9.6706237   0.12033096 
   29700   -84.851917    5.2791936   -79.572723    1317.4716   -12625.678    9.4255406   0.14275297 
   29800   -84.503528     6.433245   -78.070283    1605.4758    11776.309    9.6237896   0.16230207 
   29900   -84.373264    4.6136479   -79.759616    1151.3785    39299.244     9.919581   0.13032655 
   30000   -85.525225    4.1971698   -81.328056    1047.4425   -6646.8305    9.5862045   0.15180769 
   30100    -83.39502    4.5274769   -78.867543    1129.8737   -5613.9244    9.3483686   0.21913415 
   30200    -84.06039    4.8832019   -79.177188    1218.6482   -1519.9735    9.4331352    0.2001647 
   30300   -85.787772    4.6878576   -81.099914    1169.8982   -27448.109    9.4042128   0.12996213 
   30400   -85.138813    5.1188209   -80.019992    1277.4491    3866.0282    9.6285071   0.11441394 
   30500   -84.525867    5.7878905   -78.737976    1444.4216    30331.198    9.8447778      0.13853 
   30600       -86.01     4.842441   -81.167559    1208.4759    -4169.727    9.6469662   0.13031353 
   30700    -85.14208    5.1374767   -80.004603    1282.1048   -12106.678    9.4812154   0.14164753 
   30800   -84.375603    5.8647425   -78.510861    1463.6007    -23217.45    9.2460451   0.17664085 
   30900   -85.466552    4.0605433   -81.406008    1013.3461   -2557.4901    9.6453373   0.13905946 
   31000    -85.31529    4.8864227   -80.428868     1219.452    17814.778    9.7986548   0.13689202 
   31100   -84.413416    5.2015396   -79.211876    1298.0923   -9149.0203    9.3915863   0.18602455 
   31200   -83.979435    5.7382998   -78.241135    1432.0458     -27260.7    9.1408555   0.21610754 
   31300   -85.357721    4.0167482   -81.340973    1002.4166   -6576.5426    9.5655961    0.1260161 
   31400    -84.69407    4.1096872   -80.584383    1025.6104     13713.31    9.6779274   0.14004035 
   31500   -84.559176    5.8651193   -78.694056    1463.6948     16245.28    9.6914419   0.13566034 
   31600   -84.917153    4.7477426   -80.169411    1184.8431    4085.4083    9.6110258   0.12982851 
   31700   -85.571389    4.0945863   -81.476802    1021.8419   -19838.292    9.4257276   0.14968486 
   31800   -84.000182    4.3637241   -79.636458    1089.0077   -3904.5733    9.3739332   0.15159221 
   31900   -83.935225    3.9305082   -80.004717    980.89467    8717.1036    9.5393999   0.17573906 
   32000   -85.593477    3.5246064    -82.06887    879.59812    14290.123    9.8640097   0.12962932 
   32100   -84.766827    4.9204599   -79.846368    1227.9463    2576.5479    9.5463625    0.1333432 
   32200   -85.012822    5.6962964   -79.316526    1421.5634   -4715.0681    9.4858356   0.16172261 
   32300   -87.054218    5.9389103   -81.115308      1482.11    8005.8309    9.9165715  0.091041348 
   32400   -86.306171    5.1342255   -81.171946    1281.2934    9973.0004    9.8572875   0.10302424 
   32500   -84.636762    5.3781083   -79.258654    1342.1567    -24596.01    9.2457468   0.15835308 
   32600   -84.584745    4.5097153    -80.07503    1125.4412   -21744.838    9.2510318   0.15074006 
   32700   -86.421018    4.3023644   -82.118654    1073.6948    13886.401     9.924637    0.1043158 
   32800   -84.447559    4.5106028   -79.936956    1125.6627     16024.99    9.7142088   0.15373469 
   32900   -85.395647    5.9445421   -79.451105    1483.5155   -23148.361    9.3814505   0.14080358 
   33000   -85.200958    4.3354666   -80.865492    1081.9558    1267.4871    9.6369883   0.14971029 
   33100     -85.6336    3.8088254   -81.824775     950.5276    4311.5089     9.707559   0.12361303 
   33200   -83.929914    4.8051415   -79.124773    1199.1675   -10362.398    9.2920126   0.19038136 
   33300   -84.623859    4.6841367   -79.939722    1168.9696    2569.0154    9.5059334   0.17194515 
   33400   -85.678409    4.4347144   -81.243695     1106.724   -8232.8684    9.5693211   0.11924767 
   33500   -85.834176     5.731359   -80.102817    1430.3136    3065.3738    9.7091972   0.11944219 
   33600   -85.012739    6.4934335   -78.519305    1620.4964    21289.477    9.7710034   0.10469158 
   33700   -86.158878    6.0617434   -80.097134    1512.7641   -10102.531    9.5993456  0.099366776 
   33800   -85.413964    4.8275707   -80.586394    1204.7649   -6631.2244    9.5826503   0.13230525 
   33900   -83.256882    5.2369011    -78.01998    1306.9171    6708.4003    9.4018653    0.1974541 
   34000   -84.158337     5.222149   -78.936188    1303.2356   -10203.488    9.3021651   0.21574323 
   34100   -84.801934    3.8865434   -80.915391    969.92285   -15149.721    9.4296071   0.17274072 
   34200   -85.032651    5.1826361   -79.850015    1293.3748    21542.151    9.8020941   0.13035373 
   34300   -83.793873    5.7012595   -78.092614     1422.802    20570.181    9.6020715   0.13033032 
   34400   -86.339349     5.420393   -80.918956    1352.7092   -28411.983    9.4272089   0.10907291 
   34500   -85.062267    4.4400257   -80.622241    1108.0495   -16214.537    9.4050697   0.13962965 
   34600   -84.125297    5.2232669    -78.90203    1303.5145   -1688.7882     9.447876   0.17589322 
   34700   -84.296028    5.3465669   -78.949461    1334.2852    1943.1301    9.4740552   0.17996756 
   34800   -86.249011    5.0256398   -81.223371    1254.1949    5311.9345    9.7778154   0.10126657 
   34900   -86.019764    5.8061026   -80.213661    1448.9666   -1884.7816    9.6598221  0.094069991 
   35000   -83.463008    4.7832383    -78.67977    1193.7014    468.86877    9.3247279   0.22613225 
   35100   -83.428095    4.3861426   -79.041952    1094.6024   -41204.872    8.9070881   0.24103717 
   35200   -85.277808    3.8369151   -81.440893    957.53765   -22809.551    9.3783872   0.15794595 
   35300   -84.812697    4.9184178   -79.894279    1227.4366    4503.6503    9.6073068   0.13011718 
   35400   -83.638169    4.9852512   -78.652918    1244.1155     56986.36    10.021651   0.17013975 
   35500   -84.582464    4.9034587   -79.679005    1223.7035    -3803.946    9.4782073   0.15805248 
   35600    -84.82284    3.5374042   -81.285436    882.79192   -22428.156    9.3317704   0.14323701 
   35700   -85.614816    5.5772462    -80.03757    1391.8534   -3926.4255    9.5958686   0.11132853 
   35800   -85.156165    5.7759991   -79.380166     1441.454   -11101.737    9.4991798   0.14095536 
   35900    -85.07466    6.2919709   -78.782689    1570.2195    30282.464      9.88141   0.13249387 
   36000   -87.121343    5.7355096   -81.385834    1431.3495   -544.00529    9.8539264  0.071298718 
   36100   -86.155437     5.270958   -80.884479    1315.4163   -21613.751    9.5195041   0.12263089 
   36200   -84.854241    5.2327022   -79.621539    1305.8692   -13912.351    9.4087824   0.17583563 
   36300   -84.446979    4.2001368   -80.246842     1048.183    771.65227    9.5379377   0.15801785 
   36400   -86.331497    4.2712804   -82.060217    1065.9375    6922.7527    9.8462615  0.086757458 
   36500   -86.348893    6.2837677   -80.065125    1568.1723   -9554.1597    9.6094123   0.10362233 
   36600   -84.771289     4.645876   -80.125413    1159.4213   -19940.171     9.308056   0.17845481 
   36700    -84.67612    4.3290642   -80.347056     1080.358   -38137.269    9.0790624   0.17770485 
   36800   -86.844116    3.8520122   -82.992104    961.30527   -1745.2578    9.8177885  0.093962664 
   36900   -86.192716    5.3820755   -80.810641    1343.1467    8529.3879    9.8424782   0.10601664 
   37000   -84.947766    5.0038862   -79.943879    1248.7661    7056.4173    9.6295323   0.13258902 
   37100    -84.56144     3.920488   -80.640952    978.39404    24319.269    9.8077899   0.13019414 
   37200   -85.823882     3.389374   -82.434508    845.84962     5683.536    9.7746854    0.1231426 
   37300   -84.986446    5.0454516   -79.940994    1259.1391   -19886.523    9.3414679   0.13779755 
   37400   -85.400235    5.4730665   -79.927169    1365.8544   -890.01038    9.6287755   0.13176646 
   37500   -85.836974    5.3672662   -80.469707    1339.4509    23.903193    9.6628407   0.12493428 
   37600   -84.401112    6.0375534   -78.363558    1506.7273    27762.125    9.7450272   0.11625308 
   37700   -83.687931    6.8358734   -76.852057    1705.9554    15739.852    9.5941249   0.17998353 
   37800   -85.403422    6.0714818    -79.33194    1515.1944    -18628.76    9.4279151   0.12740118 
   37900   -85.171111    4.8037276   -80.367383    1198.8146    58.874396    9.6036465   0.17107522 
   38000   -84.917259    4.4211922   -80.496066    1103.3494     1405.055     9.591733   0.17889198 
   38100    -82.65383    5.1819141   -77.471916    1293.1946   -11897.505    9.1275204   0.25834744 
   38200   -84.704869    5.1208341   -79.584035    1277.9515   -22244.087    9.2937776   0.16795956 
   38300   -84.735831    4.3753552   -80.360475    1091.9104    5591.9288    9.6192861   0.15397736 
   38400   -85.271483    5.3688151   -79.902668    1339.8375    37588.259    10.029644   0.11281511 
   38500    -83.74383    6.5280834   -77.215747    1629.1436    27111.084    9.7107142   0.19204801 
   38600   -83.693963    4.5906009   -79.103362    1145.6269       6306.4    9.4887418   0.19026295 
   38700   -84.737195    4.4277515   -80.309443    1104.9863    2813.6883    9.5455673   0.12489236 
   38800   -84.892816      4.19118   -80.701636    1045.9477   -5428.2487    9.4939297   0.14438934 
   38900   -83.463928    5.0876515   -78.376277    1269.6705    1633.3565     9.361389   0.18621538 
   39000   -83.008126    4.3535166   -78.654609    1086.4603    24690.454    9.5891585   0.17202749 
   39100   -85.496586    5.3325496   -80.164036    1330.7871    4672.6329    9.6636686   0.12912106 
   39200   -84.712554    4.1732183   -80.539336    1041.4652   -19767.473    9.3186773   0.17518441 
   39300   -82.236385    4.6102801   -77.626104     1150.538   -22785.162    8.9339369   0.28926537 
   39400   -84.523726    5.8053952   -78.718331    1448.7901    25200.415    9.7629563   0.16364983 
   39500   -85.625097    5.3515574    -80.27354    1335.5306   -4360.4393    9.6124038   0.11018691 
   39600   -85.157908    4.5290973    -80.62881    1130.2781    1219.9979    9.6021967   0.13256963 
   39700   -84.994571    4.8848581   -80.109712    1219.0615   -11016.215    9.4653374   0.14417852 
   39800   -82.841315    5.4947066   -77.346608    1371.2548   -60.633242    9.1896367   0.39561017 
   39900   -84.178325     5.200894   -78.977431    1297.9312    14878.289    9.6101569   0.10983321 
   40000   -85.461816    5.1563078   -80.305509    1286.8043   -1132.8344    9.6075147   0.12687888 
   40100   -84.288399    3.9780373   -80.310362      992.756    13077.563    9.6264958    0.1481899 
   40200   -84.044622    5.6671062   -78.377516    1414.2788   -12.047526    9.4411586   0.18290321 
   40300   -81.481701    4.9363819   -76.545319    1231.9197   -10917.903    8.8198827   0.33923526 
   40400   -84.813899    4.8299765   -79.983923    1205.3653   -28112.634    9.1901915   0.16642892 
   40500   -84.366345    4.2033777   -80.162967    1048.9918    -14949.93    9.3347054   0.23464824 
   40600   -85.291021    5.2763191   -80.014702    1316.7542   -28177.037    9.2943459   0.16157823 
   40700   -85.699761    5.3799923   -80.319769    1342.6268    11239.981    9.7719336   0.13573333 
   40800   -86.745248    4.3647564   -82.380491    1089.2653    10288.251     9.909524  0.083190911 
   40900   -85.177086    4.9237088   -80.253377    1228.7571   -11228.678     9.508345   0.13547114 
   41000   -84.522237    4.7343994   -79.787837    1181.5132    9189.7934     9.614883   0.14286543 
   41100   -86.972368    5.2605127   -81.711855    1312.8096   -6614.5741    9.7745542   0.10549037 
   41200   -85.859418    4.3457069   -81.513711    1084.5114    -9182.761    9.6190599    0.1090364 
   41300   -85.222543    5.4723744   -79.750169    1365.6816   -1216.9426    9.6112339   0.12000978 
   41400    -85.20139    4.9690003    -80.23239      1240.06    15474.873    9.7853788   0.12411575 
   41500   -86.330078    4.9038692   -81.426209    1223.8059    13661.454    9.9184005  0.081086833 
   41600   -86.151329    3.3762814   -82.775047    842.58225   -30488.364    9.4231019  0.095419311 
   41700   -85.140424    4.7388151   -80.401609    1182.6151   -18968.345    9.3755001   0.13959124 
   41800   -84.455113    4.4974665   -79.957647    1122.3843    35002.122    9.8530504   0.15512884 
   41900   -85.050003    5.8020946   -79.247908    1447.9664   -3795.3327     9.509591   0.16522563 
   42000   -82.031649    5.2144835   -76.817165    1301.3226    -2056.847    9.1180869   0.21303575 
   42100   -84.784924    5.1381617   -79.646762    1282.2758   -19093.941    9.3022345   0.17645118 
   42200    -85.20561      4.97322    -80.23239     1241.113    4602.2172    9.6520963   0.12799167 
   42300   -84.791878    4.8176235   -79.974255    1202.2825    11423.282    9.7048358    0.1448623 
   42400   -85.408465    5.2861276   -80.122338     1319.202    16018.329    9.8115175   0.10694342 
   42500   -86.976532    4.4120273   -82.564505    1101.0622    9677.5743    9.9691895  0.076627148 
   42600   -86.101733    5.2403639   -80.861369    1307.7813   -8831.1932     9.600345   0.11232811 
   42700     -85.6607    5.7990261   -79.861674    1447.2006   -1962.0503    9.6542571   0.13372521 
   42800   -85.378793    4.6777754   -80.701017    1167.3821    -7640.603    9.5263472    0.1270225 
   42900   -86.631497    4.0185579   -82.612939    1002.8683   -5726.2527    9.7626764  0.095497075 
   43000   -86.156496    5.9050611   -80.251435    1473.6626   -601.91165    9.7086742   0.11925639 
   43100   -85.017072    5.4497822    -79.56729    1360.0435     16165.99    9.6962328   0.12842688 
   43200   -85.191685    4.2624197   -80.929266    1063.7262   -15430.314    9.4465295   0.14928892 
   43300    -85.25986    3.3377102    -81.92215    832.95645   -9330.9241    9.5067187    0.1159696 
   43400   -84.264507    4.7291574    -79.53535     1180.205     2471.151    9.4610442   0.18076732 
   43500   -84.585919    4.9303045   -79.655615    1230.4031    35457.091     9.939112   0.11983914 
   43600   -85.918754    4.9518036   -80.966951    1235.7684    17258.978    9.9098353   0.08022128 
   43700   -85.103898    4.6592697   -80.444628    1162.7639    -6236.606    9.5110502   0.13140299 
   43800   -83.835664    5.6119509   -78.223713    1400.5143    1379.9306    9.4136006   0.16988365 
   43900   -85.157114    4.9158213   -80.241293    1226.7887    16828.144    9.7799458   0.11672698 
   44000    -85.11548    4.8248062   -80.290674     1204.075    10769.469    9.7386474   0.15556919 
   44100   -83.567469    5.4483365   -78.119132    1359.6828   -4459.8178    9.3589624   0.18956886 
   44200   -83.364221    4.0227045   -79.341516    1003.9031    20213.287    9.5583016   0.20875081 
   44300   -85.768694    5.2269491   -80.541744    1304.4335    -3942.483    9.6303214   0.11725711 
   44400   -84.613996    4.5362689   -80.077727    1132.0678    4956.1017    9.5874843   0.18082083 
   44500   -82.709777     4.803903   -77.905874    1198.8584    3779.6335    9.2988325   0.16367777 
   44600   -86.359656    5.6894746   -80.670181     1419.861   -18374.877    9.5330745   0.11328692 
   44700   -85.111646    4.7187779   -80.392869    1177.6147    22711.054    9.8201751  0.091323199 
   44800   -84.085716    5.4746438   -78.611073     1366.248    1599.1427    9.4333557   0.18805926 
   44900   -83.594362    5.7558672   -77.838495    1436.4299   -12043.764    9.2602669   0.19202103 
   45000   -83.770516    3.5692755   -80.201241    890.74572    28968.189    9.7443341   0.15054817 
   45100   -85.554322    5.1884835   -80.365838     1294.834    -9902.135    9.5087326   0.10432429 
   45200   -85.223018    3.3644294   -81.858588    839.62447   -4668.7101     9.555376   0.13664851 
   45300    -86.13125    3.9456202    -82.18563      984.666     15995.28    9.9305309   0.10663738 
   45400   -85.777924    5.5042236     -80.2737    1373.6299    -271.7853    9.6490461   0.11990972 
   45500   -84.226892    4.4835897   -79.743302    1118.9213    3458.6042    9.5467909   0.13980863 
   45600   -84.680183    3.0649978   -81.615185    764.89856    8396.4435    9.6569397   0.13464104 
   45700   -85.880469    4.1663568   -81.714112    1039.7529    4215.1771    9.7453271   0.12527935 
   45800   -85.093161    5.2299382   -79.863223    1305.1794    1320.3392    9.5699036   0.13044316 
   45900   -84.365674    4.6734077   -79.692267    1166.2921    24298.418    9.7811966   0.18104781 
   46000   -86.101295    4.1255631   -81.975732    1029.5724   -2915.0381     9.712575   0.12033079 
   46100   -85.581609    3.9802147   -81.601395    993.29937   -29803.056    9.3759001   0.12986884 
   46200   -83.964518    3.9793703   -79.985148    993.08865     20069.28    9.6472968     0.179778 
   46300   -84.770903     4.887464   -79.883439    1219.7118     13165.69    9.6716892   0.12506335 
   46400   -86.360323    4.2656077   -82.094716    1064.5218   -21803.976    9.5528016   0.10892319 
   46500   -84.488427    3.9408024   -80.547624    983.46369   -3249.6511    9.4395582   0.17925253 
   46600   -85.013249    5.5601007   -79.453148    1387.5745   -21572.921    9.3444576   0.19517963 
   46700   -85.656008    5.6648781    -79.99113    1413.7227   -5883.0371    9.5822945   0.13557941 
   46800   -86.318376    4.7623765      -81.556    1188.4951   -1824.0549    9.7527784   0.11492907 
   46900   -83.317357    3.9419269    -79.37543    983.74432     4285.981    9.3514076   0.23961703 
   47000   -83.100384    4.2655156   -78.834868    1064.4989   -19229.924     9.058776   0.27215302 
   47100    -84.72335    4.9521957   -79.771155    1235.8662   -19360.096    9.3324005    0.1563064 
   47200   -85.558704    3.8396957   -81.719008    958.23157    11627.541    9.7644937   0.11556981 
   47300   -85.713381    6.1870412    -79.52634    1544.0333   -14157.503    9.5009153   0.10771148 
   47400   -85.278937    6.1336755   -79.145262    1530.7154   -5825.4177    9.4966355   0.17282253 
   47500   -85.989427    4.5465264   -81.442901    1134.6277   -10215.943    9.5922704   0.10043278 
   47600   -85.929575    4.7542733   -81.175301    1186.4729   -17599.238     9.499824   0.11843875 
   47700   -84.528069    5.2641747   -79.263894    1313.7235   -6638.5158    9.3978553   0.22903732 
   47800   -85.508406    5.6878724   -79.820534    1419.4612   -29673.556     9.313443   0.11265498 
   47900   -85.499381    4.1195625   -81.379818    1028.0749     25322.79    9.8991439   0.13717633 
   48000    -85.20235    5.8715088   -79.330841    1465.2893    4465.0009    9.6246188    0.1500645 
   48100   -85.915829    6.2659823   -79.649847    1563.7338   -22131.486     9.426644    0.1169804 
   48200   -85.051035    3.6708221   -81.380213    916.08759   -5280.9459    9.5330279   0.13538012 
   48300   -83.989683    4.4309797   -79.558703     1105.792   -15118.963    9.3221143   0.16061318 
   48400   -83.905217    5.4249271    -78.48029    1353.8407   -4296.7456     9.349738   0.21551021 
   48500   -86.013608    4.8874294   -81.126178    1219.7032    8851.2974    9.8361206    0.1066073 
   48600   -85.383279    4.9401902   -80.443088    1232.8701    1520.8764    9.6188102   0.10172498 
   48700   -83.983511    5.0873602   -78.896151    1269.5978   -14718.219    9.2651808   0.17354806 
   48800   -84.312351    4.3394592   -79.972892    1082.9522   -4291.1876    9.4815172   0.16936534 
   48900   -85.840065    4.6380932   -81.201972     1157.479    5340.6711    9.7593126     0.110628 
   49000   -84.839217    5.0153277   -79.823889    1251.6214    20343.669    9.8128157   0.13149516 
   49100   -84.569677    5.4463247   -79.123353    1359.1807   -4232.9896     9.452535   0.15930578 
   49200   -85.962484    4.1337591   -81.828725    1031.6178   -2017.5698    9.6902967   0.11167708 
   49300   -85.893371    4.9332847   -80.960087    1231.1468    3518.9017    9.7371123   0.13558149 
   49400    -85.15883    5.6906969   -79.468133     1420.166    26964.172     9.858418   0.12634592 
   49500   -85.481384    4.5180212   -80.963363     1127.514   -13581.711     9.498448   0.13022928 
   49600   -86.168288    4.5440082   -81.624279    1133.9993   -30007.949    9.4155451   0.11459424 
   49700   -84.562201     5.328298   -79.233903    1329.7261    10777.736    9.6047141   0.17956259 
   49800   -85.231292    5.0316141   -80.199678    1255.6858    1262.3333    9.6127459   0.11794018 
   49900   -85.772015    4.1212543   -81.650761    1028.4971    8342.1267    9.7904252   0.11546359 
   50000   -84.143388    4.9561244   -79.187264    1236.8467    2931.1411     9.446816   0.14885419 
   50100   -84.241152    5.0543101   -79.186842    1261.3498   -16664.714    9.2430617   0.18769951 
   50200   -84.572073    3.8332753   -80.738797     956.6293   -37226.257    9.1135418   0.16956774 
   50300   -85.459851    5.3798726   -80.079978     1342.597   -2709.9533    9.6145916   0.15104203 
   50400    -84.39187    6.2120342   -78.179836    1550.2706    4361.5573    9.5194396   0.20272794 
   50500   -85.758118    4.7328499   -81.025268    1181.1265    5420.5544     9.721156   0.11341436 
   50600   -85.532101    4.6851046   -80.846996    1169.2112   -5097.8671    9.5990546   0.13860041 
   50700    -83.60799    4.8659573   -78.742033    1214.3446   -7332.0701    9.2988674    0.1572162 
   50800   -85.079193    4.3597939   -80.719399    1088.0269   -8737.8078    9.4709593   0.15680065 
   50900   -85.618315    4.6334534   -80.984862    1156.3212    953.74097    9.6256722   0.13560282 
   51000   -83.467084    4.7643511   -78.702733    1188.9879    22257.392    9.5781881   0.15076399 
   51100   -85.487463    4.6270609   -80.860402    1154.7258   -6068.5065    9.5969493   0.11152177 
   51200   -85.108169     4.291553   -80.816616    1070.9967    10243.972    9.7272251    0.1052831 
   51300   -84.260458    5.3597208   -78.900738    1337.5679   -11978.393    9.3281623   0.19999531 
   51400   -82.879514    3.8044249   -79.075089    949.42941   -12166.692    9.1306279   0.30963657 
   51500   -85.308009    3.8614639   -81.446545    963.66401   -22887.741    9.4006158   0.14527731 
   51600   -85.034087    4.5915243   -80.442563    1145.8573   -9244.8783    9.4845451   0.16051665 
   51700   -83.676389    4.7278805   -78.948508    1179.8863    1212.2614    9.3904022   0.18112141 
   51800   -85.594181    5.1499078   -80.444273    1285.2071    8922.2764     9.741445   0.12454009 
   51900   -85.718979    4.4330751   -81.285904    1106.3149    34365.619    10.063254   0.10763832 
   52000   -84.259553    5.1568803   -79.102672    1286.9472   -5685.0509    9.4029498   0.17429937 
   52100    -84.15776    4.6409291   -79.516831    1158.1868   -25769.448    9.2127246   0.17929932 
   52200   -86.204915     4.698622   -81.506293    1172.5846    5521.4195    9.7975265  0.098433115 
   52300   -84.980192    5.4796438   -79.500548    1367.4958    40647.428    10.036012   0.10378312 
   52400   -84.231442     5.336329   -78.895113    1331.7302     1689.366    9.4977014   0.14139013 
   52500   -86.318225     4.972954   -81.345271    1241.0467   -4103.4851    9.6860359   0.10749284 
   52600   -85.297517    4.5597457   -80.737772    1137.9267   -13576.888    9.4579251   0.13162233 
   52700   -84.343709    5.3527994    -78.99091    1335.8406    4297.8894    9.5106612   0.17455117 
   52800   -85.819215    4.7427057   -81.076509    1183.5861   -1721.7513    9.6531281   0.11422799 
   52900   -86.075897    4.9850957   -81.090802    1244.0767   -13073.382     9.589995   0.11952043 
   53000   -84.434418    5.4022512   -79.032167    1348.1817    865.71696    9.4810796   0.14538925 
   53100   -85.620111    4.8893703    -80.73074    1220.1876    3826.2255    9.7061004   0.12247623 
   53200   -86.714349    5.4829903   -81.231358    1368.3309   -622.98859    9.7884294   0.10351142 
   53300    -85.28757    6.7546613   -78.532908    1685.6882   -12923.399    9.4206954   0.14263224 
   53400   -84.782115    5.6304677   -79.151647    1405.1353    21269.397    9.7682593   0.14649202 
   53500    -86.41449     4.639336   -81.775154    1157.7892     10125.08    9.8987931   0.10586181 
   53600   -84.484313    4.0985722    -80.38574    1022.8366   -19872.493    9.2743458   0.15791144 
   53700   -84.051802    4.6199033   -79.431899    1152.9396   -13425.264    9.3307633    0.1919493 
   53800    -86.24995    4.9560644   -81.293885    1236.8317   -8724.4712    9.6470684  0.090368687 
   53900    -86.40246    5.6458951   -80.756565    1408.9853    9685.2069    9.8596232  0.092171935 
   54000   -84.788196    6.0221052   -78.766091     1502.872    3098.7425    9.5504362   0.14028721 
   54100   -85.456589    4.4857635   -80.970826    1119.4638   -5630.6499    9.6165553   0.12730948 
   54200   -85.538251    4.7289946   -80.809256    1180.1643   -8248.5742    9.5581458   0.11191703 
   54300    -84.36878    5.7833365   -78.585443    1443.2851   -11648.706    9.3340661   0.19475802 
   54400   -84.814369    3.8335124   -80.980857    956.68847   -10506.226    9.4754201   0.12224447 
   54500    -85.61988    4.8040877   -80.815792    1198.9045    7907.1637    9.7634448   0.14777119 
   54600   -84.997917    6.5591548   -78.438762    1636.8977     33436.11    9.9199867   0.12600638 
   54700   -85.072947     5.926583   -79.146364    1479.0336    26011.722    9.8755409   0.11558827 
   54800   -85.724173    3.9322118   -81.791962    981.31981   -548.89592     9.674613   0.12126039 
   54900   -84.333386    4.2170101   -80.116376    1052.3939   -25267.602    9.2030747   0.15422482 
   55000   -84.427974    5.1264456   -79.301528    1279.3519   -5104.9262    9.4325487   0.15901767 
   55100   -86.349276    5.3881867   -80.961089    1344.6718    3679.9006    9.7890061   0.09196395 
   55200   -86.169148    6.0229014   -80.146246    1503.0707    19983.669    9.9357934  0.076546409 
   55300   -84.525541    6.1179597   -78.407581    1526.7934    19552.403     9.694288   0.15186185 
   55400   -85.242292    5.1224126   -80.119879    1278.3454   -6350.4558    9.5426655   0.11112799 
   55500   -85.773822    4.5138474   -81.259974    1126.4724   -1752.1782    9.6364595   0.12203921 
   55600   -84.437357    5.6631827   -78.774175    1413.2996   -6120.1513    9.4256761   0.13931709 
   55700   -84.604035    4.8328538   -79.771182    1206.0834    18685.961    9.7204264   0.11061564 
   55800   -85.267015     4.317665    -80.94935    1077.5132    34611.714    9.9858466    0.1268069 
   55900   -83.867539    4.6894236   -79.178115     1170.289    12756.743    9.5335794   0.18978428 
   56000   -83.499543    4.2773883   -79.222155    1067.4618   -14438.456    9.2304646   0.20190035 
   56100   -85.735542     4.180546   -81.554996    1043.2939   -9682.1182    9.5835317   0.10819993 
   56200   -84.038967    4.3047473   -79.734219    1074.2895     19048.95    9.6656957   0.13577518 
   56300   -84.825486    6.1134998   -78.711986    1525.6804    177.36193     9.509095   0.14590393 
   56400   -85.802903    4.2691248   -81.533778    1065.3996   -9596.5809    9.6095666   0.11790231 
   56500   -85.599474     4.951283   -80.648191    1235.6384     4382.478     9.680699   0.14436076 
   56600   -83.896089    4.8110465   -79.085042    1200.6411   -9190.9224     9.363605   0.19937003 
   56700   -85.826887    4.8305359   -80.996351    1205.5049   -26594.189    9.4232337   0.11146182 
   56800   -85.529001    3.9616706   -81.567331    988.67153    39677.728    10.100027   0.11596572 
   56900   -84.571434    5.0338385   -79.537595    1256.2409    22502.906    9.7793971   0.15170056 
   57000   -85.186892    6.4509986   -78.735893    1609.9063   -5571.4557     9.504599   0.15466179 
   57100   -86.446687    5.1678853   -81.278802    1289.6936    7557.3368    9.8427571  0.075805542 
   57200   -85.828357    4.6172578   -81.211099    1152.2794   -8106.0693    9.6085629   0.11903358 
   57300   -84.235064    4.9158845   -79.319179    1226.8044   -550.27572    9.4286912   0.20119374 
   57400   -84.793261    5.3756528   -79.417608    1341.5439   -18524.084    9.2993722   0.18547822 
   57500   -86.658888    5.0442744   -81.614614    1258.8453   -18679.321    9.5911596  0.094888651 
   57600   -84.959365    5.3767623   -79.582602    1341.8207    29878.684    9.8667678   0.14074413 
   57700   -84.108886    4.5824377   -79.526449    1143.5897    11578.831    9.5781434   0.15527157 
   57800   -84.755459    3.3359887    -81.41947    832.52683   -27565.204    9.2789626    0.1449289 
   57900   -84.484779    4.5260105   -79.958768    1129.5078   -13686.784    9.3271883   0.17883901 
   58000   -85.052256    5.9464989   -79.105757    1484.0038    9985.1031    9.6775093   0.14922108 
   58100   -85.041048    4.5587938   -80.482254    1137.6891    35362.736    10.003847   0.12999576 
   58200   -86.045615    5.3715857   -80.674029    1340.5289   -7562.9438    9.6477155   0.12030972 
   58300   -83.868299    5.7580483   -78.110251    1436.9742    -9771.618    9.3133867   0.16130761 
   58400   -84.138638     4.328172   -79.810466    1080.1354     18876.31    9.6708789   0.15051548 
   58500   -85.401313    4.3751967   -81.026116    1091.8708    2579.9829    9.6993435   0.12111286 
   58600   -86.107204     5.558247   -80.548957    1387.1119    -1449.487    9.7214545  0.075433883 
   58700   -84.388751    6.0844456   -78.304305    1518.4297     27077.42    9.7605957   0.16393646 
   58800   -85.821656    5.6749682   -80.146688    1416.2408   -3719.5792    9.6188144   0.10192186 
   58900    -85.42623    4.1890065   -81.237224    1045.4053   -16311.194    9.5079621   0.13313514 
   59000    -83.68468    5.0959962   -78.588684     1271.753    12622.551    9.5413441   0.18097549 
   59100   -84.961813    5.4662083   -79.495604    1364.1428    10613.701    9.6773027   0.16959673 
   59200   -86.206024    5.0341633   -81.171861     1256.322   -7489.9538    9.6434997   0.11332557 
   59300   -84.115857    4.7521409   -79.363716    1185.9407    10508.145    9.5609174   0.19618847 
   59400   -83.398365    4.9924789   -78.405886    1245.9193   -6797.0434    9.2710992   0.17181457 
   59500   -84.712844    3.8192314   -80.893613    953.12453   -17269.868    9.4155085   0.15174088 
   59600   -85.184688    5.2720607   -79.912627    1315.6915    25207.066    9.8505932  0.098611595 
   59700   -84.370342     5.972281   -78.398061    1490.4379    12395.197    9.6016482    0.1317036 
   59800   -85.615768    4.7978041   -80.817964    1197.3364    4.6307297    9.6850622   0.10381157 
   59900   -85.701802    4.5728998   -81.128903    1141.2094    6684.4466     9.716987   0.12430355 
   60000   -85.045774     5.612377   -79.433397    1400.6206   -20178.175    9.3619861    0.1535982 
   60100   -83.175769    5.0130017   -78.162767    1251.0409    8793.9168    9.4126813   0.27898802 
   60200   -86.040736    5.5316828   -80.509053    1380.4826    -18193.04    9.5232216   0.13093577 
   60300   -86.018044    5.0762398   -80.941804    1266.8226   -15993.102    9.5281398   0.10257572 
   60400   -85.952238    5.5328738   -80.419364    1380.7798   -19468.509    9.5084446   0.11317322 
   60500   -84.138044    5.2613046    -78.87674    1313.0072    26715.771    9.7677026   0.14776791 
   60600   -85.462854        4.646   -80.816854    1159.4523    3079.6159    9.6838255   0.12782364 
   60700   -85.633036    4.4663091   -81.166727    1114.6087    39.434642    9.6851843   0.12199879 
   60800   -84.816185    5.1185371   -79.697648    1277.3783    10251.873    9.5818912   0.15981058 
   60900   -84.031641    4.9077372   -79.123904    1224.7712   -20093.614    9.2023432   0.22460266 
   61000   -85.331868    3.4048938   -81.926975    849.72273   -26180.059    9.3337207   0.14085471 
   61100   -85.278098    4.2880415   -80.990057    1070.1204    18038.328    9.7914501   0.11401189 
   61200   -84.403954    4.9679727   -79.435981    1239.8035    44674.431    9.9864387   0.11337548 
   61300   -84.899492    5.4167515   -79.482741    1351.8004    5717.3178    9.5914606   0.11899937 
   61400   -85.920102    3.6714806   -82.248622    916.25194    3655.7529    9.7732426   0.10986218 
   61500   -86.352226    5.1833005   -81.168925    1293.5406   -16086.479    9.5607869  0.098009588 
   61600   -85.190011    5.2735879   -79.916423    1316.0726    9448.9103    9.6643898   0.14186872 
   61700   -84.245246    5.2755272   -78.969719    1316.5566    19713.033    9.6581425   0.14996854 
   61800   -85.670122    4.2659435   -81.404179    1064.6056    10360.193     9.797448  0.095933862 
   61900   -85.794412    4.0293717    -81.76504     1005.567    34351.283    10.100857   0.10630912 
   62000   -85.065574    4.9951853   -80.070388    1246.5947   -14442.532    9.4335608   0.14612231 
   62100   -84.198307    4.6121669    -79.58614    1151.0089   -3467.4685    9.3738774   0.20597134 
   62200   -85.145026    3.6189685   -81.526057    903.14706   -12660.064    9.4550214   0.14706316 
   62300   -86.564367    5.1286152   -81.435751    1279.8933   -1671.1103    9.7650114   0.10146966 
   62400   -84.752881    5.2320747   -79.520806    1305.7126    5025.0179    9.5924495   0.18515186 
   62500   -84.368754    4.3184269   -80.050328    1077.7034   -15424.537    9.3256024   0.16670878 
   62600   -86.478858    4.8206377    -81.65822    1203.0347   -18631.829    9.5688461  0.089137474 
   62700   -85.248106    5.7003492   -79.547757    1422.5749    1844.1202    9.6004559   0.11859391 
   62800   -84.736489    5.4749771   -79.261512    1366.3312    8034.5673    9.6241495   0.14190964 
   62900   -85.245445    4.0415871   -81.203858    1008.6154   -11073.261    9.5289086   0.13759548 
   63000   -83.878304    3.8990128   -79.979291    973.03471   -13067.946    9.3113992   0.17696405 
   63100   -83.042809     4.594305   -78.448504    1146.5513     20873.31    9.4886499   0.24471499 
   63200   -85.297698    5.0621825   -80.235516    1263.3145    38028.036    10.031788   0.13555167 
   63300   -85.985356     5.331568   -80.653788    1330.5421    13237.489    9.8262231   0.10308936 
   63400   -84.476463    5.8889409   -78.587522    1469.6397    -38131.68    9.0590349   0.16467587 
   63500   -84.396129    5.7499902   -78.646139    1434.9632    -33343.53    9.0975946   0.18960894 
   63600   -86.131302    5.1829953   -80.948307    1293.4644    11748.787    9.8508526  0.099545963 
   63700   -86.142036    5.9995929   -80.142443    1497.2539   -184.95369    9.7208894   0.13080971 
   63800   -84.775441    6.5059162   -78.269525    1623.6116   -32403.754    9.1392234   0.14954179 
   63900   -86.430145    5.2452197   -81.184925    1308.9931   -13862.301    9.6150813   0.10373703 
   64000   -85.187828    4.8966777    -80.29115    1222.0112    23165.627    9.8579169   0.12297259 
   64100   -84.864435    5.9718249    -78.89261    1490.3241   -605.53672    9.5686394   0.15394484 
   64200   -86.217268    5.0514163   -81.165851    1260.6277   -548.31862    9.7256022  0.092133131 
   64300   -86.247463    4.8230375   -81.424425    1203.6336   -14691.351    9.5868876   0.10510452 
   64400   -85.437926    5.6970806   -79.740846    1421.7591   -8920.7647    9.5241506   0.14662971 
   64500   -84.006168    4.6555504   -79.350618    1161.8356    20682.256     9.669396   0.16571096 
   64600   -87.163371    5.2244789   -81.938893     1303.817    982.54622    9.8590323  0.064961608 
   64700   -84.893442    4.4907914    -80.40265    1120.7185   -30151.216    9.2199436   0.13995334 
   64800   -83.814646     4.686122   -79.128524    1169.4651   -34837.067    8.9908263   0.24620769 
   64900   -85.675458    5.0172683   -80.658189    1252.1057   -22581.821    9.4038374   0.11996077 
   65000   -86.268495    4.9344701   -81.334025    1231.4426    23893.687    9.9808959  0.093324079 
   65100    -83.55962    4.6181085   -78.941512    1152.4917    17540.289    9.5936344   0.11835921 
   65200   -85.325947    5.1136371    -80.21231    1276.1554   -3068.0349    9.5960827   0.13227208 
   65300   -85.843765    3.8922472   -81.951518    971.34627   -11456.237    9.5865764   0.12749038 
   65400   -84.471877    4.9560389   -79.515838    1236.8253   -5165.8497    9.4427692    0.1594536 
   65500    -85.00245    5.5419645   -79.460485    1383.0485   -7284.4445    9.4865408   0.17110355 
   65600   -85.755884     4.091116   -81.664767    1020.9758    7597.8381    9.7703649   0.11365173 
   65700    -85.66778    5.8019043   -79.865876    1447.9189   -1660.0011    9.6286806   0.12975375 
   65800   -83.864568    5.7569944   -78.107574    1436.7112   -13089.766    9.2460375   0.20941007 
   65900   -84.943109    4.6515247   -80.291584     1160.831    2832.2977    9.6513652   0.10905643 
   66000   -85.114094    4.6153462   -80.498748    1151.8023    44825.283    10.063345   0.11452042 
   66100   -84.920857    5.4237573   -79.497099    1353.5488    2916.3094    9.5979036   0.17153307 
   66200   -82.019331    4.2214087   -77.797923    1053.4916   -3517.9659    9.1122795   0.25694983 
   66300   -85.302455    4.3254562   -80.976998    1079.4576   -12437.603    9.5054301   0.13413505 
   66400   -85.159759    4.5700592     -80.5897    1140.5005    6245.8118    9.6912176    0.1199964 
   66500   -84.717207    5.0149141   -79.702293    1251.5182    14439.293    9.6711924   0.12808517 
   66600    -84.55326    6.4573455   -78.095915    1611.4903   -524.28837    9.4617335   0.16172483 
   66700   -81.350263    6.2445747   -75.105688    1558.3914   -4195.6738    8.9856585   0.31130543 
   66800   -83.335008    4.7121383    -78.62287    1175.9577     1403.359    9.3642637   0.21296619 
   66900    -84.10688    4.6223373   -79.484542     1153.547   -9007.6709    9.3704728   0.14511513 
   67000   -84.434302    3.6491175   -80.785185    910.67101    6900.1301    9.5903835   0.15569897 
   67100   -85.416684    4.8222584   -80.594426    1203.4392    10306.032    9.7685322   0.11320744 
   67200   -83.723191    6.1363066   -77.586884    1531.3721     5221.039    9.4783116   0.13518642 
   67300   -84.374953    4.6272482   -79.747705    1154.7726    33834.649    9.8869908   0.17189667 
   67400   -84.525651    3.9132254   -80.612426    976.58159    4380.9652    9.5978561   0.14588766 
   67500   -84.303872    4.1112472   -80.192625    1025.9998    -17795.11    9.3121141   0.16063762 
   67600   -83.609706    5.9684852   -77.641221    1489.4907    -32364.16    9.0118418   0.22793018 
   67700   -85.591789    5.6057881   -79.986001    1398.9763   -3020.0803    9.6010036   0.13766937 
   67800    -85.98762    5.4303532   -80.557267    1355.1948    1725.5243     9.687899   0.11219888 
   67900   -85.226106    6.0716409   -79.154465    1515.2341    -18589.82    9.3887519   0.13849998 
   68000   -82.177807    4.6721821   -77.505625    1165.9862     8648.652    9.2629164   0.32621973 
   68100   -85.326461    5.0205558   -80.305905    1252.9261   -6000.4726    9.5565322   0.12493846 
   68200   -85.767639    5.2813621   -80.486277    1318.0128    15913.537    9.8725062  0.092384392 
   68300   -84.591438     5.553919   -79.037519    1386.0319    17555.748    9.6841909   0.11830941 
   68400   -83.335488    5.3796501   -77.955837    1342.5414    2603.6262    9.3613654   0.22684047 
   68500   -85.045805    4.2251894   -80.820616    1054.4351   -13774.793    9.4727969   0.14403046 
   68600   -85.344016    5.1915706   -80.152446    1295.6045   -2342.5232     9.612724    0.1079107 
   68700    -84.03598    5.2666355   -78.769345    1314.3376   -597.92519    9.4977933   0.15360608 
   68800   -85.294508    4.7955925   -80.498916    1196.7844    21291.341    9.8831378   0.12478214 
   68900   -86.635269    5.3992062   -81.236062    1347.4218    5719.3515     9.867271  0.099657822 
   69000   -85.334142    5.5933701   -79.740771    1395.8772   -14179.494    9.4595638   0.13740344 
   69100   -83.939154    5.1721671   -78.766987    1290.7621   -20388.636    9.1956447   0.18514517 
   69200    -85.56091    4.4050464   -81.155864    1099.3201   -1872.0107    9.6359193   0.12036061 
   69300   -86.480158    5.5947354   -80.885423     1396.218    10824.248    9.8802532  0.089445145 
   69400   -85.224747    5.4778428   -79.746904    1367.0463    13503.488    9.7607507   0.13258044 
   69500    -84.67011    5.9114259   -78.758685     1475.251   -1689.7452    9.5145931   0.17972227 
   69600   -84.806263    3.4053075   -81.400956    849.82597    14134.975    9.7220851   0.13699831 
   69700   -85.333308    4.0991439   -81.234164    1022.9793    12149.076    9.7589723   0.12852116 
   69800   -85.001634    5.0858327   -79.915802    1269.2166    952.86522    9.5923514   0.12850709 
   69900    -84.52323    4.8791616   -79.644068    1217.6399    246.95994    9.5206759   0.16378292 
   70000   -86.430344    4.0327984   -82.397546    1006.4221    13289.167    9.9337841  0.094490396 
   70100   -85.964432    4.5835669   -81.380865    1143.8715   -7632.6166    9.6380375   0.10537447 
   70200   -85.185857     5.375144   -79.810713    1341.4169   -18448.924    9.3879548   0.14846047 
   70300   -84.939818    5.3798195   -79.559998    1342.5837    7086.9767    9.6417068    0.1329003 
   70400   -86.942092    4.8344857   -82.107607    1206.4906    9321.6948    9.9343975   0.10122119 
   70500   -85.274978     4.870388    -80.40459    1215.4504   -29094.059    9.2781837   0.15181822 
   70600   -84.190644    4.7710721   -79.419572    1190.6652   -27050.167    9.1669569   0.16115089 
   70700   -85.336905    4.3950008   -80.941904    1096.8131    20446.377      9.82294   0.14010415 
   70800   -86.791734    5.2516232   -81.540111    1310.5911   -567.21198    9.7947617  0.073637967 
   70900   -84.876254    5.8385135    -79.03774     1457.055   -19573.944    9.3165183   0.14594635 
   71000   -85.028549     4.637904   -80.390645    1157.4318    8147.5651    9.6558992    0.1388693 
   71100   -86.434524    4.6269018   -81.807622    1154.6861   -9678.1003     9.675793  0.088709214 
   71200   -84.726513    5.4567182   -79.269795    1361.7745   -10718.404    9.3874478   0.15175868 
   71300   -84.294073    4.3856985   -79.908374    1094.4916   -5909.3785    9.3928146   0.15964676 
   71400   -86.081769    4.4819719   -81.599797    1118.5175   -569.86078    9.7110535   0.11215158 
   71500   -85.499007    6.3802578   -79.118749    1592.2523    2088.2414    9.6030898   0.12975582 
   71600   -83.819773    4.5156404   -79.304133    1126.9198    -12149.02    9.2895212   0.19976264 
   71700   -84.876981    3.8155521   -81.061428    952.20632   -2410.8328    9.5523669   0.13111518 
   71800   -85.701934    4.1280314   -81.573902    1030.1884   -3638.6725    9.6784722   0.11735641 
   71900   -84.187167    5.3759712   -78.811196    1341.6233    11381.113    9.5286202   0.15235719 
   72000   -85.751533    5.3960892   -80.355444     1346.644   -3877.7883    9.6258724   0.12521892 
   72100   -85.279395    4.5770975   -80.702297     1142.257    3950.8482      9.65559    0.1146256 
   72200   -83.630264    5.4076776   -78.222586     1349.536   -9885.6456     9.285767   0.22390811 
   72300   -84.527988    4.1730763   -80.354911    1041.4298    3876.6817    9.5037974    0.1541082 
   72400   -86.185536     5.230405   -80.955131    1305.2959    23487.174    10.007401   0.10075456 
   72500   -86.025396    7.3959048   -78.629491    1845.7164    24478.283    9.9572982  0.086321805 
   72600   -84.876459    5.5069646   -79.369495    1374.3139   -2056.2509    9.5396578   0.13903155 
   72700   -85.773953    5.9272148   -79.846738    1479.1913    7345.4034    9.7474626    0.1310164 
   72800   -86.386235    4.8342693   -81.551966    1206.4366   -4217.2944    9.7156867   0.12042317 
   72900    -85.54462    3.0804554   -82.464164    768.75613    -10096.05    9.5670464   0.10944052 
   73000   -85.287229     4.898302   -80.388927    1222.4166    344.49393    9.6297245   0.11103138 
   73100   -85.348621    5.3769668   -79.971654    1341.8718     6333.795    9.6925702   0.13865102 
   73200   -84.559398    5.2672544   -79.292144     1314.492   -10100.604     9.423171    0.1478773 
   73300   -81.999319    6.1158064   -75.883513     1526.256    3300.7982    9.1930519   0.19852407 
   73400   -83.896226    5.0450342   -78.851191    1259.0349    1548.9618    9.4347178     0.187595 
   73500    -85.47895     5.420109   -80.058841    1352.6383   -701.34536    9.6271052    0.1458419 
   73600   -84.916083    4.2176056   -80.698477    1052.5425    -16662.43     9.380624   0.13345841 
   73700   -85.274071    5.0134745   -80.260597    1251.1589    279.84122    9.6266273   0.13208188 
   73800    -83.75653    5.9748878   -77.781642    1491.0885    30872.229    9.7183361    0.1472717 
   73900   -85.648646    5.6207912   -80.027855    1402.7204    12374.195    9.7786457   0.11753641 
   74000   -84.539068    3.8286806   -80.710387    955.48265     8210.999    9.5986662   0.16979833 
   74100   -83.765098    5.2423906   -78.522707    1308.2871   -31802.938    9.0549301   0.16503435 
   74200   -83.340778    4.8165388    -78.52424    1202.0118    8354.1498    9.3996515   0.22705885 
   74300   -85.855258    5.0929978    -80.76226    1271.0047    8355.5365    9.7677923    0.1082627 
   74400    -85.23094     5.066757   -80.164183    1264.4561    9067.7191    9.6843921   0.12905692 
   74500   -83.369365    5.4254903   -77.943874    1353.9813    20340.554    9.5143924    0.1730769 
   74600   -85.981399    5.4475609   -80.533838    1359.4892   -5979.8382    9.5928114   0.11321314 
   74700   -85.181918     4.291252   -80.890666    1070.9216   -7586.0213    9.5222006   0.14725099 
   74800   -84.988889    5.4223491   -79.566539    1353.1974   -19217.754    9.3724645   0.15881213 
   74900   -85.248964    5.8222514   -79.426712    1452.9967    23612.772    9.8101575   0.15004967 
   75000   -86.308387    4.6035624   -81.704824    1148.8616    8602.9238    9.8324397  0.084758281 
   75100   -85.249226    5.1231975   -80.126029    1278.5413    -33434.96     9.225498   0.13151924 
   75200   -84.537462    5.2065793   -79.330883      1299.35   -21905.069    9.2256585      0.14981 
   75300   -84.134673    5.4405468   -78.694126    1357.7388    14928.159    9.6056974   0.16843581 
   75400   -86.523749     5.268222   -81.255527    1314.7335    5160.1312    9.8445129  0.082658631 
   75500   -85.229482    4.6519626   -80.577519    1160.9403    2985.3407    9.6585657    0.1313592 
   75600   -84.475993    4.7303319   -79.745662    1180.4981   -15900.502    9.3229468   0.15644242 
   75700   -82.130723    4.3355418   -77.795182    1081.9745   -10608.803    9.0700722   0.27632853 
   75800   -84.250683     6.789918   -77.460766    1694.4868   -5239.6268    9.3272879   0.15292984 
   75900   -84.761642    4.7060816    -80.05556    1174.4462    2704.2748    9.5895009   0.19702244 
   76000   -84.866486    4.8966563   -79.969829    1222.0059   -3965.3646    9.5163079   0.15668457 
   76100   -85.603607    4.9154871    -80.68812    1226.7053   -21219.991    9.4457766   0.13095593 
   76200   -87.108537    4.5495594   -82.558978    1135.3846    -1358.375    9.8537272  0.080207558 
   76300   -84.693396    4.8051733   -79.888223    1199.1754     1778.098    9.5454951   0.14581998 
   76400    -84.58352    4.7522661   -79.831254    1185.9719   -435.17632    9.5462743   0.17116093 
   76500   -85.114345    4.3150087   -80.799336    1076.8503    35292.425     9.973222   0.12400694 
   76600    -86.43103    4.1784061   -82.252624    1042.7599    5317.2838    9.8567536  0.092760367 
   76700   -84.472267    5.1836441   -79.288623    1293.6263    -48772.45    8.9714624   0.14958454 
   76800   -84.462537    4.4615257   -80.001011     1113.415   -5086.1447    9.4127699   0.18998984 
   76900   -85.457233    4.8265231    -80.63071    1204.5035    7539.0619    9.7152732    0.1209993 
   77000   -86.291921    3.7555229   -82.536399    937.22547    23196.705     10.02799  0.087402153 
   77100   -85.288034    4.7924198   -80.495614    1195.9927   -7890.7451    9.5204532   0.14114678 
   77200   -84.863499     5.132174   -79.731325    1280.7815   -8617.9729    9.4216948   0.14715439 
   77300   -85.455213    5.1801267   -80.275086    1292.7485    9967.8946    9.7441744   0.10254154 
   77400   -86.844998    4.6452032   -82.199795    1159.2534    7242.0588    9.9226297   0.10479395 
   77500   -84.171348    4.3762932   -79.795055    1092.1444   -15534.112    9.3183433    0.1551331 
   77600    -84.41464    4.7734859   -79.641154    1191.2675   -4797.9699    9.4070703   0.13490936 
   77700   -85.771005    4.3617124   -81.409292    1088.5057    4216.4738    9.7618267   0.12153119 
   77800    -85.15907     5.167114   -79.991956    1289.5011    12947.213    9.7444657   0.11808822 
   77900   -84.627148    5.9651198   -78.662028    1488.6508    37265.653    9.8941149   0.11389332 
   78000   -85.714071    5.0643162   -80.649755    1263.8469    1004.9714    9.6977708   0.13122177 
[...]
  481400   -86.391981    4.8984729   -81.493509    1222.4592    21838.888     9.990204  0.083059931 
  481500   -85.081766    5.0935973   -79.988169    1271.1543    8728.9536    9.6578873   0.12476707 
  481600   -85.057058    4.8904447   -80.166613    1220.4557   -989.31587    9.5457884   0.11298277 
  481700   -86.893115    4.3521966   -82.540919    1086.1309   -24283.329    9.5635014  0.082175888 
  481800    -84.77868    4.0452773   -80.733403    1009.5363    3644.3755     9.558496   0.13081474 
  481900   -84.578455     4.896203   -79.682252    1221.8927     15797.34    9.7188167   0.17585347 
  482000   -85.442371    5.7487507    -79.69362    1434.6539    21545.085    9.8608321   0.12101346 
  482100   -86.372153    4.1788959   -82.193257    1042.8821    4268.4318    9.8187777   0.10686664 
  482200   -84.142909    4.1654054   -79.977504    1039.5154   -29017.887    9.1945568   0.17197873 
  482300   -83.429924    4.0400812   -79.389843    1008.2396    2912.2932    9.3847235   0.21735222 
  482400   -86.336173    5.4023844   -80.933789     1348.215   -6863.0627    9.6708782  0.088095596 
  482500   -86.207617    4.3019212   -81.905696    1073.5842    17025.292    9.9199338  0.090103034 
  482600   -84.225293    4.5399252   -79.685367    1132.9803     6490.466    9.5407546   0.16678568 
  482700    -85.16628    5.0243288   -80.141951    1253.8677   -20869.071    9.3417015   0.16462917 
  482800   -85.843372    3.9383687   -81.905003    982.85633   -7792.7189    9.6176743   0.13243474 
  482900   -84.276176    4.5705639   -79.705612    1140.6265    13604.057    9.6377183   0.16411209 
  483000   -83.586733    4.8649337   -78.721799    1214.0892    63961.377    10.126667   0.15820098 
  483100    -85.02704    5.1054737   -79.921567    1274.1182    13396.219     9.714567   0.15021243 
  483200    -85.56676    3.9222083   -81.644551    978.82336    -24653.76    9.3816729   0.13016225 
  483300   -85.379459    4.8482527   -80.531206    1209.9263   -19887.432     9.399555   0.13582677 
  483400   -84.928633    5.8907107   -79.037923    1470.0813   -1764.2393    9.5267988   0.14901556 
  483500   -85.873491    5.3794331   -80.494058    1342.4873     10752.46    9.8097341   0.10007375 
  483600   -85.825808    4.1431856   -81.682622    1033.9703    4539.2408    9.7291828   0.10765629 
  483700    -83.24111    4.3062997    -78.93481    1074.6769     -13846.1    9.2002397   0.16900867 
  483800   -83.800575    3.9066113   -79.893964    974.93097   -1822.8185    9.4144034    0.2061734 
  483900   -86.419346     5.058964   -81.360382    1262.5113   -3960.1081    9.7122856  0.078342733 
  484000   -85.857255    5.4040357    -80.45322    1348.6271    9219.5967    9.7634796   0.10599932 
  484100   -84.834437    5.8232044   -79.011232    1453.2345   -1355.1325    9.4966107   0.12370138 
  484200   -85.422823     4.567641   -80.855182     1139.897   -17338.648    9.4408843   0.14453022 
  484300    -85.38731    4.7411011   -80.646209    1183.1856    372.82109    9.6349325   0.12132819 
  484400   -84.158345    6.8506085   -77.307736    1709.6327    -11705.59    9.3108989     0.172847 
  484500   -85.203198    5.5582415   -79.644957    1387.1106     19111.41    9.7710918   0.11540939 
  484600   -85.217328     4.662214   -80.555114    1163.4986    24262.687    9.8667165   0.11032562 
  484700   -84.082139    4.1295933   -79.952546    1030.5782    451.12761    9.3874398   0.19498546 
  484800   -83.520554    5.5611706   -77.959383    1387.8415   -29150.565    9.0249085   0.19614317 
  484900   -85.161929    4.7909395   -80.370989    1195.6233   -7975.2684    9.5074226   0.11739293 
  485000   -87.372624    6.8129895   -80.559635    1700.2445   -12482.821    9.7156652  0.083188959 
  485100   -84.013926    5.2994118   -78.714514    1322.5172    7074.2825    9.4414749    0.1726779 
  485200   -83.627726    4.7914618   -78.836264    1195.7536    771.58717    9.4115599   0.18237124 
  485300   -85.577521     5.133804   -80.443717    1281.1883   -18379.355    9.4536679   0.13835799 
  485400   -85.471463    4.9108363   -80.560627    1225.5446    11583.035    9.7765438   0.11939885 
  485500   -83.532794    5.3728067   -78.159987    1340.8336    24218.695    9.6337581   0.19231495 
  485600    -84.61748     6.260527   -78.356953    1562.3724   -10386.479    9.3518627   0.14903117 
  485700   -84.914814    4.6247814   -80.290032     1154.157    -2862.282     9.584521    0.1437942 
  485800   -85.369491    4.5246476   -80.844843    1129.1677     5533.987    9.7092692   0.12980327 
  485900   -84.407093    4.2944021    -80.11269    1071.7078    9300.9915    9.6157722   0.13822044 
  486000   -82.851962    4.8022313   -78.049731    1198.4412    16910.479    9.4919958   0.19945346 
  486100   -85.618171    5.7252928   -79.892879    1428.7998   -5358.3277    9.5746365   0.12109733 
  486200    -85.59162    4.7254805   -80.866139    1179.2874    13624.154    9.7911417   0.10035507 
  486300   -84.342184    4.4902919   -79.851892    1120.5939     27149.68    9.7864041   0.12875166 
  486400   -84.170633    5.6710996   -78.499533    1415.2754   -14402.434    9.2618217   0.17927846 
  486500   -85.313759     4.639744   -80.674015     1157.891   -18995.684    9.3965409    0.1629701 
  486600   -85.069602     4.351764   -80.717838    1086.0229   -12330.142    9.4482025   0.15157353 
  486700   -83.727661     5.634692   -78.092969    1406.1895   -6065.0416    9.3236056   0.22542293 
  486800   -84.944069    5.2135492    -79.73052    1301.0894    13375.781    9.7212619   0.14145894 
  486900   -85.979293    5.0569955   -80.922297      1262.02   -8224.5335    9.6219782   0.12955955 
  487000   -84.995075    5.1933833   -79.801692    1296.0568   -30349.058    9.2477105   0.14817589 
  487100   -83.431207    5.4292939   -78.001913    1354.9305    11875.143    9.4347276   0.20240403 
  487200   -86.244743    5.3156234   -80.929119     1326.563   -5400.1144    9.6697923  0.088302522 
  487300   -85.363063    4.8282878   -80.534775    1204.9439   -14682.079    9.4512875   0.13637758 
  487400   -83.765659    4.8677702   -78.897889    1214.7971    19625.935    9.5782696   0.19428326 
  487500   -84.444505    5.5649892   -78.879515    1388.7945   -2695.9209    9.4752322   0.20923554 
  487600   -85.434621    4.2339867   -81.200634    1056.6305    3298.4112    9.7007499   0.12597066 
  487700   -85.315857    5.4475627   -79.868294    1359.4897    18575.823    9.8155569    0.1247555 
  487800    -85.60049    6.3772336   -79.223256    1591.4976    15876.871    9.8087921   0.11629013 
  487900   -86.633272    4.5340542   -82.099218    1131.5151    2413.1059    9.8297494  0.084066079 
  488000   -85.104619    4.4534416   -80.651178    1111.3975   -16560.529    9.4126665   0.19241555 
  488100   -84.251043    4.6990071   -79.552036    1172.6807   -8372.0262    9.3881013   0.17012583 
  488200   -85.640194    4.3035057   -81.336689    1073.9796   -1933.7332    9.6513818   0.12362774 
  488300   -87.062433    6.7060771   -80.356356    1673.5636   -2259.2407    9.7933045  0.085831854 
  488400   -85.200694    6.1269241    -79.07377    1529.0306     24896.79    9.8280048   0.14422047 
  488500   -85.664876     5.839585   -79.825291    1457.3224   -38431.408    9.2371541   0.15254296 
  488600   -85.592452    3.4032411   -82.189211    849.31028   -13885.515    9.4952388   0.11408716 
  488700   -86.302731    5.4981638   -80.804567    1372.1176     28304.16    10.057063  0.098919221 
  488800   -85.140103    5.5980061   -79.542097    1397.0342    13940.967    9.7217775   0.14201601 
  488900   -84.725301    4.6824691   -80.042832    1168.5535   -12995.156    9.4229564   0.14595786 
  489000   -85.963562    3.7770468   -82.186515    942.59697    12307.054    9.8448125  0.096177492 
  489100   -85.205255    5.3690179   -79.836237    1339.8881    12380.099    9.7082931   0.12961504 
  489200   -85.028617    5.0785639   -79.950053    1267.4026   -13390.495    9.4471512   0.13561558 
  489300   -85.973166    4.4008892   -81.572277    1098.2826   -4472.1805    9.6541827   0.10010809 
  489400   -84.077522    4.4102083   -79.667313    1100.6083    15084.768    9.6092887   0.17038084 
  489500   -85.091598    6.0186988   -79.072899     1502.022    -3573.161    9.5071457   0.13834884 
  489600   -85.937001    5.1885438   -80.748458    1294.8491   -12208.164     9.559325   0.13883087 
  489700    -85.73957    4.9381692   -80.801401    1232.3658    -36431.41    9.2988073   0.11093566 
  489800   -83.840323    5.7845322   -78.055791    1443.5835   -8402.3964    9.3053931   0.17612087 
  489900   -85.451221    5.5007118   -79.950509    1372.7535    16401.697    9.8096256   0.11524326 
  490000   -85.442251    5.1799884   -80.262262     1292.714    12637.587    9.7642675   0.11132814 
  490100   -84.201534    5.4717899   -78.729744    1365.5358    20511.062    9.6498688   0.15557278 
  490200   -84.313845    6.0059464   -78.307898    1498.8395   -6731.9011    9.3599385   0.15556298 
  490300   -84.620306    4.2951969   -80.325109    1071.9061    8581.2041    9.5888355   0.16688025 
  490400    -85.19769    4.7811089   -80.416581    1193.1699    -12025.05    9.4392102   0.16429633 
  490500   -83.692479    5.1996666   -78.492812    1297.6249   -1598.7996    9.3759529   0.20461285 
  490600   -82.876068    4.7020446   -78.174024    1173.4387    4702.3538    9.3340547     0.255118 
  490700   -84.919483    4.6158929    -80.30359    1151.9387   -6096.9964    9.4843014   0.15989647 
  490800   -85.663912    5.2377116     -80.4262    1307.1194    10589.706    9.7575448   0.10410634 
  490900   -84.037364    6.1282912   -77.909073    1529.3717   -185.87041    9.4111184   0.16659025 
  491000   -83.401546    4.7168744   -78.684672    1177.1396   -6208.4836    9.2675603    0.2206075 
  491100   -84.742196     3.990421   -80.751775    995.84646    19615.903    9.7942879   0.15925761 
  491200   -84.466852    4.2916407   -80.175211    1071.0186    8527.0619    9.5703934   0.14041984 
  491300   -82.860596    5.4220122   -77.438584    1353.1133   -5996.7017      9.22418   0.19644438 
  491400   -84.905469    5.0108371   -79.894632    1250.5007    8666.1975    9.6724582   0.12793096 
  491500   -85.827696    5.3230831   -80.504613    1328.4246    15038.173    9.8243006  0.092590656 
  491600   -85.506148    5.4785358   -80.027612    1367.2193   -8826.4419    9.5409285   0.13598879 
  491700   -82.171867    4.8998678   -77.271999    1222.8073   -29798.354    8.7879462   0.34479576 
  491800   -82.307756    3.4561321   -78.851624    862.50973   -17620.859    9.0131269   0.25793908 
  491900   -85.434132    4.9349021    -80.49923    1231.5504     1690.199     9.671521   0.12468908 
  492000   -85.873544    5.5980055   -80.275538     1397.034   -6284.3718    9.6128559   0.11854652 
  492100   -82.925323    5.7304829    -77.19484     1430.095   -8036.9367    9.1981372    0.1938987 
  492200   -85.217618    6.3381647   -78.879453    1581.7476    9590.8882    9.6903224   0.11540584 
  492300   -86.066862     5.585623   -80.481239    1393.9439      25915.4    9.9746116    0.1010072 
  492400   -85.641939    5.7560958   -79.885843    1436.4869    -5084.288    9.6003828   0.12053188 
  492500   -83.886446    5.9018151   -77.984631    1472.8525   -21459.335    9.1891993   0.17470917 
  492600   -85.772594    4.9479026   -80.824692    1234.7948   -14484.833    9.5214478   0.11903972 
  492700   -85.787579    4.9654299   -80.822149    1239.1689    -11215.13    9.5751924    0.1080184 
  492800   -85.139705    5.7481231   -79.391581    1434.4973    29467.808    9.8966534   0.15318973 
  492900   -83.744629    5.7636075   -77.981021    1438.3615    19263.825    9.6769097   0.16787976 
  493000   -86.593935    5.5553569   -81.038578    1386.3907   -1196.8552     9.770501   0.10865983 
  493100   -85.596554    4.6773582   -80.919195     1167.278   -5055.4399    9.5901487   0.10386186 
  493200   -84.718215    5.6084827   -79.109732    1399.6487    -20134.75    9.2912442   0.16854802 
  493300   -83.945276    5.3433884   -78.601888     1333.492    8756.3892    9.5460705   0.19198826 
  493400   -86.572218    5.2569123   -81.315305    1311.9111    1880.8796     9.806105   0.10228343 
  493500   -86.482083    5.9869589   -80.495124     1494.101   -16598.794    9.5686657   0.10314801 
  493600   -84.954125    5.4688514   -79.485274    1364.8025    2884.0286    9.5792811   0.13125235 
  493700   -86.246334    5.0700253   -81.176309    1265.2717   -18907.509    9.5390385   0.11508523 
  493800   -84.772756    3.3235225   -81.449234    829.41576   -27258.197    9.2933547   0.14803266 
  493900   -85.088451      5.17043   -79.918021    1290.3286   -4920.3316    9.4997719   0.15392705 
  494000    -84.61438    4.6889205   -79.925459    1170.1635    27687.451    9.8223293   0.12005905 
  494100   -86.251152    4.3725602   -81.878591    1091.2128    189.83519    9.7531025  0.085170521 
  494200   -85.015881    5.4182871   -79.597594    1352.1837   -29441.484    9.2569532   0.16913657 
  494300   -83.610603    4.2665559   -79.344047    1064.7585    14988.838    9.5215905   0.17126436 
  494400   -84.742808    3.3965542   -81.346254     847.6415    15052.944    9.7231576   0.12611329 
  494500   -85.049985    4.6367724   -80.413213    1157.1494    18255.321    9.7457923   0.13802547 
  494600   -83.635244    4.4805908   -79.154653    1118.1729    720.34399    9.3109479   0.21059066 
  494700   -85.457523    4.5957851   -80.861738    1146.9207   -11558.264    9.4776032   0.10149707 
  494800   -86.432635    4.5032867   -81.929349    1123.8368    1682.6088    9.7941617  0.097110431 
  494900    -84.16267     4.945562   -79.217108    1234.2107    12959.868    9.5897982   0.15606407 
  495000   -85.157456     5.002295   -80.155161     1248.369   -10875.845     9.446194   0.14717975 
  495100   -85.519464    3.6331566   -81.886307    906.68783    2100.6822    9.6544433   0.10574483 
  495200   -83.863654    4.0931461   -79.770508    1021.4825    19219.603    9.6178399   0.12735897 
  495300   -84.841044    5.2520358   -79.589008    1310.6941    15104.338    9.7113245   0.18178405 
  495400   -85.770693    5.1260233    -80.64467    1279.2465   -37777.404    9.2579944   0.12248631 
  495500   -86.191771    4.1698325   -82.021938    1040.6203   -32186.553    9.4037042   0.12173903 
  495600   -85.116209     5.605947   -79.510262    1399.0159    1599.4602    9.6068531    0.1354855 
  495700   -84.984244    5.3684163   -79.615828    1339.7379    27892.596     9.880823   0.12221421 
  495800   -86.634982    6.7579441   -79.877038    1686.5074   -14200.589    9.6104954  0.088817257 
  495900   -85.822397     5.035146   -80.787251    1256.5672    -211.1329    9.6710866    0.1060566 
  496000   -86.396465      4.17821   -82.218255    1042.7109   -10145.508     9.646407   0.11482134 
  496100   -85.279906     5.006635   -80.273271    1249.4521   -21741.588    9.3949235   0.15566618 
  496200   -84.067108    4.4600617   -79.607046    1113.0496    11461.647    9.5846782   0.18564686 
  496300   -86.053319    5.4543602   -80.598959     1361.186    7485.4106     9.799767    0.1135149 
  496400   -86.297464    4.6142854   -81.683179    1151.5376   -14049.155    9.5887882   0.11586483 
  496500   -84.627344    4.7615338    -79.86581    1188.2848   -13455.119    9.3361541   0.14969171 
  496600   -85.133834    5.3970736    -79.73676    1346.8896   -19553.022    9.3441115   0.14486615 
  496700    -86.76297    4.7498008   -82.013169    1185.3567    27322.097    10.094329   0.09060823 
  496800    -85.33933    4.9813419   -80.357989    1243.1399    42078.057    10.077013   0.11665554 
  496900   -83.981419    4.3784481   -79.602971    1092.6822   -17466.665    9.2500155   0.19931745 
  497000   -83.918561    4.4404816   -79.478079    1108.1632   -22295.516    9.2258553   0.15271056 
  497100   -86.794844    4.5784819   -82.216362    1142.6025    2658.3742    9.8572041  0.092203811 
  497200   -85.907923    5.3066179   -80.601305    1324.3156    12053.012     9.788738   0.11516648 
  497300   -84.395518    5.2654164   -79.130101    1314.0334   -10342.178     9.376183   0.16078179 
  497400   -84.729867    3.9428476    -80.78702    983.97409     12468.97    9.6802958   0.13818118 
  497500   -85.885418    4.2531427   -81.632276    1061.4111   -4206.4879    9.6752394   0.11526062 
  497600   -83.940165    4.7727879   -79.167377    1191.0934    13758.834    9.5903874   0.16776747 
  497700   -85.033713    4.8258209   -80.207892    1204.3282   -9280.8258    9.5329797   0.11970967 
  497800   -85.788131    4.3344881   -81.453642    1081.7116    18537.414    9.8990508  0.095885261 
  497900   -84.481235    5.5935507   -78.887685    1395.9223    30788.598    9.8306587   0.11651593 
  498000   -84.510003    4.4639868   -80.046016    1114.0292    6059.0837    9.6247419   0.15956381 
  498100   -84.750932    3.5444429   -81.206489    884.54851   -17400.559    9.3510525   0.14914883 
  498200   -83.191908    4.4933078   -78.698601    1121.3465   -552.24098    9.3060696   0.20752802 
  498300   -83.730422     4.742073   -78.988349    1183.4282    24227.709     9.689587    0.2729935 
  498400   -85.967885    4.5607816   -81.407104    1138.1852   -10810.218    9.5873363  0.093100749 
  498500    -86.02215    5.2293351   -80.792815    1305.0289   -18556.598     9.486668    0.1368904 
  498600   -84.801501    5.4414537   -79.360047    1357.9651    5674.0175    9.5844817   0.14380937 
  498700   -86.001262    5.8030791   -80.198183     1448.212    7535.5464    9.7814629   0.11308525 
  498800   -86.019757     3.676813   -82.342944    917.58269   -10994.317    9.6224501  0.099136494 
  498900   -84.517743    4.5215075   -79.996236     1128.384   -2904.9518    9.4990237   0.17809611 
  499000   -84.784369     5.227818   -79.556551    1304.6503    3080.7522    9.5762585   0.14594179 
  499100   -86.495263    4.8071203   -81.688143    1199.6613    14527.052    9.9623833  0.084636168 
  499200   -85.924131    4.7762388   -81.147893    1191.9546    -1415.091    9.6875512   0.11632042 
  499300   -84.923253    5.3286063   -79.594647     1329.803   -10559.575    9.4549948   0.15629094 
  499400   -84.623249     4.203198   -80.420051    1048.9469     9260.061    9.6560849   0.14819916 
  499500   -86.938166    4.6844591   -82.253707    1169.0501   -9964.6567    9.7250522  0.081974524 
  499600   -85.481502    5.7295527   -79.751949    1429.8629   -13297.505     9.500464   0.11870282 
  499700   -84.979477    5.1105731   -79.868904    1275.3908   -3934.1511    9.5360955    0.1444888 
  499800    -86.13195    4.5947156   -81.537235    1146.6538    3861.5865    9.7789911   0.10324987 
  499900   -86.113547    4.6059225   -81.507624    1149.4505    14112.315    9.9157234  0.096447058 
  500000   -85.221952    5.6699566   -79.551996    1414.9901   -8656.5516    9.4822038   0.14504648 
Loop time of 44.5495 on 1 procs for 500000 steps with 32 atoms

Performance: 4848.544 ns/day, 0.005 hours/ns, 11223.480 timesteps/s
99.9% CPU use with 1 MPI tasks x no OpenMP threads

MPI task timing breakdown:
Section |  min time  |  avg time  |  max time  |%varavg| %total
---------------------------------------------------------------
Pair    | 26.189     | 26.189     | 26.189     |   0.0 | 58.79
Neigh   | 1.0069     | 1.0069     | 1.0069     |   0.0 |  2.26
Comm    | 1.4615     | 1.4615     | 1.4615     |   0.0 |  3.28
Output  | 0.071322   | 0.071322   | 0.071322   |   0.0 |  0.16
Modify  | 15.508     | 15.508     | 15.508     |   0.0 | 34.81
Other   |            | 0.3126     |            |       |  0.70

Nlocal:    32 ave 32 max 32 min
Histogram: 1 0 0 0 0 0 0 0 0 0
Nghost:    633 ave 633 max 633 min
Histogram: 1 0 0 0 0 0 0 0 0 0
Neighs:    1441 ave 1441 max 1441 min
Histogram: 1 0 0 0 0 0 0 0 0 0

Total # of neighbors = 1441
Ave neighs/atom = 45.0312
Neighbor list builds = 14206
Dangerous builds = 0
Total wall time: 0:00:44
