LAMMPS (3 Mar 2020)
Reading data file ...
  orthogonal box = (0 0 0) to (12.27 12.27 12.27)
  1 by 1 by 1 MPI processor grid
  reading atoms ...
  108 atoms
  read_data CPU = 0.000887731 secs
Reading potential file /usr/share/lammps-stable/potentials/Ag_u3.eam with DATE: 2007-06-11
Neighbor list info ...
  update every 1 steps, delay 10 steps, check yes
  max neighbors/atom: 2000, page size: 100000
  master list distance cutoff = 7.55
  ghost atom cutoff = 7.55
  binsize = 3.775, bins = 4 4 4
  2 neighbor lists, perpetual/occasional/extra = 1 1 0
  (1) pair eam, perpetual
      attributes: half, newton on
      pair build: half/bin/atomonly/newton
      stencil: half/bin/3d/newton
      bin: standard
  (2) compute rdf, occasional, copy from (1)
      attributes: half, newton on
      pair build: copy
      stencil: none
      bin: none
Setting up Verlet run ...
  Unit style    : metal
  Current step  : 0
  Time step     : 0.00553918
Per MPI rank memory allocation (min/avg/max) = 3.723 | 3.723 | 3.723 Mbytes
Step PotEng KinEng TotEng Temp Press Density c_msdall[4] 
       0       -307.8    4.1492507   -303.65075          300     2399.079    10.472245            0 
     100   -306.21509    2.5714671   -303.64362    185.92276    7270.3315    10.472245 0.0068225426 
     200    -306.3637    2.7185356   -303.64517    196.55614      6630.12    10.472245 0.0077083317 
     300   -305.76263    2.1205086   -303.64212    153.31746    8607.2161    10.472245 0.0084542598 
     400   -305.96886    2.3261236   -303.64274    168.18388    7987.6995    10.472245 0.0072701468 
     500   -305.74763    2.1052137   -303.64242    152.21161    8706.5923    10.472245 0.0087499454 
     600   -305.91938     2.276233   -303.64314    164.57668    8090.3147    10.472245 0.0089656426 
     700   -305.86736    2.2248478   -303.64251    160.86142    8398.9565    10.472245 0.0078736829 
     800   -305.88846     2.245502   -303.64296    162.35476    8247.9424    10.472245 0.0081467448 
     900   -305.70345    2.0614052   -303.64205    149.04415     8774.082    10.472245 0.0098611823 
    1000   -305.68662    2.0440705   -303.64255    147.79082     8731.576    10.472245 0.0099812169 
    1100   -305.86226    2.2194442   -303.64282    160.47073    8263.2462    10.472245 0.0089648562 
    1200   -305.89659    2.2534709   -303.64312    162.93093    8195.5609    10.472245 0.0085042261 
    1300   -305.88267     2.240047   -303.64262    161.96035    8183.4012    10.472245 0.0088710238 
    1400   -305.86012    2.2173363   -303.64278    160.31832    8241.6595    10.472245  0.009138558 
    1500    -305.8087    2.1662007    -303.6425     156.6211    8368.0931    10.472245  0.009345798 
    1600    -306.0652     2.421644   -303.64356    175.09022    7629.8187    10.472245  0.007993872 
    1700   -305.83926     2.196143   -303.64312      158.786    8282.7594    10.472245 0.0089351276 
    1800   -305.59693    1.9548406   -303.64208     141.3393    8901.5591    10.472245  0.011461637 
    1806   -305.52687    1.8853769   -303.64149    136.31692    9213.2062    10.472245  0.011349365 
Loop time of 0.345771 on 1 procs for 1806 steps with 108 atoms

Performance: 2499.701 ns/day, 0.010 hours/ns, 5223.103 timesteps/s
99.7% CPU use with 1 MPI tasks x no OpenMP threads

MPI task timing breakdown:
Section |  min time  |  avg time  |  max time  |%varavg| %total
---------------------------------------------------------------
Pair    | 0.23253    | 0.23253    | 0.23253    |   0.0 | 67.25
Neigh   | 0          | 0          | 0          |   0.0 |  0.00
Comm    | 0.0075082  | 0.0075082  | 0.0075082  |   0.0 |  2.17
Output  | 0.00041674 | 0.00041674 | 0.00041674 |   0.0 |  0.12
Modify  | 0.10354    | 0.10354    | 0.10354    |   0.0 | 29.94
Other   |            | 0.001772   |            |       |  0.51

Nlocal:    108 ave 108 max 108 min
Histogram: 1 0 0 0 0 0 0 0 0 0
Nghost:    990 ave 990 max 990 min
Histogram: 1 0 0 0 0 0 0 0 0 0
Neighs:    4644 ave 4644 max 4644 min
Histogram: 1 0 0 0 0 0 0 0 0 0

Total # of neighbors = 4644
Ave neighs/atom = 43
Neighbor list builds = 0
Dangerous builds = 0
Total wall time: 0:00:00
