LAMMPS (3 Mar 2020)

    # ---------- Initialize simulation ---------------------
    units metal
    atom_style atomic
    dimension  3
    boundary   p p p
    read_data /home/modeler/RemLabs/Lab4/Problem2A_size_4/temp_2900/lammps.data
  orthogonal box = (0 0 0) to (16.36 16.36 16.36)
  1 by 1 by 1 MPI processor grid
  reading atoms ...
  256 atoms
  read_data CPU = 0.000970298 secs

    pair_style eam
    pair_coeff * * /usr/share/lammps-stable/potentials/Ag_u3.eam
Reading potential file /usr/share/lammps-stable/potentials/Ag_u3.eam with DATE: 2007-06-11

    velocity  all create 2900 87287 dist gaussian

    # ---------- Describe computed properties------------------
    compute msdall all msd
    thermo_style custom step pe ke etotal temp press density c_msdall[4]
    thermo 100

    # ---------- Specify ensemble  ---------------------
    #fix  1 all nve
    fix  1 all nvt temp 2900 2900 0.25

    # --------- Compute RDF ---------------
    compute rdfall all rdf 100 1 1
    fix 2 all ave/time 1 25000 25000 c_rdfall[*] file /home/modeler/RemLabs/Lab4/Problem2A_size_4/temp_2900/lammps.rdf mode vector

    # --------- Run -------------
    timestep 0.005
    run 100000
Neighbor list info ...
  update every 1 steps, delay 10 steps, check yes
  max neighbors/atom: 2000, page size: 100000
  master list distance cutoff = 7.55
  ghost atom cutoff = 7.55
  binsize = 3.775, bins = 5 5 5
  2 neighbor lists, perpetual/occasional/extra = 1 1 0
  (1) pair eam, perpetual
      attributes: half, newton on
      pair build: half/bin/atomonly/newton
      stencil: half/bin/3d/newton
      bin: standard
  (2) compute rdf, occasional, copy from (1)
      attributes: half, newton on
      pair build: copy
      stencil: none
      bin: none
Per MPI rank memory allocation (min/avg/max) = 3.744 | 3.744 | 3.744 Mbytes
Step PotEng KinEng TotEng Temp Press Density c_msdall[4] 
       0       -729.6    95.587877   -634.01212         2900    23316.907    10.472245            0 
     100   -666.57367    62.850586   -603.72309    1906.7972    103808.83    10.472245   0.16013486 
     200     -638.485    82.270344   -556.21466     2495.965    145915.79    10.472245   0.29253145 
     300   -625.49105    107.11641   -518.37463    3249.7594    167904.45    10.472245   0.35423389 
     400     -619.298    95.201257   -524.09675    2888.2705    175461.26    10.472245    0.4833891 
     500   -635.41004    97.568808   -537.84123    2960.0986     151794.3    10.472245   0.33645326 
     600   -630.57057    97.203545   -533.36702    2949.0171     159397.9    10.472245   0.29014747 
     700   -622.01956    98.623041   -523.39652    2992.0825    169629.23    10.472245   0.45548555 
     800   -607.72363    93.156799   -514.56683    2826.2445    184821.08    10.472245   0.86905437 
     900   -604.67989    97.543998   -507.13589    2959.3459    193657.13    10.472245    2.0597864 
    1000   -597.03976    97.567678   -499.47208    2960.0643    199399.37    10.472245    3.2334019 
    1100   -601.84589    86.207395    -515.6385    2615.4095    195126.75    10.472245    4.1423159 
    1200   -600.50107    101.43135   -499.06972    3077.2826     200437.5    10.472245     5.447972 
    1300   -603.82657    103.66967   -500.15689    3145.1902    196052.14    10.472245    7.1697161 
    1400   -603.68737    90.980249   -512.70712    2760.2111    192614.51    10.472245    8.6337818 
    1500   -601.11489    102.02858   -499.08631    3095.4018     199233.7    10.472245    10.029556 
    1600   -596.65088    95.536359   -501.11452     2898.437    200477.66    10.472245     12.01173 
    1700   -596.40201    91.668646   -504.73336    2781.0961    200649.09    10.472245    12.922613 
    1800   -597.60812    95.444888   -502.16323    2895.6619    200604.67    10.472245    13.831963 
    1900   -598.96937    97.973548   -500.99583    2972.3778    202799.58    10.472245     15.58989 
    2000   -598.17103    95.024131    -503.1469    2882.8968    202544.08    10.472245    16.960762 
    2100   -600.76107    91.698298   -509.06277    2781.9957    196870.78    10.472245    18.788623 
    2200   -599.76833    95.577095   -504.19124    2899.6729    198973.36    10.472245      20.9041 
    2300   -593.68613    99.085068   -494.60107    3006.0998    207019.23    10.472245    22.637067 
    2400   -605.20485    93.457358   -511.74749    2835.3631    191368.42    10.472245    25.112703 
    2500   -598.04565    96.940153    -501.1055    2941.0261     200000.5    10.472245    26.881734 
    2600   -596.20824    90.662279   -505.54597    2750.5644    201242.75    10.472245    28.690236 
    2700   -606.53267    91.640837   -514.89183    2780.2524    190274.13    10.472245    29.370822 
    2800   -594.59987    95.308635   -499.29123    2891.5282    206723.46    10.472245    31.026969 
    2900   -598.21602    92.487022   -505.72899    2805.9245    200622.95    10.472245     31.17372 
    3000    -607.5896    93.710475   -513.87913    2843.0423    188788.26    10.472245    33.450546 
    3100   -595.34968    98.683246   -496.66643    2993.9091    204156.08    10.472245    34.559116 
    3200   -604.24652    96.011347   -508.23517    2912.8475    194261.82    10.472245    35.546413 
    3300   -610.14901    101.25922    -508.8898    3072.0604    187198.86    10.472245    36.716396 
    3400   -599.99879    101.04717   -498.95161    3065.6273    201905.89    10.472245    38.089635 
    3500   -599.73902    104.06604   -495.67299    3157.2153     200275.5    10.472245    38.371268 
    3600   -595.71386    88.958302   -506.75556    2698.8681    203126.33    10.472245    40.456605 
    3700    -598.3082    101.46113   -496.84707    3078.1862    201985.67    10.472245    42.211193 
    3800   -608.37565    90.941195   -517.43445    2759.0263     187363.3    10.472245    44.399222 
    3900   -606.14487    96.386866     -509.758    2924.2402    191023.21    10.472245     46.29485 
    4000   -598.70501     98.98304   -499.72197    3003.0044    199870.47    10.472245    47.262408 
    4100   -602.71991    89.769131   -512.95078    2723.4675    196834.45    10.472245    49.114048 
    4200   -600.36203    93.241383   -507.12065    2828.8107    197584.02    10.472245    50.432525 
    4300   -595.65817      94.1455   -501.51267    2856.2403     200121.2    10.472245     51.46326 
    4400   -597.70115    91.788166   -505.91298    2784.7222    200892.74    10.472245    52.639171 
    4500   -603.63059    91.154268   -512.47632    2765.4906    194062.64    10.472245       54.445 
    4600   -603.77658    105.30237    -498.4742     3194.724    197572.97    10.472245    56.574043 
    4700   -600.76529    96.609774   -504.15552    2931.0029    195926.68    10.472245    57.297737 
    4800   -605.51676    92.946426   -512.57033    2819.8621    191209.46    10.472245    59.485995 
    4900   -599.93408    101.48306   -498.45103    3078.8514     198682.5    10.472245    61.177375 
    5000   -605.62923    100.34098   -505.28825    3044.2025    191749.87    10.472245    61.478326 
    5100   -597.67526    92.288306   -505.38695    2799.8957    199075.21    10.472245    63.913081 
    5200   -586.83929    93.996746   -492.84254    2851.7273    216083.77    10.472245    64.269304 
    5300   -589.41924    96.725751   -492.69349    2934.5215    208627.75    10.472245    66.274954 
    5400     -601.874    96.238141   -505.63586    2919.7281    196064.67    10.472245    66.645693 
    5500   -597.43686    88.372501   -509.06436    2681.0958    198712.16    10.472245    68.535714 
    5600   -601.84085    108.62518   -493.21566    3295.5333    201563.09    10.472245    70.260637 
    5700   -602.46845    97.742225   -504.72623    2965.3598    195198.94    10.472245    71.872491 
    5800   -600.58966    89.747572   -510.84208    2722.8135    196063.31    10.472245    72.075868 
    5900   -596.10652    93.558669   -502.54785    2838.4367    205329.36    10.472245    73.367717 
    6000   -600.55245    91.173618   -509.37883    2766.0777     197726.6    10.472245    75.739708 
    6100   -600.18104    90.888364   -509.29267    2757.4235    196424.38    10.472245    76.883231 
    6200   -600.16715    100.37823   -499.78891    3045.3326    200741.11    10.472245    78.267867 
    6300   -603.72761     100.8954   -502.83221    3061.0227    195532.77    10.472245    79.405684 
    6400   -604.96403    97.139215   -507.82482    2947.0654    196047.31    10.472245    80.657586 
    6500   -610.03198    97.204591   -512.82739    2949.0488    187683.55    10.472245     81.92932 
    6600   -593.87639    98.012147   -495.86424    2973.5489    205836.89    10.472245    84.281174 
    6700    -591.4964    88.399875   -503.09652    2681.9263    209383.43    10.472245    85.373719 
    6800   -599.74647    91.367341   -508.37912     2771.955    198377.04    10.472245    86.897971 
    6900   -600.00712     98.63702    -501.3701    2992.5066    199298.53    10.472245     89.25501 
    7000   -600.18126    98.297227   -501.88403    2982.1978    200044.91    10.472245    91.801267 
    7100   -597.28645    92.033679   -505.25277    2792.1707    203375.13    10.472245    95.761206 
    7200   -593.44074    101.35779   -492.08295     3075.051    208312.36    10.472245    96.677845 
    7300   -595.74471    100.37329   -495.37142    3045.1827    205181.05    10.472245    98.414085 
    7400   -599.37314    96.126691   -503.24645    2916.3469    198338.95    10.472245    100.78568 
    7500    -604.0168    92.940302    -511.0765    2819.6763    193218.53    10.472245    101.98494 
    7600   -588.70687     93.51483   -495.19204    2837.1067     210053.4    10.472245    104.97699 
    7700   -599.99861    93.840162   -506.15845    2846.9768    197442.86    10.472245    107.12437 
    7800   -608.79078    90.298865   -518.49191    2739.5389    186024.69    10.472245     109.7473 
    7900   -603.19339    92.438432   -510.75495    2804.4503    195127.22    10.472245    112.28997 
    8000   -602.89888      98.2535   -504.64538    2980.8712    196366.78    10.472245     114.4663 
    8100   -601.48429    97.736729   -503.74756    2965.1931    197989.16    10.472245    117.05409 
    8200   -597.44369    96.426447   -501.01725     2925.441    201480.84    10.472245    119.94006 
    8300    -606.8683    99.373595   -507.49471    3014.8533    190398.34    10.472245     120.7265 
    8400   -607.85792    91.226294   -516.63162    2767.6758    190293.09    10.472245    123.83409 
    8500    -593.9314    95.137224   -498.79417    2886.3278    203821.39    10.472245    126.18272 
    8600   -600.56935    94.260716   -506.30863    2859.7358    199795.84    10.472245     128.7717 
    8700   -608.93795    98.198361   -510.73958    2979.1984    186928.26    10.472245    131.75608 
    8800   -591.52546    104.37111   -487.15435    3166.4706    210628.47    10.472245    133.16564 
    8900   -601.86299    95.043217   -506.81977    2883.4758    193269.19    10.472245    133.90923 
    9000   -599.27152    94.420307   -504.85121    2864.5776    200757.81    10.472245    137.77365 
    9100   -593.45867    97.152106   -496.30656    2947.4565    205762.35    10.472245    141.69207 
    9200   -597.96021     88.93449   -509.02572    2698.1457    197946.43    10.472245    141.58319 
    9300   -590.32201     89.37338   -500.94863     2711.461    206133.41    10.472245    143.12213 
    9400   -601.35004    99.961911   -501.38813     3032.702    199662.97    10.472245    144.45379 
    9500   -605.58032    97.111952   -508.46837    2946.2382    193162.84    10.472245    144.07238 
    9600   -591.47995    102.32697   -489.15298    3104.4544    210918.46    10.472245    144.53681 
    9700   -598.64575    95.951277   -502.69447     2911.025    201847.21    10.472245    147.77306 
    9800   -593.85825    89.129691   -504.72856    2704.0678    206258.59    10.472245     150.9934 
    9900   -590.95621    101.89471    -489.0615    3091.3404    211742.68    10.472245    154.00444 
   10000   -598.50133    93.998167   -504.50316    2851.7704    201014.26    10.472245    154.76491 
   10100   -600.77002    94.549762   -506.22026    2868.5051    195478.75    10.472245    153.84645 
   10200   -587.20651    98.937355   -488.26916    3001.6184    212772.55    10.472245    156.49162 
   10300   -593.94363    99.071267   -494.87237    3005.6811     205443.7    10.472245    158.08425 
   10400   -597.32764    98.055394   -499.27224     2974.861     203650.7    10.472245    159.32636 
   10500   -604.22729    90.215981   -514.01131    2737.0243    190632.86    10.472245     160.4795 
   10600   -602.76841    90.698507    -512.0699    2751.6635    192583.85    10.472245    162.92284 
   10700   -597.81206    98.672093   -499.13997    2993.5707     200320.4    10.472245    164.74579 
   10800   -599.17805    97.657839   -501.52021    2962.7997    198320.93    10.472245     166.2253 
   10900   -604.73062    85.336187   -519.39443    2588.9783    192366.09    10.472245    170.55803 
   11000   -607.17501    89.809142   -517.36587    2724.6814    189643.54    10.472245    172.52997 
   11100   -604.89058    99.285702   -505.60488    3012.1867     192479.2    10.472245    174.59291 
   11200   -594.20205    94.417119   -499.78493    2864.4809     204070.5    10.472245    176.18152 
   11300   -597.58373    93.063277   -504.52045    2823.4072    200273.24    10.472245    179.25003 
   11400   -596.53324    90.050951   -506.48229    2732.0175    197794.48    10.472245       179.37 
   11500   -591.67962    92.526925   -499.15269    2807.1351    208052.11    10.472245    180.38645 
   11600    -603.9098    100.06466   -503.84514    3035.8192    196314.52    10.472245    180.49819 
   11700   -602.14131    84.429135   -517.71218    2561.4597    194840.06    10.472245    183.45684 
   11800   -596.24589    95.920985   -500.32491     2910.106     204123.7    10.472245    183.94723 
   11900    -596.5975    94.878109    -501.7194    2878.4666    201991.27    10.472245    184.28133 
   12000   -596.97726    90.954872   -506.02239    2759.4412    200539.89    10.472245    185.08312 
   12100    -594.9493    98.575473   -496.37383    2990.6394     203305.7    10.472245    187.25153 
   12200   -602.05497     92.72256   -509.33241    2813.0704    193404.96    10.472245    187.65025 
   12300   -603.91682    94.060455   -509.85637    2853.6602    190679.69    10.472245    189.64943 
   12400   -597.04789    103.88049    -493.1674    3151.5861    204831.07    10.472245    190.73696 
   12500    -596.6639    92.692734   -503.97117    2812.1655    201519.99    10.472245    192.08678 
   12600   -600.78043    94.828713   -505.95172     2876.968    198798.55    10.472245    194.86145 
   12700   -587.22999    93.626883   -493.60311    2840.5062    211852.34    10.472245    198.15401 
   12800   -603.51351     97.68952   -505.82399    2963.7608    196014.15    10.472245    199.32489 
   12900   -604.45985    97.463584   -506.99627    2956.9063    195817.59    10.472245    201.62802 
   13000   -593.10182    103.17189   -489.92993    3130.0882    207498.93    10.472245     205.5747 
   13100   -597.74654    98.434624   -499.31192    2986.3663    203024.22    10.472245     206.2634 
   13200   -601.79257    96.335363   -505.45721    2922.6776    195641.83    10.472245    207.45039 
   13300   -601.98501    92.179247   -509.80577     2796.587    197631.39    10.472245     207.8709 
   13400   -595.41365    98.692705   -496.72094     2994.196    202164.61    10.472245    209.28744 
   13500   -596.70432     94.62546   -502.07886    2870.8016    202589.62    10.472245    212.40726 
   13600   -598.62529    85.826543   -512.79875     2603.855     198283.3    10.472245    216.07448 
   13700   -604.92122    102.62721   -502.29401    3113.5633    193214.82    10.472245    216.52766 
   13800   -596.09381    96.446261   -499.64755    2926.0421    202228.99    10.472245    217.62698 
   13900   -596.24254     106.8268   -489.41574     3240.973    206411.37    10.472245    217.28707 
   14000   -598.63665    90.833966   -507.80269    2755.7731    198117.83    10.472245    217.82205 
   14100   -591.24489    92.096542   -499.14835    2794.0779    210175.59    10.472245    221.02206 
   14200   -599.07842    100.94327   -498.13515     3062.475     197847.4    10.472245    222.26508 
   14300   -607.61519    97.552976   -510.06222    2959.6183    190156.65    10.472245    224.59398 
   14400   -592.03403    94.353641   -497.68039     2862.555    205229.49    10.472245    224.31023 
   14500   -608.66619    94.346999   -514.31919    2862.3535    190766.08    10.472245    225.56033 
   14600   -604.38936    96.223648   -508.16571    2919.2884     193336.8    10.472245    226.33327 
   14700   -598.95047    100.72047      -498.23    3055.7157    202877.11    10.472245       225.53 
   14800   -602.66202    96.400556   -506.26146    2924.6555    196721.19    10.472245    228.63609 
   14900   -610.34689    87.375164   -522.97173     2650.838    183302.57    10.472245    230.49696 
   15000   -603.43278     90.54795   -512.88483    2747.0958    191764.33    10.472245    231.06716 
   15100   -594.15406    97.172683   -496.98138    2948.0807    207719.37    10.472245    231.63586 
   15200   -602.16155    94.306592   -507.85496    2861.1276    195845.68    10.472245    232.45835 
   15300   -599.78872     96.80368   -502.98504    2936.8857    197658.18    10.472245    236.14015 
   15400   -598.40334    95.694358   -502.70898    2903.2305    200263.12    10.472245    236.32904 
   15500   -605.27307    87.830342   -517.44273    2664.6474    191651.84    10.472245     238.3277 
   15600   -599.47717    95.426113   -504.05106    2895.0923    200625.12    10.472245    239.47571 
   15700   -598.20159    95.304129   -502.89746    2891.3915     201947.2    10.472245    241.36431 
   15800   -611.84327    94.957156   -516.88612    2880.8648    183858.13    10.472245    242.31483 
   15900   -593.05628    90.355197   -502.70108    2741.2479    205185.24    10.472245    244.39162 
   16000   -594.26936    96.299667   -497.96969    2921.5947     204608.3    10.472245    246.70934 
   16100   -608.88049    92.810231   -516.07026    2815.7302    185750.55    10.472245    247.09002 
   16200    -597.5473    92.291311   -505.25599    2799.9869    200855.45    10.472245    249.27916 
   16300   -604.78354     103.3242   -501.45934     3134.709    194652.03    10.472245    247.33554 
   16400   -600.09878    90.727329   -509.37145    2752.5379    200736.29    10.472245    250.45281 
   16500    -608.8621    96.113955   -512.74815    2915.9605    188302.41    10.472245    250.40361 
   16600    -605.6114    105.39018   -500.22122     3197.388    196281.03    10.472245    252.33743 
   16700   -599.19458    90.081436   -509.11315    2732.9424     199127.1    10.472245    257.19195 
   16800   -610.40527    87.798364   -522.60691    2663.6773    180698.35    10.472245    256.69343 
   16900    -594.5211     89.73228   -504.78882    2722.3495    201713.36    10.472245    256.53962 
   17000   -604.89963    104.80797   -500.09165    3179.7246     194943.2    10.472245    258.93661 
   17100   -610.22197    95.915903   -514.30606    2909.9518    187075.02    10.472245    261.69373 
   17200   -598.56836     94.33412   -504.23424    2861.9628    200459.94    10.472245    261.29039 
   17300   -600.16248     94.85456   -505.30792    2877.7522     199614.6    10.472245    260.55961 
   17400   -598.09955    94.982222   -503.11733    2881.6253    197519.73    10.472245    260.28584 
   17500   -596.58003    102.67428   -493.90575    3114.9914    202716.67    10.472245    261.09737 
   17600   -597.84224    92.126417   -505.71582    2794.9842    200823.99    10.472245    261.88663 
   17700   -595.26118    94.267087   -500.99409    2859.9291    202370.42    10.472245     265.3261 
   17800   -602.34109    97.089368   -505.25172    2945.5531    194460.26    10.472245    264.53597 
   17900   -607.28042     93.93228   -513.34814    2849.7715    187056.77    10.472245    264.33013 
   18000   -597.43424    98.522917   -498.91132    2989.0449    204679.86    10.472245    266.21697 
   18100   -598.31984    93.634798   -504.68504    2840.7464    199685.53    10.472245    270.03881 
   18200   -603.44692    93.355663   -510.09126    2832.2778    194310.79    10.472245    273.86435 
   18300   -598.85052    98.246569   -500.60395    2980.6609    198831.58    10.472245    274.46773 
   18400   -603.64395    100.73386   -502.91009    3056.1219    195555.47    10.472245    273.73078 
   18500   -602.54702    94.162071   -508.38495    2856.7431    197464.41    10.472245     276.5243 
   18600   -599.31592    102.03047   -497.28545    3095.4591    200544.69    10.472245    279.31126 
   18700   -607.64717    94.514037   -513.13313    2867.4212    188971.52    10.472245    278.74651 
   18800   -603.65325    94.039982   -509.61327    2853.0391    197080.56    10.472245    280.38152 
   18900   -602.37948    100.39322   -501.98627    3045.7871    195793.13    10.472245    284.05979 
   19000   -604.01931    97.808164   -506.21115    2967.3603    193393.12    10.472245    286.58589 
   19100   -602.57513    84.778814   -517.79631    2572.0684    191931.49    10.472245    288.31605 
   19200   -598.42443    95.852522    -502.5719     2908.029     199919.8    10.472245    287.72474 
   19300   -595.74572    98.927598   -496.81812    3001.3224    205562.24    10.472245    290.99594 
   19400   -610.62027    94.139858   -516.48041    2856.0691    185482.94    10.472245    291.02494 
   19500   -595.24164    88.938387   -506.30325    2698.2639    203134.22    10.472245    289.98505 
   19600   -602.95588    100.81255   -502.14334     3058.509    194444.03    10.472245    293.52351 
   19700   -600.34277    95.128498   -505.21427    2886.0631     198700.6    10.472245    293.22588 
   19800   -590.81031    102.24722   -488.56309    3102.0349    209081.11    10.472245    294.98835 
   19900    -602.0376    97.663222   -504.37438     2962.963    193880.95    10.472245    298.22272 
   20000   -597.96802    92.800106   -505.16791     2815.423    202149.64    10.472245    298.91751 
   20100    -590.6482    103.89907   -486.74914    3152.1496    210933.03    10.472245    297.19793 
   20200   -601.89918    97.851971    -504.0472    2968.6894    196622.04    10.472245    301.04925 
   20300    -599.6989    95.278339   -504.42056    2890.6091     198627.4    10.472245    300.72771 
   20400   -591.70195    103.73724   -487.96471    3147.2402    209075.02    10.472245     303.8468 
   20500   -598.16496    96.919289   -501.24568    2940.3931    203064.69    10.472245     305.9068 
   20600   -607.60676    99.046182   -508.56057      3004.92    191459.43    10.472245    308.40056 
   20700    -598.5053    97.519174   -500.98613    2958.5928    200509.69    10.472245    311.15724 
   20800   -591.07764    95.411304   -495.66634     2894.643    209477.88    10.472245    312.11348 
   20900   -600.02331    88.853125   -511.17019    2695.6772    194706.26    10.472245    314.37732 
   21000   -608.51182     90.20082   -518.31099    2736.5644    183524.04    10.472245    315.59282 
   21100   -601.47059    99.191526   -502.27906    3009.3296    196148.33    10.472245    317.03501 
   21200   -604.36005    98.316437   -506.04361    2982.7806    196393.04    10.472245    319.93577 
   21300   -606.62722    90.631646   -515.99557     2749.635    189351.21    10.472245    324.77739 
   21400   -600.66367    101.23498   -499.42869     3071.325    199205.79    10.472245    328.20374 
   21500    -597.0328    92.255802     -504.777    2798.9096    201848.08    10.472245    329.19132 
   21600   -602.13147    93.327784   -508.80369     2831.432     198025.3    10.472245    331.44262 
   21700   -602.26058     98.31196   -503.94862    2982.6448    196151.49    10.472245    335.70288 
   21800   -595.69818     101.7452   -493.95299    3086.8043     205196.7    10.472245     338.5702 
   21900   -599.91131    89.845755   -510.06556    2725.7922    198218.84    10.472245      340.263 
   22000   -601.68684    98.249891   -503.43695    2980.7617    198242.66    10.472245    343.15153 
   22100    -604.0469    102.32989   -501.71701     3104.543    196641.18    10.472245    346.77397 
   22200   -603.04343     91.79121   -511.25222    2784.8145    193884.86    10.472245    346.89602 
   22300     -601.862     106.1497    -495.7123    3220.4307    197759.77    10.472245    348.66425 
   22400   -600.41221    92.642954   -507.76926    2810.6552    198587.99    10.472245    348.26133 
   22500   -599.70124    95.659808   -504.04144    2902.1823     200643.7    10.472245    348.22225 
   22600    -595.0075    99.076057   -495.93145    3005.8264    203733.38    10.472245    347.77334 
   22700   -603.15715    94.513838   -508.64331    2867.4152    196173.03    10.472245    346.43363 
   22800   -592.41366    96.681621   -495.73204    2933.1826     207954.5    10.472245    347.80133 
   22900    -594.5102    94.536089   -499.97411    2868.0902    205748.03    10.472245    352.21486 
   23000   -602.15289    96.114114   -506.03878    2915.9653    196726.65    10.472245    355.18249 
   23100    -604.9454    83.934177   -521.01122    2546.4433    189340.04    10.472245    355.29149 
   23200   -601.79187    88.399009   -513.39286       2681.9    191535.28    10.472245    356.16702 
   23300   -599.23704     95.84991   -503.38713    2907.9497     200575.3    10.472245    356.91952 
   23400   -602.30683    103.61752   -498.68932    3143.6078     198597.7    10.472245    359.75476 
   23500   -606.90796    93.971073   -512.93688    2850.9485    191168.46    10.472245    363.13145 
   23600   -595.59597    98.804341   -496.79163    2997.5829    202855.06    10.472245    364.66827 
   23700   -594.29872    92.937917    -501.3608     2819.604     203762.8    10.472245    366.45533 
   23800   -598.55258    91.733245   -506.81933    2783.0559    199673.57    10.472245    364.40334 
   23900   -599.82666    99.250091   -500.57657    3011.1064    198706.56    10.472245    365.96177 
   24000   -601.69644    100.80119   -500.89524    3058.1646    198101.63    10.472245    368.88386 
   24100   -607.66195    94.775482   -512.88647    2875.3531    186710.54    10.472245    369.33619 
   24200   -594.14838    97.221179    -496.9272     2949.552    206575.37    10.472245    371.06699 
   24300   -596.51625    89.964136   -506.55211    2729.3837    201002.21    10.472245    369.77295 
   24400   -596.76175    95.593309   -501.16844    2900.1648    200679.82    10.472245    370.69319 
   24500   -602.25404    104.15235   -498.10169    3159.8339    198277.78    10.472245    375.31795 
   24600   -601.03409    95.126521   -505.90756    2886.0031    198670.28    10.472245    376.93139 
   24700   -592.59596    88.842195   -503.75376    2695.3456    208413.62    10.472245     376.2225 
   24800   -604.80256    96.497706   -508.30486    2927.6029    193401.38    10.472245    378.68799 
   24900   -596.19637    102.48496    -493.7114    3109.2478    206154.81    10.472245    380.45187 
   25000   -603.60812    96.858098   -506.75002    2938.5367    196070.46    10.472245    382.96609 
   25100    -597.8471    90.589168   -507.25793    2748.3463    199598.35    10.472245    386.07231 
   25200   -597.78323    100.27538   -497.50786     3042.212    201676.39    10.472245    390.12534 
   25300   -599.12134    88.958714   -510.16263    2698.8806    201384.61    10.472245    394.83421 
   25400   -602.30783    96.456942   -505.85089    2926.3662    195814.17    10.472245    399.37227 
   25500   -596.30252    94.988384   -501.31414    2881.8122    202725.26    10.472245    403.45484 
   25600   -602.36808    86.330665   -516.03741    2619.1494    196108.36    10.472245    404.98563 
   25700   -593.75443    90.084327    -503.6701    2733.0301     204511.3    10.472245    405.31074 
   25800   -593.34874    92.976313   -500.37242    2820.7689    206251.19    10.472245    404.31166 
   25900   -608.80492    96.173353   -512.63156    2917.7625    188088.59    10.472245    407.51074 
   26000   -597.56689    95.370423   -502.19647    2893.4027    201633.33    10.472245    406.95601 
   26100   -591.71752    93.630148   -498.08738    2840.6053    206751.67    10.472245    405.22975 
   26200   -607.67176    102.22263   -505.44913    3101.2889    190878.33    10.472245    405.71088 
   26300   -594.47165    90.679483   -503.79217    2751.0863    202775.44    10.472245    407.89147 
   26400   -597.48494    97.007647    -500.4773    2943.0738    203918.23    10.472245     407.1623 
   26500   -599.15351    89.693273   -509.46023    2721.1661    198611.08    10.472245    408.34358 
   26600   -597.26742    98.574848   -498.69257    2990.6204     201646.7    10.472245    413.49383 
   26700   -593.08278    91.696722   -501.38606    2781.9479    206011.98    10.472245    409.58073 
   26800   -597.21015    90.327268   -506.88288    2740.4006    200117.91    10.472245    410.88812 
   26900   -603.58431    101.95611    -501.6282    3093.2031    194386.29    10.472245    412.58719 
   27000    -595.1328    100.14907   -494.98373    3038.3801    207232.04    10.472245     417.1862 
   27100   -603.03916    104.25623   -498.78293    3162.9854    196991.24    10.472245    422.40423 
   27200    -603.1611    94.775685   -508.38542    2875.3592    192957.65    10.472245    420.00628 
   27300    -603.1324    107.20134   -495.93106     3252.336    200521.72    10.472245     423.9008 
   27400   -599.75238    99.289924   -500.46245    3012.3148    198605.94    10.472245    424.30342 
   27500   -595.80685    90.438253   -505.36859    2743.7678    202503.59    10.472245    424.32279 
   27600    -600.1931    105.82383   -494.36927    3210.5441     199958.8    10.472245    422.91418 
   27700    -602.0037    90.672733   -511.33097    2750.8815    194346.37    10.472245    426.11034 
   27800   -596.97536    92.669294   -504.30606    2811.4543    200612.91    10.472245     427.7425 
   27900   -602.09163    98.544107   -503.54752    2989.6878     194166.6    10.472245     430.9388 
   28000   -595.42885    88.984471   -506.44438    2699.6621    200934.11    10.472245    434.30727 
   28100   -594.02982    97.515629   -496.51419    2958.4852    203500.61    10.472245    435.19314 
   28200    -599.6121    104.52326   -495.08883    3171.0869    198687.24    10.472245    435.90161 
   28300   -600.55036    90.913045   -509.63732    2758.1722    197810.13    10.472245    439.28666 
   28400   -595.52349    100.77353   -494.74996    3057.3254    205053.29    10.472245     437.7539 
   28500   -602.67223    100.61322   -502.05901    3052.4617    196947.34    10.472245    441.11971 
   28600   -600.29768    88.256825   -512.04085    2677.5863    195959.48    10.472245     442.4442 
   28700   -609.62274    87.566426   -522.05631    2656.6406    185555.77    10.472245    441.44908 
   28800   -598.83566    96.231801   -502.60386    2919.5357    200426.92    10.472245    445.63105 
   28900   -594.65144    99.353796   -495.29764    3014.2526    205021.05    10.472245    448.14557 
   29000    -603.2865    90.184444   -513.10206    2736.0675    190721.18    10.472245    451.97434 
   29100   -591.97278    88.637475    -503.3353    2689.1347    206625.52    10.472245    456.93406 
   29200   -598.86582     101.0688   -497.79702    3066.2834    200721.65    10.472245    457.47319 
   29300   -601.14943    88.311252   -512.83818    2679.2376    194771.49    10.472245    455.32871 
   29400   -595.62237    90.622878   -504.99949     2749.369    201091.48    10.472245    455.24685 
   29500      -595.52    94.820187   -500.69981    2876.7094    202541.89    10.472245    458.53266 
   29600   -608.61065    92.052087   -516.55856    2792.7292    186881.97    10.472245    462.11674 
   29700   -600.15875    98.388257   -501.77049    2984.9595    199679.33    10.472245    461.57019 
   29800   -599.79482    98.693761   -501.10106    2994.2281    201197.26    10.472245    461.10467 
   29900   -599.95906    90.650939   -509.30812    2750.2203    196603.71    10.472245    462.25037 
   30000   -598.04323    104.33444   -493.70879    3165.3583    204901.18    10.472245    466.39045 
   30100   -605.00754    96.264558   -508.74298    2920.5295    192958.42    10.472245    465.95255 
   30200   -603.12431    94.960268   -508.16404    2880.9592    194575.61    10.472245    471.01734 
   30300   -593.17933    97.857254   -495.32207    2968.8497    205510.13    10.472245    471.32016 
   30400   -604.64581    101.02372   -503.62209    3064.9158    191692.13    10.472245    474.03782 
   30500   -608.82891    95.067788   -513.76113    2884.2212     188921.2    10.472245     477.1144 
   30600   -602.80181    97.388244   -505.41356    2954.6206    195190.01    10.472245    479.47316 
   30700   -592.36032    92.767543   -499.59278    2814.4351    206118.47    10.472245      478.385 
   30800   -606.82045    89.387161   -517.43329    2711.8791    187204.94    10.472245    478.08906 
   30900   -599.96851    89.418267   -510.55024    2712.8228    197939.59    10.472245    479.28511 
   31000   -599.61969     98.98472   -500.63497    3003.0554    198876.15    10.472245    483.39451 
   31100   -598.01797    100.35185   -497.66612    3044.5322    202448.15    10.472245     483.9614 
   31200   -606.95933    96.855788   -510.10354    2938.4666    192383.43    10.472245    487.86429 
   31300   -590.14175    92.323118   -497.81863    2800.9519    211437.91    10.472245    492.25655 
   31400    -597.4046    96.061529   -501.34307    2914.3699    201450.54    10.472245    494.58102 
   31500   -598.19545    89.658858    -508.5366     2720.122    199348.47    10.472245    495.27319 
   31600   -598.79354    102.90703   -495.88651    3122.0527    199733.62    10.472245    498.50585 
   31700   -608.53621     99.67198   -508.86423    3023.9059    189458.55    10.472245    499.43366 
   31800   -596.50995    88.851761   -507.65819    2695.6358    202563.53    10.472245    502.58885 
   31900   -599.77574     102.0141   -497.76164    3094.9626    198604.28    10.472245    503.01724 
   32000   -601.90895     91.66924   -510.23971    2781.1141    197665.56    10.472245    506.49301 
   32100   -600.62198    97.686389   -502.93559    2963.6659    197940.86    10.472245    506.65569 
   32200   -598.74834    95.761004   -502.98733    2905.2524    202059.93    10.472245    503.35919 
   32300   -609.38878    95.676094   -513.71269    2902.6764    190115.32    10.472245    505.04035 
   32400   -596.98858    97.942718   -499.04586    2971.4425    200833.86    10.472245    507.01153 
   32500   -596.72465    90.595801   -506.12885    2748.5475    199919.55    10.472245    507.94719 
   32600   -598.06732    98.428986   -499.63833    2986.1952     203473.6    10.472245    512.07663 
   32700   -599.31232    99.582781   -499.72954    3021.1997    200243.58    10.472245    510.73417 
   32800   -602.99827    91.409748   -511.58852    2773.2415    193294.83    10.472245     514.6754 
   32900    -593.8407    100.93061   -492.91009    3062.0908    209737.15    10.472245     513.1955 
   33000   -600.25566    95.958344   -504.29732    2911.2394    198813.42    10.472245    515.33392 
   33100   -594.53704    86.583506   -507.95354    2626.8202    200997.22    10.472245     520.1247 
   33200   -592.65421    93.703408    -498.9508    2842.8279    206592.36    10.472245    521.57492 
   33300   -601.70949     94.55493   -507.15456    2868.6619    198312.09    10.472245     525.6174 
   33400   -602.58707    95.881543   -506.70553    2908.9094    196392.82    10.472245    531.21575 
   33500     -605.168    100.22113   -504.94687    3040.5663    191524.66    10.472245    530.97133 
   33600   -607.34313     96.29259   -511.05054      2921.38    188360.82    10.472245    529.01562 
   33700   -604.40363    90.204625   -514.19901    2736.6798    193544.33    10.472245    532.90545 
   33800   -600.17213    102.53605   -497.63608    3110.7976    200558.01    10.472245    531.74947 
   33900   -604.79963    94.751276   -510.04835    2874.6187    192369.04    10.472245    534.03728 
   34000   -600.02162    90.134821    -509.8868     2734.562    196586.79    10.472245    532.09236 
   34100   -597.26626    104.82161   -492.44465    3180.1383    204454.64    10.472245    535.86565 
   34200   -597.28088    89.729754   -507.55113    2722.2729    203405.87    10.472245    537.50191 
   34300   -598.23045    91.420354    -506.8101    2773.5633     199313.6    10.472245    538.59238 
   34400   -587.99936    94.411228   -493.58813    2864.3021    211053.05    10.472245    541.69389 
   34500   -599.44377    91.416038   -508.02773    2773.4323    195916.39    10.472245    543.75784 
   34600    -600.3739    96.743004    -503.6309    2935.0449    197101.38    10.472245    543.23633 
   34700   -596.48533    98.824964   -497.66037    2998.2086    203429.36    10.472245    542.97025 
   34800   -598.08488    93.672417   -504.41246    2841.8877    201322.55    10.472245    541.00951 
   34900    -606.0561    91.217441   -514.83866    2767.4072     189477.1    10.472245    546.11343 
   35000   -593.18009    97.265602   -495.91449    2950.8998    208642.55    10.472245     548.6422 
   35100   -607.18863    103.06684   -504.12179     3126.901    190915.04    10.472245    543.27252 
   35200   -601.31529    91.703721   -509.61157    2782.1602     197712.9    10.472245     542.2473 
   35300   -599.44174    101.97195   -497.46979    3093.6837    201043.89    10.472245    546.94572 
   35400   -595.48486    90.378109   -505.10675    2741.9431     203092.4    10.472245    550.36015 
   35500   -598.06075    93.862446    -504.1983    2847.6529    201655.05    10.472245    553.70035 
   35600   -589.66682    100.69713   -488.96969    3055.0073    214681.68    10.472245     550.4751 
   35700    -605.4247    95.629912   -509.79478    2901.2753    191393.37    10.472245    551.70163 
   35800   -609.28232     97.28957   -511.99275    2951.6269    186845.82    10.472245    555.07323 
   35900   -597.48954    97.998325   -499.49121    2973.1296    206325.22    10.472245    558.38592 
   36000   -594.61236     97.62678   -496.98558    2961.8574    203483.82    10.472245    558.20361 
   36100    -599.5263    87.035603    -512.4907    2640.5362    191480.96    10.472245    557.75154 
   36200   -596.21037    99.173073    -497.0373    3008.7697    200342.44    10.472245      560.781 
   36300   -598.22296    97.406421   -500.81654     2955.172     198585.5    10.472245     560.1785 
   36400   -600.95577    93.545861   -507.40991    2838.0481    196636.94    10.472245    564.50188 
   36500    -587.9722     98.67015   -489.30205    2993.5118     209409.6    10.472245    569.22128 
   36600   -599.74231    96.473482   -503.26883     2926.868    201676.17    10.472245     574.3844 
   36700    -599.9365    94.255679   -505.68082     2859.583    198014.12    10.472245    577.05729 
   36800    -598.4618    94.031516   -504.43029    2852.7822    200345.49    10.472245    580.91414 
   36900   -598.02187    106.92577    -491.0961    3243.9756    204060.28    10.472245    579.70801 
   37000   -601.50237    93.707765   -507.79461    2842.9601    197944.47    10.472245    580.52828 
   37100   -596.82163    97.287159   -499.53447    2951.5538    203350.11    10.472245    582.75829 
   37200    -588.9549    95.133035   -493.82186    2886.2007    212128.99    10.472245    586.14727 
   37300   -603.06737    98.728048   -504.33932    2995.2683    197547.42    10.472245    586.06005 
   37400   -605.70963    94.215036   -511.49459      2858.35    192478.58    10.472245    589.67042 
   37500    -596.0823     91.73964   -504.34266      2783.25    201909.46    10.472245    590.44912 
   37600   -599.02671    97.910103   -501.11661     2970.453    198436.97    10.472245    592.95608 
   37700    -601.0847    91.834958   -509.24974    2786.1418    195417.82    10.472245    597.60224 
   37800   -601.93938    91.798063   -510.14131    2785.0224    195662.55    10.472245    598.75447 
   37900   -597.83239      98.9094   -498.92299    3000.7703    201304.46    10.472245    601.42974 
   38000   -603.88666    96.013162    -507.8735    2912.9025    191386.43    10.472245    603.18921 
   38100   -599.00151    92.541562   -506.45995    2807.5791    198648.08    10.472245    603.05853 
   38200   -594.22594    97.978957   -496.24698     2972.542    205529.58    10.472245    602.52534 
   38300   -604.97576    94.271374   -510.70439    2860.0592    192649.32    10.472245    604.51399 
   38400   -600.25788     98.65441   -501.60347    2993.0342     199462.8    10.472245    605.92511 
   38500   -599.59742     97.84562    -501.7518    2968.4967    199267.81    10.472245    607.99268 
   38600   -598.46422     88.78418   -509.68004    2693.5855    198737.58    10.472245    609.80285 
   38700     -593.844    98.634578   -495.20942    2992.4325    209197.72    10.472245    606.00793 
   38800   -594.83297    89.886688   -504.94629     2727.034    201360.14    10.472245    607.43983 
   38900   -598.51627     93.81227     -504.704    2846.1306    199093.75    10.472245    611.65874 
   39000   -600.54717    95.415512   -505.13166    2894.7707    196092.45    10.472245    614.94968 
   39100   -603.82324    88.062208   -515.76103    2671.6819    191708.75    10.472245    614.73944 
   39200   -597.82644    99.301958   -498.52448    3012.6799    202498.79    10.472245     614.8358 
   39300   -596.26336    94.436897   -501.82646    2865.0809    203701.94    10.472245    617.79947 
   39400   -612.67856    96.966218   -515.71234    2941.8169    185817.98    10.472245    620.77317 
   39500   -607.84247    94.922831   -512.91964    2879.8234    187005.08    10.472245    621.87475 
   39600   -597.88986    94.997792   -502.89206    2882.0976    201142.19    10.472245    623.52228 
   39700   -599.28366    98.527448   -500.75621    2989.1824    199296.24    10.472245    626.92322 
   39800   -606.90268    90.305186    -516.5975    2739.7307    187908.94    10.472245    626.90241 
   39900   -598.49022    96.908301   -501.58192    2940.0598    199260.64    10.472245    625.25882 
   40000   -600.04982    97.273085   -502.77674    2951.1268    199384.44    10.472245    627.37496 
   40100   -597.95599    90.076509   -507.87948    2732.7929    199323.26    10.472245    627.70271 
   40200   -601.35566    96.002932   -505.35273    2912.5922    198239.74    10.472245    631.58753 
   40300   -598.23004    95.457176   -502.77286    2896.0347    201400.79    10.472245    633.51055 
   40400   -605.40762    87.654947   -517.75267    2659.3262    191934.02    10.472245    630.51895 
   40500   -598.89217    98.968368    -499.9238    3002.5593    201344.42    10.472245     630.2602 
   40600   -593.77225    91.143686   -502.62856    2765.1696    206338.38    10.472245    631.19932 
   40700   -605.13402    87.514836   -517.61918    2655.0754    186874.23    10.472245    635.37717 
   40800   -606.34407    101.44693   -504.89713    3077.7554     189423.2    10.472245    636.10245 
   40900   -595.85417    96.235181   -499.61899    2919.6383    201290.35    10.472245    636.06088 
   41000   -605.37896    92.366079   -513.01288    2802.2552    190727.09    10.472245     638.1277 
   41100   -600.94452    97.480234   -503.46429    2957.4114    199047.78    10.472245    640.92131 
   41200   -597.19461    97.651137   -499.54347    2962.5964    202758.31    10.472245    641.22206 
   41300   -603.00563    93.227149   -509.77848    2828.3789    194713.44    10.472245    642.36839 
   41400   -592.93378      84.4814   -508.45238    2563.0453    200693.58    10.472245    646.37283 
   41500   -592.02633    95.132753   -496.89358    2886.1922    207556.08    10.472245    646.94368 
   41600   -601.87965    89.595103   -512.28455    2718.1878    196585.72    10.472245    647.51328 
   41700   -598.60272    88.993921    -509.6088    2699.9488    197305.12    10.472245    647.79871 
   41800   -594.56284    90.762044   -503.80079    2753.5911    202028.03    10.472245    646.80301 
   41900   -591.90455    98.403336   -493.50121     2985.417    209686.21    10.472245    648.83473 
   42000   -596.37634    93.250214   -503.12613    2829.0786    200797.21    10.472245    649.13599 
   42100   -604.93937    92.898279   -512.04109    2818.4014    191689.13    10.472245    646.81917 
   42200   -600.12988    103.56764   -496.56225    3142.0946     197890.4    10.472245    650.12658 
   42300   -597.41781    88.525166   -508.89265    2685.7274    199620.52    10.472245    656.71426 
   42400   -597.75306    88.037347   -509.71571    2670.9277    201436.59    10.472245    657.49743 
   42500   -591.60568    93.301295   -498.30438    2830.6284    209247.55    10.472245    660.78813 
   42600   -609.89961    102.54712   -507.35249    3111.1335    186638.41    10.472245      661.219 
   42700   -606.59497    95.659064   -510.93591    2902.1597    189516.44    10.472245    661.54594 
   42800    -592.8916    97.620177   -495.27143    2961.6571    204825.09    10.472245    666.47653 
   42900   -600.30704    92.328162   -507.97888    2801.1049    193731.37    10.472245    670.68757 
   43000     -599.752    88.599221   -511.15278    2687.9741    195802.83    10.472245    675.29216 
   43100   -605.02973    99.031404   -505.99833    3004.4717    193108.05    10.472245    679.30393 
   43200   -605.69578    92.799343   -512.89644    2815.3998    191416.23    10.472245     678.6998 
   43300   -600.57623    95.060177   -505.51605    2883.9903    197144.35    10.472245    678.18675 
   43400   -600.19676    100.84258   -499.35418    3059.4201    198393.76    10.472245    682.79874 
   43500   -603.11201    88.233161   -514.87885    2676.8684    193432.36    10.472245    684.01416 
   43600    -597.7442    99.717141   -498.02706     3025.276    202995.59    10.472245    686.10707 
   43700   -601.60686    98.216132   -503.39073    2979.7375    194934.01    10.472245    686.44982 
   43800   -600.41041    90.192893   -510.21751    2736.3239    198270.93    10.472245    689.41012 
   43900   -595.25129    103.88215   -491.36914    3151.6364    206698.45    10.472245    689.10362 
   44000   -596.58262    98.384818    -498.1978    2984.8552    203058.95    10.472245     691.3689 
   44100   -589.79895    85.785765   -504.01318    2602.6179    207331.21    10.472245    692.30885 
   44200   -590.89897    95.969195   -494.92978    2911.5686     210096.1    10.472245    697.74778 
   44300   -591.28484    98.658477   -492.62636    2993.1576     210049.5    10.472245    699.81838 
   44400   -599.55425     92.25341   -507.30084     2798.837    200512.84    10.472245    700.94909 
   44500   -604.75621     97.42312   -507.33309    2955.6786    193842.96    10.472245    699.76994 
   44600   -591.50674     99.14327   -492.36347    3007.8655    209798.47    10.472245    702.46554 
   44700   -602.52809    95.373159   -507.15493    2893.4858    196424.93    10.472245    706.31242 
   44800   -603.86883    101.29531   -502.57352    3073.1555     194206.3    10.472245    706.24467 
   44900   -595.37294    95.738716   -499.63422    2904.5762    204237.73    10.472245    707.79914 
   45000    -606.1782    97.250225   -508.92797    2950.4333     190431.1    10.472245    709.75669 
   45100   -597.16214    94.602264   -502.55988    2870.0979    202118.24    10.472245    707.88278 
   45200   -585.69526    92.815903   -492.87936    2815.9023    213097.05    10.472245    708.40324 
   45300   -601.80271    89.821103   -511.98161    2725.0443    195587.39    10.472245    709.21136 
   45400   -601.26974    102.84675   -498.42298     3120.224    198183.08    10.472245    710.96581 
   45500   -600.06766    102.91449   -497.15317    3122.2789    199576.65    10.472245    712.16321 
   45600    -606.0052    92.369787   -513.63541    2802.3677    190346.71    10.472245     708.5756 
   45700   -594.20922     92.99467   -501.21455    2821.3258    205615.29    10.472245    712.27207 
   45800   -606.87421    106.88778   -499.98643     3242.823    192336.92    10.472245    711.02026 
   45900   -598.54681    94.743625   -503.80318    2874.3866    200487.34    10.472245    715.17792 
   46000   -596.53887    97.782916   -498.75595    2966.5944    201882.63    10.472245    716.81304 
   46100   -593.12915    106.74142   -486.38773    3238.3825    210445.41    10.472245    714.12054 
   46200   -601.03697    96.717208   -504.31976    2934.2623     199663.9    10.472245    718.39528 
   46300   -605.97374     97.95418   -508.01956    2971.7903       189074    10.472245    716.29505 
   46400   -600.38182    90.280107   -510.10171    2738.9698    196535.12    10.472245    720.05922 
   46500   -595.04017    99.178722   -495.86145    3008.9411    204406.48    10.472245    725.93431 
   46600   -604.21135    92.641661   -511.56969     2810.616    193278.83    10.472245    730.90427 
   46700   -603.30883    95.475465   -507.83336    2896.5896    194534.62    10.472245    728.69682 
   46800   -594.94353    93.825547   -501.11798    2846.5334    201055.25    10.472245    729.48694 
   46900   -600.52114    87.500208   -513.02093    2654.6316    197693.88    10.472245    733.04065 
   47000   -603.15627    100.34865   -502.80762     3044.435    194463.87    10.472245    734.04728 
   47100   -606.37021    106.35007   -500.02013    3226.5097     194831.2    10.472245    734.95023 
   47200   -599.76878    95.737304   -504.03148    2904.5334    200238.12    10.472245    736.21892 
   47300   -602.78383    95.844229    -506.9396    2907.7774    196828.65    10.472245    739.96698 
   47400   -602.35931    98.208387   -504.15093    2979.5025    198694.04    10.472245    739.72888 
   47500   -586.80424    104.25554   -482.54869    3162.9646    215548.24    10.472245    740.90289 
   47600    -595.0293    99.062688   -495.96661    3005.4208     207200.2    10.472245    744.06967 
   47700   -597.47804    91.881065   -505.59697    2787.5406    199175.22    10.472245    738.96503 
   47800   -605.37966    98.742528   -506.63713    2995.7076    194357.55    10.472245     743.6644 
   47900   -596.60316    104.07722   -492.52594    3157.5547    204503.93    10.472245    750.12431 
   48000   -604.27635    93.213414   -511.06294    2827.9622    192617.41    10.472245    751.76496 
   48100   -596.00217    92.084243   -503.91793    2793.7047    203435.77    10.472245    752.04576 
   48200   -592.12357    96.692791   -495.43078    2933.5215    209001.56    10.472245    753.08264 
   48300   -598.36991    96.298035   -502.07188    2921.5452    200178.35    10.472245    753.10053 
   48400   -598.31275    86.867639   -511.44511    2635.4404    196221.62    10.472245    756.83873 
   48500   -594.02161    96.143169   -497.87844    2916.8468    207002.51    10.472245    760.24792 
   48600   -603.21355    91.475472   -511.73808    2775.2355    190813.17    10.472245    763.40911 
   48700    -604.6388    96.500024   -508.13878    2927.6732    191609.69    10.472245    762.89436 
   48800   -603.18659    102.07979    -501.1068    3096.9555    193504.95    10.472245    769.23797 
   48900   -603.47621    94.957937   -508.51828    2880.8885    194475.72    10.472245    773.01289 
   49000    -602.8296    99.047537   -503.78206    3004.9611    196474.47    10.472245    774.15267 
   49100   -598.32082    92.309346   -506.01148     2800.534    199162.17    10.472245    773.23818 
   49200   -599.13221    93.518291   -505.61392    2837.2117    196014.73    10.472245    773.60605 
   49300   -598.16692    100.81841   -497.34852    3058.6868    200908.07    10.472245    774.43148 
   49400   -603.17869    91.172835   -512.00585    2766.0539    192862.89    10.472245    773.95998 
   49500   -601.21577    98.259842   -502.95593    2981.0636    199040.25    10.472245    774.55408 
   49600   -595.93542    89.746723    -506.1887    2722.7877    201950.12    10.472245    776.70324 
   49700   -597.52723    96.517837   -501.00939    2928.2136    199517.46    10.472245    779.42782 
   49800   -596.38874    100.34526   -496.04348    3044.3323     203689.9    10.472245    780.35886 
   49900   -598.98545    93.638632   -505.34682    2840.8627    196260.99    10.472245    782.52321 
   50000   -602.09863    103.97508   -498.12355    3154.4557    198077.88    10.472245    785.63579 
   50100   -594.95978    102.77807    -492.1817    3118.1403    205038.13    10.472245     786.2885 
   50200   -602.43055    99.468667   -502.96188    3017.7376    195663.82    10.472245      784.074 
   50300   -606.56403    97.095567   -509.46846    2945.7412    188747.35    10.472245     784.5989 
   50400   -601.75397    88.024822   -513.72915    2670.5477    193178.04    10.472245    782.84738 
   50500    -598.9763    99.307635   -499.66867    3012.8521    200401.06    10.472245    780.96072 
   50600   -605.02105    93.279339   -511.74171    2829.9622    194217.49    10.472245    778.19752 
   50700   -597.11555    102.87676   -494.23879    3121.1343    203010.64    10.472245    778.91948 
   50800   -598.86562    95.603617   -503.26201    2900.4775     199466.7    10.472245    778.21833 
   50900   -599.21715    87.245251    -511.9719    2646.8966    196571.86    10.472245    779.39325 
   51000   -596.33921    103.46928   -492.86993    3139.1106    203822.56    10.472245    781.27789 
   51100   -596.26697    93.830719   -502.43625    2846.6903    201958.48    10.472245    783.04046 
   51200   -601.50186    93.779562   -507.72229    2845.1383    194213.72    10.472245    789.48049 
   51300   -600.38311    98.484329   -501.89878    2987.8742    197786.34    10.472245    789.20805 
   51400   -594.55727     96.00183   -498.55544    2912.5588    203033.75    10.472245    793.96186 
   51500    -599.1402    92.742183   -506.39802    2813.6657    199941.62    10.472245    793.44969 
   51600   -600.01614    97.096254   -502.91988     2945.762    196966.14    10.472245    793.15781 
   51700   -588.82252    93.501088   -495.32143    2836.6898    210213.67    10.472245    799.81596 
   51800   -598.74735    88.655502   -510.09185    2689.6816    200378.68    10.472245    802.82654 
   51900   -595.21364    94.775809   -500.43783     2875.363    204841.45    10.472245     804.5015 
   52000   -593.23519     101.0826   -492.15259    3066.7019    207987.29    10.472245    806.85296 
   52100   -602.59099    94.379518   -508.21147    2863.3401    193106.73    10.472245    809.41745 
   52200    -602.1584     92.91464   -509.24376    2818.8978    193655.04    10.472245    811.66699 
   52300   -592.61901     99.88132   -492.73769    3030.2569    207026.54    10.472245    813.70871 
   52400   -595.99077    87.647644   -508.34313    2659.1046    204473.75    10.472245    814.46839 
   52500   -597.24933    93.334092   -503.91524    2831.6234    202089.74    10.472245    814.42242 
   52600   -595.08057    103.79802   -491.28255    3149.0841    205341.71    10.472245    815.89509 
   52700    -598.4244    92.180245   -506.24416    2796.6173    201735.11    10.472245    820.21146 
   52800   -600.73888    93.843956   -506.89492    2847.0919    199484.05    10.472245    818.38183 
   52900   -597.34244    102.20235   -495.14009    3100.6735    202790.15    10.472245    812.09287 
   53000    -601.7786    96.180602   -505.59799    2917.9824    195177.32    10.472245    808.35054 
   53100    -601.7407    94.642782   -507.09792    2871.3271    196484.95    10.472245    811.57114 
   53200   -601.17295    103.11197   -498.06098    3128.2702    195475.28    10.472245    814.62042 
   53300    -598.1894    90.158057   -508.03134     2735.267    198399.83    10.472245      821.512 
   53400   -598.19857    95.973707   -502.22487    2911.7055    204049.08    10.472245    820.78055 
   53500   -596.46912    96.207086   -500.26204    2918.7859    203466.04    10.472245      822.551 
   53600   -606.22741    91.771538   -514.45587    2784.2177    192596.76    10.472245    822.80243 
   53700   -594.66488    97.148437   -497.51644    2947.3452    206945.91    10.472245    823.91293 
   53800   -597.77443    99.169145   -498.60529    3008.6506    201788.58    10.472245    822.88974 
   53900   -596.44001     85.31902   -511.12099    2588.4575    197968.12    10.472245    822.47731 
   54000   -597.48209    94.190584    -503.2915    2857.6081    201400.15    10.472245    820.87114 
   54100   -605.56217    91.836554   -513.72562    2786.1902    190353.34    10.472245    821.39124 
   54200   -597.52514    88.388579   -509.13656    2681.5835    202388.34    10.472245    821.34594 
   54300   -601.82267    97.803397   -504.01927    2967.2157    196775.17    10.472245    826.16167 
   54400   -603.64765    92.552403   -511.09525     2807.908    193115.31    10.472245    825.14549 
   54500   -593.21385     99.62253   -493.59132    3022.4056    207580.12    10.472245    827.85641 
   54600   -598.11003    94.209614   -503.90041    2858.1854    199601.84    10.472245    826.66177 
   54700   -605.96619    98.895341   -507.07084    3000.3437    196999.74    10.472245    832.89642 
   54800   -591.23766    104.43899   -486.79868      3168.53    211811.47    10.472245    832.40785 
   54900   -605.58522    102.73653   -502.84869    3116.8798    194310.06    10.472245    832.43386 
   55000   -598.52713    97.218547   -501.30858    2949.4722     200610.5    10.472245    833.83143 
   55100   -597.99115    95.985618   -502.00553    2912.0669    201413.64    10.472245    833.63765 
   55200   -601.09207    89.030572    -512.0615    2701.0607    195635.76    10.472245    835.74913 
   55300   -600.05905    100.63944   -499.41961    3053.2572    198379.06    10.472245    830.68786 
   55400   -597.87194    88.483243   -509.38869    2684.4555    199185.29    10.472245    839.69602 
   55500   -588.08689    96.755171   -491.33171     2935.414     214007.6    10.472245    840.11445 
   55600   -593.73243      91.1885   -502.54393    2766.5292    205993.52    10.472245    837.22346 
   55700   -596.92304    90.074119   -506.84892    2732.7204    202128.57    10.472245    839.14975 
   55800   -597.80294    101.01775   -496.78518    3064.7347    201935.57    10.472245    837.95723 
   55900   -597.18455    99.846631   -497.33792    3029.2045    203910.94    10.472245    836.25067 
   56000   -607.02738    95.260406   -511.76698     2890.065    189541.52    10.472245    835.82081 
   56100   -598.71711    96.234542   -502.48257    2919.6189    198748.12    10.472245    837.38049 
   56200    -588.4512    105.55562   -482.89558    3202.4071    212906.17    10.472245    842.12765 
   56300   -597.37713    96.197694   -501.17944     2918.501    200941.76    10.472245    844.60926 
   56400    -603.6799    93.740869   -509.93904    2843.9644     191485.3    10.472245    850.09867 
   56500   -595.89068    102.01792   -493.87276    3095.0782    202089.03    10.472245    847.65874 
   56600   -601.12171    98.149529   -502.97218    2977.7169    200555.23    10.472245    850.49146 
   56700   -598.83754    90.167327   -508.67021    2735.5482    196958.21    10.472245    851.05253 
   56800   -591.71511    100.87616   -490.83895    3060.4389     210204.9    10.472245    851.00087 
   56900   -601.22956    99.474825   -501.75474    3017.9245    201255.86    10.472245    850.67967 
   57000   -598.58061    91.936008    -506.6446    2789.2075    198579.08    10.472245    850.94956 
   57100   -587.67421     97.58389   -490.09032    2960.5562    214096.91    10.472245    854.69124 
   57200   -594.34296     95.70202   -498.64094    2903.4629    202431.46    10.472245    856.00715 
   57300   -594.78372    93.847832   -500.93589    2847.2095    204655.87    10.472245    861.46347 
   57400   -599.13324    95.233005   -503.90024    2889.2337    195350.57    10.472245    859.02768 
   57500   -609.21384     96.43544    -512.7784    2925.7139     186822.5    10.472245    858.20818 
   57600   -601.83554     97.49926   -504.33628    2957.9886    196623.91    10.472245    858.10226 
   57700   -603.42377     99.07544   -504.34833    3005.8077    197925.86    10.472245    859.88564 
   57800   -587.05811    100.36115   -486.69696    3044.8142    217988.94    10.472245    861.95495 
   57900   -602.21867    101.29089   -500.92778    3073.0213    195971.37    10.472245     865.1668 
   58000   -598.50236    92.669632   -505.83273    2811.4646    199647.39    10.472245    867.51323 
   58100   -590.94274     98.54411   -492.39863    2989.6879    211071.46    10.472245    868.24997 
   58200   -595.69054    92.627928   -503.06262    2810.1994     205189.5    10.472245    873.16021 
   58300   -596.71821     91.72813   -504.99008    2782.9008    198985.28    10.472245    872.47751 
   58400    -589.9395    95.576739   -494.36276    2899.6621    212172.93    10.472245    870.96107 
   58500   -607.36995    95.015336   -512.35461    2882.6299    189391.56    10.472245    869.33532 
   58600   -598.59921    91.659672   -506.93954    2780.8239    199147.18    10.472245    869.53217 
   58700   -595.39139     95.04565   -500.34574    2883.5496    203606.22    10.472245    869.16488 
   58800   -605.85278    99.883272    -505.9695    3030.3162    189473.31    10.472245    870.92597 
   58900   -606.21423    88.947096   -517.26714    2698.5282     188058.5    10.472245    872.70926 
   59000   -600.06916    99.803187   -500.26597    3027.8865    198493.43    10.472245    874.28083 
   59100   -598.17979    95.263727   -502.91607    2890.1658    202271.17    10.472245    876.18297 
   59200   -606.42685    88.690996   -517.73586    2690.7585    189641.21    10.472245    881.52045 
   59300   -599.37328    94.646108   -504.72717    2871.4281    194956.97    10.472245    887.74608 
   59400   -595.98794    89.369163   -506.61878    2711.3331    199651.55    10.472245    886.71713 
   59500   -601.60574    90.107873   -511.49787    2733.7445    193716.87    10.472245    886.40621 
   59600   -595.10312     99.89314   -495.20998    3030.6155    204591.79    10.472245    888.02031 
   59700   -600.33192    92.871689   -507.46023    2817.5947    199838.45    10.472245    893.07348 
   59800   -603.75832    95.967869   -507.79045    2911.5284    193324.23    10.472245    892.74967 
   59900   -599.62239    100.42208   -499.20031    3046.6628    199731.16    10.472245     901.0918 
   60000   -607.39436    89.958665   -517.43569    2729.2177    187253.18    10.472245    900.69548 
   60100   -597.91089    94.465375   -503.44551    2865.9449    199999.16    10.472245    900.27235 
   60200   -601.06885    91.047456   -510.02139    2762.2501    195452.04    10.472245    900.36608 
   60300   -598.07634    89.229098   -508.84724    2707.0837    198297.31    10.472245    904.47789 
   60400   -599.21436    96.796877   -502.41748    2936.6793    202123.38    10.472245    904.67114 
   60500   -592.86226    106.11551   -486.74676    3219.3933    208158.97    10.472245    906.66319 
   60600   -592.51126    88.917074   -503.59418    2697.6173    205084.71    10.472245    910.62893 
   60700   -592.04404    94.078561   -497.96548    2854.2095     208489.1    10.472245     911.5643 
   60800   -595.36181    99.712967   -495.64884    3025.1493    203562.68    10.472245    909.26561 
   60900   -605.97578    95.542675   -510.43311    2898.6286     192663.5    10.472245    909.40449 
   61000   -596.85839    98.818361   -498.04002    2998.0083    204513.16    10.472245    909.62048 
   61100   -593.92214    96.554265   -497.36788    2929.3188    205834.14    10.472245    913.20267 
   61200    -601.3114    98.846975   -502.46443    2998.8764    197369.88    10.472245    907.01062 
   61300   -600.67788       84.613   -516.06488    2567.0379    194645.57    10.472245    906.16054 
   61400   -607.92748    104.14989   -503.77759    3159.7592    190524.41    10.472245    912.75419 
   61500   -599.40413    96.910961   -502.49317    2940.1405    197735.36    10.472245     918.7536 
   61600   -600.53782    86.869285   -513.66853    2635.4903    197441.63    10.472245    917.14502 
   61700   -592.27684    94.572795   -497.70405    2869.2038     206691.9    10.472245    920.07367 
   61800   -599.89619    96.904853   -502.99134    2939.9552     199251.5    10.472245    921.62981 
   61900    -603.6827    95.311315   -508.37138    2891.6095    192550.72    10.472245    923.58871 
   62000   -604.34812    101.69737   -502.65075    3085.3535    194939.82    10.472245    924.17828 
   62100   -592.81985    104.13061   -488.68924    3159.1743    211997.91    10.472245    922.22749 
   62200    -594.2961    95.456091   -498.84001    2896.0018    207192.59    10.472245    919.40804 
   62300   -605.93543    97.068777   -508.86665    2944.9284    189756.22    10.472245    921.59532 
   62400   -592.73285    93.525831   -499.20701    2837.4404    207528.47    10.472245    926.80187 
   62500   -589.50826    96.127527   -493.38074    2916.3722    209059.12    10.472245     928.0961 
   62600   -597.33258    92.498615   -504.83396    2806.2762    202063.42    10.472245    934.24885 
   62700   -594.68131    98.075539   -496.60577    2975.4721    206583.75    10.472245    939.26054 
   62800   -597.57487     99.87867    -497.6962    3030.1765    203685.94    10.472245    936.96165 
   62900   -596.09168     85.20999   -510.88169    2585.1497    198179.87    10.472245    938.13542 
   63000   -596.49935    98.380412   -498.11893    2984.7215    205694.32    10.472245    939.40956 
   63100   -594.85881    97.116948   -497.74186    2946.3898    205106.36    10.472245     936.5732 
   63200   -599.72296    88.522574   -511.20038    2685.6488    198313.51    10.472245     941.3009 
   63300   -599.37332     92.53411   -506.83921     2807.353    199479.66    10.472245    941.98374 
   63400   -597.18578    101.79831   -495.38746    3088.4158    204032.12    10.472245    944.44521 
   63500   -608.29291    92.635069   -515.65784     2810.416    188417.56    10.472245      942.764 
   63600   -598.36564    93.183814   -505.18183    2827.0642    198832.43    10.472245    936.31387 
   63700   -601.84515    100.48949   -501.35566    3048.7079    197058.83    10.472245    936.14279 
   63800   -602.48327    87.273164   -515.21011    2647.7434    193973.66    10.472245     933.1389 
   63900   -602.65411    105.98926   -496.66485     3215.563     199189.8    10.472245    934.49985 
   64000   -598.25517    93.556562   -504.69861    2838.3728    199790.79    10.472245    935.64961 
   64100   -600.70279    98.893429   -501.80936    3000.2857    198996.98    10.472245    933.81548 
   64200   -600.01849    102.48289    -497.5356    3109.1848    200464.76    10.472245    933.72348 
   64300   -599.34672    91.583608   -507.76311    2778.5162    202811.77    10.472245     936.8962 
   64400   -600.61484    107.32348   -493.29136    3256.0414    198845.29    10.472245    938.10481 
   64500   -604.02259    99.184975   -504.83762    3009.1308    193586.18    10.472245    942.57286 
   64600   -595.59357     91.02278   -504.57079    2761.5015    201627.69    10.472245    949.57713 
   64700   -605.79186    103.03971   -502.75215    3126.0779    191214.22    10.472245    947.78229 
   64800   -608.69566    93.390298   -515.30536    2833.3286    187334.19    10.472245    947.77291 
   64900   -602.29642    87.996388   -514.30003     2669.685    193501.16    10.472245    946.60171 
   65000   -598.73497    99.208848   -499.52612    3009.8551    201463.36    10.472245    950.44187 
   65100   -598.17346     90.13206    -508.0414    2734.4783    198309.84    10.472245    955.70373 
   65200   -601.95633    96.960415   -504.99592    2941.6409    195890.81    10.472245    958.01186 
   65300   -598.21804    91.530639    -506.6874    2776.9092    199651.95    10.472245    962.78332 
   65400   -599.17267    98.116579   -501.05609    2976.7172    200876.21    10.472245    961.96698 
   65500   -600.41618     98.32013   -502.09605    2982.8927    198420.12    10.472245    963.43721 
   65600   -602.90652    96.043069   -506.86345    2913.8099    196739.08    10.472245    972.75359 
   65700   -595.18107     94.91863   -500.26244     2879.696    206565.37    10.472245    974.93135 
   65800   -595.78844    96.023541    -499.7649    2913.2174     202179.7    10.472245     971.8631 
   65900   -604.15995    96.443903   -507.71605    2925.9706     193318.4    10.472245    969.98389 
   66000   -610.24936     104.0727   -506.17666    3157.4174    189354.13    10.472245    973.17319 
   66100   -595.32151    104.21112   -491.11039     3161.617    207504.57    10.472245    974.20656 
   66200   -601.16448    98.001065   -503.16341    2973.2127    196911.64    10.472245    979.02923 
   66300   -593.34244    90.760073   -502.58237    2753.5313    204405.01    10.472245    983.46244 
   66400   -596.58065    101.55261   -495.02804    3080.9615     202463.1    10.472245    982.45318 
   66500   -604.92759    95.276035   -509.65156    2890.5391    192266.93    10.472245    984.38356 
   66600   -596.16059    101.15403   -495.00656    3068.8692    205023.74    10.472245    987.90441 
   66700   -597.72638    94.076165   -503.65021    2854.1368    201012.09    10.472245    984.03314 
   66800   -602.46379     93.56437   -508.89942    2838.6097     193869.2    10.472245    985.86678 
   66900   -597.21709    102.05613   -495.16096    3096.2375    203036.69    10.472245    986.83784 
   67000   -601.36961    99.485544   -501.88407    3018.2497    196764.41    10.472245    988.30799 
   67100   -599.22655    94.897222   -504.32932    2879.0465    199358.25    10.472245    989.53393 
   67200    -596.6801    97.646915   -499.03318    2962.4683    205087.02    10.472245     990.4262 
   67300   -593.34206    93.397557    -499.9445    2833.5488    204818.95    10.472245    991.75477 
   67400      -603.24    91.125535   -512.11447    2764.6189    192212.92    10.472245    996.11744 
   67500   -593.67217    99.624299   -494.04787    3022.4593    207407.73    10.472245     999.9634 
   67600   -602.95425    99.542832   -503.41142    3019.9877    194313.91    10.472245    998.92505 
   67700   -605.53905    96.476468   -509.06258    2926.9586    194240.97    10.472245    996.88408 
   67800   -594.42677    103.18441   -491.24236    3130.4681    205483.66    10.472245    1004.9697 
   67900   -600.89374    92.776916   -508.11682    2814.7195     196174.4    10.472245    1003.0398 
   68000   -598.39834    94.847894   -503.55045      2877.55    202714.16    10.472245    1005.4188 
   68100    -593.9121    97.732948   -496.17915    2965.0784    208053.15    10.472245    1006.1363 
   68200   -605.60729    88.948305   -516.65898    2698.5648    190984.19    10.472245     1005.677 
   68300   -596.83146    94.185237   -502.64622    2857.4459     202550.2    10.472245     1014.481 
   68400   -599.02341    96.996474   -502.02694    2942.7348    201030.14    10.472245    1017.5493 
   68500   -599.75097    85.606327   -514.14465     2597.174    195803.58    10.472245    1023.4722 
   68600   -595.58919    92.224323   -503.36487    2797.9546    203940.65    10.472245    1024.2858 
   68700   -594.58985    95.733808   -498.85604    2904.4273     204410.6    10.472245    1026.5612 
   68800    -600.1634    85.117258   -515.04615    2582.3363    194492.41    10.472245     1027.336 
   68900   -598.52331    99.153244   -499.37007    3008.1682    202411.84    10.472245    1033.0537 
   69000    -599.7949    97.272852   -502.52205    2951.1197    200505.07    10.472245    1037.9735 
   69100   -608.05134    90.503235   -517.54811    2745.7392    186018.96    10.472245    1040.1105 
   69200   -596.84276    86.641538   -510.20123    2628.5808    200527.86    10.472245    1046.4035 
   69300   -597.22845    93.702115   -503.52633    2842.7887    204382.39    10.472245    1043.4806 
   69400   -595.37613    100.65573    -494.7204    3053.7515    202472.95    10.472245     1050.113 
   69500   -601.85878    97.523078    -504.3357    2958.7112    196417.32    10.472245    1056.7102 
   69600   -606.64265    98.164845    -508.4778    2978.1815     190760.4    10.472245    1055.5992 
   69700   -591.93772    99.889391   -492.04833    3030.5018    207341.28    10.472245     1056.838 
   69800   -599.92849    95.813397   -504.11509     2906.842    198240.47    10.472245    1060.5101 
   69900   -599.88343    95.200715   -504.68271    2888.2541    200686.57    10.472245     1057.818 
   70000   -598.65054    101.88928   -496.76126    3091.1756    200256.88    10.472245    1064.8487 
   70100   -605.52327    94.829619   -510.69365    2876.9955    193404.98    10.472245    1065.5492 
   70200   -603.26602     94.63306   -508.63296    2871.0322     195910.3    10.472245    1066.4059 
   70300   -592.98749    97.895291    -495.0922    2970.0036    204154.58    10.472245    1064.2481 
   70400   -602.30264    92.233457   -510.06918    2798.2317    194932.75    10.472245    1070.3708 
   70500   -597.31797    98.786391   -498.53158    2997.0383    203931.45    10.472245    1069.8321 
   70600   -598.83526    101.57647   -497.25879    3081.6855    203623.84    10.472245    1072.8163 
   70700   -600.65626    91.108342   -509.54792    2764.0973    198293.48    10.472245    1072.7908 
   70800   -597.13629    100.08668    -497.0496    3036.4874    204605.92    10.472245    1074.6878 
   70900   -595.05747    96.281394   -498.77608    2921.0403    208414.75    10.472245    1075.4202 
   71000   -601.67483     94.36709   -507.30774     2862.963    196363.05    10.472245    1075.3853 
   71100   -599.44308     104.9033   -494.53978    3182.6168    204079.68    10.472245    1076.0651 
   71200   -598.76503    93.919994   -504.84504    2849.3988    200983.41    10.472245    1080.0593 
   71300   -606.08781    98.256209   -507.83161    2980.9534    189919.67    10.472245    1083.5045 
   71400   -595.45341    93.152618    -502.3008    2826.1177    202228.57    10.472245    1089.8487 
   71500   -594.86765    108.46315    -486.4045    3290.6174    206430.79    10.472245    1093.8501 
   71600    -597.4055    91.134133   -506.27136    2764.8798    199420.18    10.472245    1093.3231 
   71700   -598.54468    98.788927   -499.75575    2997.1153     202728.3    10.472245    1095.9944 
   71800   -595.51551    104.70952   -490.80599    3176.7376    201545.74    10.472245    1095.5708 
   71900   -594.28274      87.2745   -507.00824     2647.784    201974.52    10.472245    1099.6613 
   72000   -596.16225    99.994665   -496.16759    3033.6957    203828.25    10.472245     1099.288 
   72100   -598.07563    95.234822    -502.8408    2889.2888    200402.06    10.472245    1102.4734 
   72200   -602.54619     90.74036   -511.80583    2752.9332    196032.66    10.472245     1100.019 
   72300    -589.3188    94.460403    -494.8584     2865.794    211624.96    10.472245     1099.956 
   72400   -599.15532    96.526937   -502.62838    2928.4897    198343.55    10.472245    1104.1818 
   72500   -599.07376      95.8169   -503.25686    2906.9482    197453.77    10.472245    1106.7251 
   72600   -597.70853    108.69941   -489.00912    3297.7852    208072.19    10.472245    1111.3621 
   72700   -602.20046    100.41726   -501.78319    3046.5167    195457.24    10.472245    1115.9654 
   72800   -603.73326    94.805443   -508.92782    2876.2621    196496.28    10.472245    1121.1044 
   72900   -600.42151    97.944736   -502.47677    2971.5037    197527.72    10.472245    1120.2561 
   73000   -598.96749    102.94055   -496.02694    3123.0695    201523.54    10.472245    1122.4243 
   73100   -599.26883    85.562439   -513.70639    2595.8425    197642.71    10.472245    1126.1859 
   73200   -601.21832    98.147878   -503.07044    2977.6668    197556.89    10.472245    1133.0664 
   73300   -594.18786    91.730426   -502.45743    2782.9704    204570.01    10.472245    1134.7787 
   73400   -609.97431    94.043603   -515.93071    2853.1489    187163.93    10.472245    1142.1074 
   73500   -598.57399     99.51332   -499.06067    3019.0923    201373.05    10.472245    1140.9098 
   73600   -596.20557    93.791569   -502.41401    2845.5026    201470.03    10.472245    1136.3235 
   73700    -607.3636    94.306511   -513.05709    2861.1252    187487.22    10.472245    1132.5077 
   73800   -605.85138    91.380534   -514.47085    2772.3552    192666.36    10.472245    1135.4381 
   73900   -595.92976    93.221915   -502.70784    2828.2201    201681.65    10.472245    1140.1131 
   74000    -595.8631    102.52702   -493.33608    3110.5237    205889.44    10.472245    1141.4938 
   74100   -594.74107    97.174767    -497.5663     2948.144    205776.84    10.472245    1139.3862 
   74200   -603.75894     94.94752   -508.81142    2880.5725     194623.1    10.472245    1135.5877 
   74300   -596.49526    97.304165   -499.19109    2952.0697    203835.16    10.472245    1140.2197 
   74400    -594.4213    101.27985   -493.14145    3072.6865     206743.8    10.472245    1137.9442 
   74500    -604.8638    96.395761   -508.46804    2924.5101    193696.33    10.472245     1138.763 
   74600   -603.62269    105.89228   -497.73041     3212.621    194584.51    10.472245    1139.6603 
   74700   -605.07978    90.459039   -514.62074    2744.3983    192765.12    10.472245    1141.4819 
   74800   -607.77243    99.317075   -508.45536    3013.1386    187679.97    10.472245    1139.7668 
   74900   -604.73214    104.86937   -499.86278    3181.5872    195181.85    10.472245    1141.4684 
   75000    -601.5454     95.69952   -505.84588    2903.3871    198221.94    10.472245    1143.0726 
   75100   -604.89259    102.78901   -502.10358    3118.4722    195246.28    10.472245    1143.5096 
   75200   -606.80887    102.27602   -504.53285    3102.9087    191020.83    10.472245    1144.3849 
   75300   -596.69505    83.376655    -513.3184    2529.5289    201239.67    10.472245    1153.0564 
   75400   -596.72215    97.663171   -499.05898    2962.9615    203765.65    10.472245    1155.2469 
   75500   -596.06808    89.499341   -506.56874    2715.2825    199816.58    10.472245    1155.6842 
   75600    -606.7388    89.695166   -517.04364    2721.2235    190140.85    10.472245    1160.8164 
   75700   -601.57357    100.31484   -501.25873    3043.4093    199794.52    10.472245    1164.4136 
   75800   -597.58373    86.242053   -511.34167     2616.461    197011.45    10.472245     1161.678 
   75900   -598.78505    98.483781   -500.30127    2987.8576    200138.67    10.472245    1165.5193 
   76000   -591.22747    91.441027   -499.78644    2774.1905    207421.31    10.472245    1169.2118 
   76100   -604.34349    91.242268   -513.10122    2768.1604     194035.8    10.472245    1173.0474 
   76200   -593.75611    98.366832   -495.38928    2984.3095     204931.8    10.472245    1179.0075 
   76300   -602.40208    99.241757   -503.16032    3010.8535    199607.83    10.472245    1182.1957 
   76400   -605.05267    95.654131   -509.39854      2902.01    190107.82    10.472245    1182.9769 
   76500   -585.60873    97.380501   -488.22823    2954.3857    216697.75    10.472245    1186.1871 
   76600   -600.22487    100.74357    -499.4813    3056.4162    198583.18    10.472245    1185.5489 
   76700   -607.00722    100.11405   -506.89316    3037.3178    194162.84    10.472245    1180.1488 
   76800   -589.44184    99.304724   -490.13712    3012.7638    215468.27    10.472245    1178.6402 
   76900   -594.62209    97.215012   -497.40708    2949.3649    204493.95    10.472245    1186.1853 
   77000   -594.18634     88.88551   -505.30083    2696.6597    201993.42    10.472245    1182.2134 
   77100   -600.81883    88.662673   -512.15615    2689.8992    196157.49    10.472245    1186.5176 
   77200   -606.31277    93.259875   -513.05289    2829.3717    192307.17    10.472245     1186.581 
[...]
   81400   -601.71655    87.627837   -514.08871    2658.5037    194549.52    10.472245    1259.9691 
   81500   -596.24861    100.05385   -496.19476    3035.4913    203619.44    10.472245    1265.9431 
   81600    -601.6043    92.839413   -508.76488    2816.6155    195097.37    10.472245    1266.3407 
   81700   -598.04245    95.500344   -502.54211    2897.3444    204464.46    10.472245    1269.0809 
   81800   -595.95125     99.62658   -496.32467    3022.5285    203604.52    10.472245    1270.7766 
   81900   -604.91044    91.567146   -513.34329    2778.0168    191454.56    10.472245    1277.4156 
   82000   -596.30995    97.284824   -499.02512    2951.4829    202935.36    10.472245    1279.2477 
   82100   -601.64033    100.24956   -501.39076    3041.4289    198887.65    10.472245     1284.801 
   82200   -602.31889    91.362898     -510.956    2771.8202    194363.16    10.472245    1289.9619 
   82300   -592.12955    95.810295   -496.31926    2906.7478    209239.79    10.472245    1295.4306 
   82400   -602.24251    96.014068   -506.22844      2912.93    196714.68    10.472245     1302.036 
   82500   -599.90481    90.121775   -509.78304    2734.1663    196682.03    10.472245    1303.3688 
   82600   -592.95642     92.11555   -500.84087    2794.6545    203690.71    10.472245    1305.2704 
   82700   -591.93991    102.69923   -489.24069    3115.7482    210440.91    10.472245    1303.3578 
   82800   -597.21134    96.601038   -500.61031    2930.7379     202835.7    10.472245    1311.8875 
   82900   -603.99832    93.160583   -510.83773    2826.3594    196149.63    10.472245    1312.8944 
   83000   -600.07461    96.485884   -503.58872    2927.2442    198402.69    10.472245    1316.7565 
   83100   -592.81428    98.726542   -494.08774    2995.2226    208413.94    10.472245    1321.7643 
   83200   -599.16778    88.315052   -510.85273    2679.3529    197465.25    10.472245    1326.9531 
   83300   -597.77142    101.21937   -496.55206    3070.8514    202758.46    10.472245    1330.8705 
   83400   -591.47718    88.357671    -503.1195    2680.6459    206951.04    10.472245    1333.7884 
   83500   -601.69267    96.876527   -504.81614    2939.0958    196854.98    10.472245    1335.4206 
   83600   -595.43343    98.821788   -496.61164    2998.1123     205186.7    10.472245    1337.2362 
   83700   -599.92539    90.930181   -508.99521    2758.6921    196724.52    10.472245    1341.6015 
   83800   -606.87106    103.32027   -503.55079    3134.5897    191958.69    10.472245    1341.6166 
   83900   -591.09982    96.570565   -494.52925    2929.8134    205247.96    10.472245    1344.3671 
   84000   -602.28623    89.514904   -512.77132    2715.7547    193401.45    10.472245    1339.6244 
   84100   -600.35207    99.335891   -501.01617    3013.7094    200174.33    10.472245     1343.752 
   84200   -597.48981    99.307158   -498.18265    3012.8377    202900.72    10.472245    1344.1173 
   84300   -594.20969    91.130418   -503.07928     2764.767    205428.99    10.472245    1347.1433 
   84400   -595.23611    93.987822   -501.24829    2851.4566    203331.45    10.472245    1346.0588 
   84500   -599.52286    98.236073   -501.28678    2980.3425    199671.66    10.472245    1348.6927 
   84600   -600.75703    92.950011   -507.80702    2819.9709     195385.2    10.472245    1349.5152 
   84700   -594.02783    100.60287   -493.42495    3052.1477    206450.35    10.472245    1352.5728 
   84800   -593.81693    91.577129    -502.2398    2778.3196    206125.41    10.472245     1357.775 
   84900   -592.88107    103.70739   -489.17369    3146.3344    208377.64    10.472245    1357.0426 
   85000   -599.91564    107.71776   -492.19788    3268.0033     205211.8    10.472245     1359.862 
   85100     -596.159    88.731094   -507.42791     2691.975    202599.17    10.472245    1361.4122 
   85200   -594.48618    94.137934   -500.34824    2856.0108     204401.8    10.472245    1361.6444 
   85300   -589.99475    97.919864   -492.07489    2970.7492    212296.54    10.472245    1368.7662 
   85400   -599.44407    91.331318   -508.11275    2770.8621    199542.27    10.472245    1370.0887 
   85500   -603.85448    98.079947   -505.77454    2975.6059    193027.13    10.472245    1370.1746 
   85600   -601.43887    99.024274   -502.41459    3004.2554    198854.16    10.472245     1376.454 
   85700   -607.77401    83.139447   -524.63457    2522.3324    184938.72    10.472245    1379.8823 
   85800   -603.87338    94.871581    -509.0018    2878.2686     198445.3    10.472245    1387.5408 
   85900    -601.5768    100.47475   -501.10205    3048.2609    196524.52    10.472245    1388.1469 
   86000   -601.45081    98.791964   -502.65885    2997.2074    196729.45    10.472245    1389.6453 
   86100   -604.24892    90.303312    -513.9456    2739.6738    191141.75    10.472245    1394.0895 
   86200   -597.38535    98.726949    -498.6584     2995.235    202673.29    10.472245    1400.2795 
   86300   -605.53155    99.766458   -505.76509    3026.7722     191351.8    10.472245    1403.0532 
   86400   -612.60423    90.758103   -521.84613    2753.4715    182208.65    10.472245    1402.3275 
   86500   -597.16342    92.110564   -505.05286    2794.5033     202455.3    10.472245    1402.2763 
   86600   -599.34593    101.86835   -497.47758    3090.5407    201754.03    10.472245    1404.0949 
   86700   -603.17845    91.769127   -511.40932    2784.1445    190956.88    10.472245    1406.8408 
   86800   -600.68688     96.24779   -504.43909    2920.0208    197842.54    10.472245    1415.5641 
   86900   -597.98451    95.612282   -502.37223    2900.7404    201962.26    10.472245    1421.8255 
   87000   -594.11623    86.169469   -507.94676    2614.2589     205269.8    10.472245     1421.653 
   87100   -587.43227     95.04781   -492.38446    2883.6151    214270.13    10.472245    1422.7629 
   87200   -606.03249    94.981821   -511.05067    2881.6131    189625.23    10.472245    1423.9161 
   87300   -598.59514     86.03887   -512.55627    2610.2967    199519.24    10.472245    1426.0591 
   87400   -600.73279    103.53685   -497.19593    3141.1606    200507.93    10.472245      1426.93 
   87500   -598.00975    92.100499   -505.90925    2794.1979    201587.78    10.472245    1435.0377 
   87600   -597.91766    102.92317   -494.99449    3122.5424    203465.03    10.472245    1435.8698 
   87700   -600.63294     97.98969   -502.64325    2972.8676    196112.16    10.472245    1440.1747 
   87800   -599.21988    90.733415   -508.48647    2752.7225    196873.92    10.472245    1434.9999 
   87900   -585.02243    97.286838   -487.73559    2951.5441    218415.97    10.472245     1436.182 
   88000   -594.91652    94.573078   -500.34344    2869.2124    205039.18    10.472245    1438.5358 
   88100   -606.82333    96.503291   -510.32004    2927.7723    190447.07    10.472245     1442.869 
   88200   -595.09554    96.834182   -498.26135    2937.8111    204827.23    10.472245    1446.4365 
   88300     -595.795    97.189846   -498.60516    2948.6014    203282.62    10.472245    1442.8778 
   88400   -607.26001    97.189941   -510.07006    2948.6043    191394.99    10.472245    1442.8708 
   88500    -599.0229    105.66408   -493.35882    3205.6977    202596.65    10.472245    1446.0662 
   88600    -594.8638    93.556015   -501.30779    2838.3562     206405.5    10.472245    1449.0867 
   88700   -597.90177    91.526087   -506.37568    2776.7711    201575.64    10.472245    1447.0309 
   88800   -586.94019    97.760991   -489.17919    2965.9292    213859.56    10.472245    1450.3264 
   88900   -592.06264    95.973395   -496.08924    2911.6961     206906.1    10.472245    1456.6595 
   89000   -604.60407    96.137281   -508.46679    2916.6681    192421.38    10.472245    1458.2327 
   89100   -601.93582    91.048107   -510.88771    2762.2698    192714.04    10.472245    1462.1559 
   89200   -592.21984    96.547396   -495.67244    2929.1104    209493.36    10.472245    1466.4539 
   89300   -599.38313    88.943935    -510.4392    2698.4323     198881.6    10.472245     1472.901 
   89400   -604.46313    96.857431    -507.6057    2938.5165    190412.47    10.472245    1477.6388 
   89500   -596.89994    102.56299   -494.33696     3111.615    205000.66    10.472245    1473.2173 
   89600   -597.10251    93.624255   -503.47825    2840.4265    197952.51    10.472245    1471.7268 
   89700   -600.19964    93.765835    -506.4338    2844.7218    199922.09    10.472245    1471.4446 
   89800   -600.06906    97.391614   -502.67745    2954.7228    199951.17    10.472245    1474.9242 
   89900   -603.78496    95.682504   -508.10246    2902.8708    194652.46    10.472245    1474.3748 
   90000   -599.56849    98.327644   -501.24085    2983.1206    199838.98    10.472245    1478.8075 
   90100   -593.59415    102.90429   -490.68985    3121.9697    209355.74    10.472245    1477.9475 
   90200   -605.36264    94.229386   -511.13325    2858.7853    192504.21    10.472245     1475.823 
   90300   -600.06865    100.33731   -499.73133     3044.091    198372.48    10.472245    1476.0242 
   90400   -597.49163    94.723072   -502.76856    2873.7631     203246.9    10.472245    1477.5894 
   90500   -595.54281     85.42422   -510.11859    2591.6491    199935.86    10.472245     1481.041 
   90600   -593.48259    96.526744   -496.95585    2928.4839    205694.71    10.472245    1481.1336 
   90700   -600.42548     93.22287   -507.20261     2828.249    197799.92    10.472245    1481.2158 
   90800   -603.72882    90.599372   -513.12944    2748.6559    192158.11    10.472245    1481.8238 
   90900   -591.17277     84.88453   -506.28824    2575.2757    206969.43    10.472245    1486.1977 
   91000   -593.00116    102.73455   -490.26661    3116.8198    206880.55    10.472245    1483.8617 
   91100   -598.12755    106.93846   -491.18909    3244.3605    202629.19    10.472245    1482.4084 
   91200   -601.23168    92.969423   -508.26225    2820.5598    196397.29    10.472245    1483.5658 
   91300   -595.31887    96.404717   -498.91415    2924.7818    203552.22    10.472245    1485.0733 
   91400   -600.77012    104.48701   -496.28311     3169.987     198126.3    10.472245    1488.8463 
   91500   -599.80399    93.233218   -506.57077     2828.563    197751.89    10.472245    1488.8256 
   91600   -601.33593    100.36897   -500.96696    3045.0516    197948.55    10.472245    1487.8271 
   91700   -599.07562    92.005642   -507.06997    2791.3201    199000.99    10.472245    1490.5667 
   91800   -597.17205    97.813971   -499.35808    2967.5365    201616.68    10.472245    1486.2899 
   91900   -599.43561    102.30494   -497.13066    3103.7862    202426.78    10.472245    1487.7499 
   92000   -604.28666    92.773487   -511.51317    2814.6154    192256.58    10.472245    1489.7001 
   92100   -597.26662    93.800187   -503.46643     2845.764    204015.13    10.472245    1491.9074 
   92200   -596.23327    104.26909   -491.96418    3163.3756    205398.09    10.472245    1493.5913 
   92300   -597.19604    91.972617   -505.22342    2790.3182    200475.36    10.472245    1493.4057 
   92400   -603.73138    94.751927   -508.97945    2874.6385    192467.66    10.472245    1486.9478 
   92500   -596.86454    105.40093    -491.4636    3197.7141    205224.12    10.472245    1482.0401 
   92600   -601.95639    97.682983   -504.27341    2963.5625       200172    10.472245    1485.6946 
   92700   -605.32963    102.31321   -503.01642    3104.0371    193502.29    10.472245    1487.0547 
   92800   -594.78727    104.39759   -490.38968    3167.2741    206374.99    10.472245    1488.7249 
   92900   -597.98711    92.697371   -505.28974    2812.3061    201190.53    10.472245    1490.0581 
   93000   -599.57077    94.589017   -504.98176     2869.696    199956.22    10.472245    1491.3712 
   93100   -592.69956    101.33518   -491.36438    3074.3649    207458.51    10.472245    1493.6579 
   93200   -601.33043    98.711224   -502.61921    2994.7579     198295.1    10.472245    1484.7647 
   93300    -605.4927    98.276003    -507.2167    2981.5539    193098.21    10.472245    1485.8016 
   93400   -606.68492    94.449475   -512.23545    2865.4625     190049.9    10.472245    1485.6471 
   93500   -605.41209    99.159432   -506.25265    3008.3559    191141.61    10.472245    1488.4459 
   93600    -598.6754    98.023236   -500.65217    2973.8853    198869.19    10.472245    1493.7685 
   93700   -609.60576    92.239743   -517.36602    2798.4224     187553.3    10.472245    1491.4203 
   93800   -601.89786    95.853645   -506.04421     2908.063    198586.57    10.472245    1493.7861 
   93900   -596.38794    98.042252   -498.34569    2974.4622    202079.45    10.472245    1499.7277 
   94000   -583.18425    97.791323   -485.39292    2966.8494    220810.68    10.472245    1504.3951 
   94100   -596.18311    92.202653   -503.98046    2797.2971    201344.92    10.472245    1511.2882 
   94200   -607.06856    100.49993   -506.56863    3049.0248    187956.03    10.472245    1509.7795 
   94300   -596.98064    97.528782   -499.45186    2958.8843    203896.29    10.472245    1508.0579 
   94400   -600.06509    98.618443   -501.44664    2991.9431    197792.57    10.472245    1509.3781 
   94500   -600.30822    89.351478   -510.95675    2710.7965    195340.95    10.472245    1514.5096 
   94600    -604.0964    100.81252   -503.28388    3058.5083    194741.78    10.472245    1522.1735 
   94700   -603.84418     95.45262   -508.39156    2895.8965    191660.49    10.472245    1524.7276 
   94800    -593.2803    95.107012   -498.17328    2885.4112    205934.66    10.472245    1523.3337 
   94900   -594.87977     112.9976   -481.88217    3428.1861    209596.55    10.472245    1517.8646 
   95000   -599.92411    95.549966   -504.37414    2898.8498    197995.09    10.472245    1515.0766 
   95100   -601.97751    100.39851     -501.579    3045.9477    195154.55    10.472245    1515.9176 
   95200   -587.24342    83.930052   -503.31337    2546.3182    208868.41    10.472245    1513.6818 
   95300   -607.28831    93.547062   -513.74125    2838.0846    188288.29    10.472245    1520.0709 
   95400   -603.34909    101.57992   -501.76917    3081.7901    196923.93    10.472245    1520.5598 
   95500   -596.12374    92.691176   -503.43256    2812.1182    202528.54    10.472245    1524.4974 
   95600   -603.78778    88.800161   -514.98762    2694.0704    191306.81    10.472245    1525.0142 
   95700   -598.34034    94.008019   -504.33232    2852.0694    201429.97    10.472245    1528.4168 
   95800   -593.88021    93.192635   -500.68757    2827.3318     205610.5    10.472245    1529.5265 
   95900   -603.48424    93.715114   -509.76913     2843.183    192688.96    10.472245    1531.6592 
   96000   -605.87517    94.050033   -511.82513     2853.344    190795.53    10.472245     1529.917 
   96100   -598.13656     102.7859   -495.35066    3118.3778    202238.09    10.472245    1536.8744 
   96200   -603.56395    96.686981   -506.87697    2933.3452    195809.23    10.472245    1529.2892 
   96300   -601.74586    94.773529   -506.97233    2875.2938    197108.81    10.472245    1532.8336 
   96400   -599.78506    101.03199   -498.75308    3065.1666    199403.02    10.472245    1520.2357 
   96500   -597.86846    87.682552   -510.18591    2660.1637    196121.52    10.472245    1524.4475 
   96600    -590.8646    95.217745   -495.64685    2888.7707    208999.95    10.472245    1529.7101 
   96700   -599.35263    97.542069   -501.81056    2959.2874       199736    10.472245    1527.8475 
   96800   -602.96491     96.48232   -506.48259    2927.1361    196438.75    10.472245    1534.2322 
   96900   -600.95477    108.06729   -492.88748    3278.6077    202161.74    10.472245    1543.2715 
   97000   -597.09483    97.978057   -499.11677    2972.5147    202464.11    10.472245     1552.021 
   97100   -601.77084    96.730233   -505.04061    2934.6574    196655.43    10.472245    1550.7139 
   97200   -598.64293    101.92405   -496.71888    3092.2305    201991.34    10.472245    1548.1294 
   97300   -604.95061    92.235993   -512.71462    2798.3086    189805.84    10.472245    1546.5691 
   97400   -595.09355    87.388296   -507.70525    2651.2364    198673.22    10.472245    1548.5855 
   97500   -598.51767    96.409788   -502.10788    2924.9356    201490.81    10.472245    1549.4536 
   97600   -591.62315    85.645018   -505.97813    2598.3478    206422.74    10.472245     1541.591 
   97700   -591.70141    100.56333   -491.13807    3050.9483    213611.25    10.472245    1544.6307 
   97800   -597.35865    93.608208   -503.75045    2839.9397    203881.82    10.472245    1540.4772 
   97900   -596.50374    89.155383   -507.34835    2704.8473    204361.43    10.472245    1545.0101 
   98000   -591.58562    101.21255   -490.37307    3070.6445    211179.75    10.472245    1543.2661 
   98100   -599.52201    92.659419   -506.86259    2811.1548    196252.97    10.472245    1545.5298 
   98200   -600.29293    90.275283   -510.01765    2738.8235    197265.44    10.472245    1547.0524 
   98300   -607.14004    109.17329   -497.96675     3312.162    193197.24    10.472245    1548.4238 
   98400   -600.88822    86.445248   -514.44297    2622.6257    195748.09    10.472245    1547.4151 
   98500   -596.87311    91.247986   -505.62512    2768.3339    199393.58    10.472245    1545.8034 
   98600   -599.97507    99.410849   -500.56422    3015.9835    199929.05    10.472245    1542.6333 
   98700   -604.65249    93.061043   -511.59145    2823.3395    193255.79    10.472245    1539.4993 
   98800   -596.11373     99.79069   -496.32305    3027.5073    208387.83    10.472245    1541.9342 
   98900   -596.80517    101.07607    -495.7291     3066.504    206676.81    10.472245    1539.2272 
   99000    -604.5978    97.461371   -507.13643    2956.8391    193142.49    10.472245    1538.1823 
   99100   -596.69057    97.832302   -498.85826    2968.0926    201439.23    10.472245    1540.7672 
   99200   -591.61189    104.63436   -486.97754    3174.4574    206674.18    10.472245    1546.2357 
   99300   -600.29166     98.05655   -502.23511     2974.896    200561.18    10.472245    1548.0008 
   99400    -594.0146    93.768319   -500.24628    2844.7972    205149.63    10.472245    1549.5543 
   99500   -602.38536    88.715697   -513.66966    2691.5078    195320.65    10.472245    1551.9505 
   99600     -601.869     98.62034   -503.24866    2992.0006    198243.45    10.472245    1553.8785 
   99700   -603.74814    102.01966   -501.72848    3095.1311    193107.08    10.472245    1562.9648 
   99800   -605.80124     94.14277   -511.65847    2856.1575    189454.58    10.472245    1566.3964 
   99900   -596.87786    104.61563   -492.26223    3173.8892    204056.33    10.472245    1570.2618 
  100000   -598.67551    93.991408   -504.68411    2851.5654    201760.12    10.472245    1570.8899 
Loop time of 74.6749 on 1 procs for 100000 steps with 256 atoms

Performance: 578.508 ns/day, 0.041 hours/ns, 1339.138 timesteps/s
100.0% CPU use with 1 MPI tasks x no OpenMP threads

MPI task timing breakdown:
Section |  min time  |  avg time  |  max time  |%varavg| %total
---------------------------------------------------------------
Pair    | 44.165     | 44.165     | 44.165     |   0.0 | 59.14
Neigh   | 4.1833     | 4.1833     | 4.1833     |   0.0 |  5.60
Comm    | 0.91128    | 0.91128    | 0.91128    |   0.0 |  1.22
Output  | 0.027282   | 0.027282   | 0.027282   |   0.0 |  0.04
Modify  | 25.248     | 25.248     | 25.248     |   0.0 | 33.81
Other   |            | 0.1401     |            |       |  0.19

Nlocal:    256 ave 256 max 256 min
Histogram: 1 0 0 0 0 0 0 0 0 0
Nghost:    1580 ave 1580 max 1580 min
Histogram: 1 0 0 0 0 0 0 0 0 0
Neighs:    13479 ave 13479 max 13479 min
Histogram: 1 0 0 0 0 0 0 0 0 0

Total # of neighbors = 13479
Ave neighs/atom = 52.6523
Neighbor list builds = 7588
Dangerous builds = 219
    
Total wall time: 0:01:14
