LAMMPS (3 Mar 2020)
Reading data file ...
  orthogonal box = (0 0 0) to (16.36 16.36 16.36)
  1 by 1 by 1 MPI processor grid
  reading atoms ...
  256 atoms
  read_data CPU = 0.000972142 secs
Reading potential file /usr/share/lammps-stable/potentials/Ag_u3.eam with DATE: 2007-06-11
Neighbor list info ...
  update every 1 steps, delay 10 steps, check yes
  max neighbors/atom: 2000, page size: 100000
  master list distance cutoff = 7.55
  ghost atom cutoff = 7.55
  binsize = 3.775, bins = 5 5 5
  2 neighbor lists, perpetual/occasional/extra = 1 1 0
  (1) pair eam, perpetual
      attributes: half, newton on
      pair build: half/bin/atomonly/newton
      stencil: half/bin/3d/newton
      bin: standard
  (2) compute rdf, occasional, copy from (1)
      attributes: half, newton on
      pair build: copy
      stencil: none
      bin: none
Setting up Verlet run ...
  Unit style    : metal
  Current step  : 0
  Time step     : 0.005
Per MPI rank memory allocation (min/avg/max) = 3.744 | 3.744 | 3.744 Mbytes
Step PotEng KinEng TotEng Temp Press Density c_msdall[4] 
       0       -729.6    77.129529   -652.47047         2340     18814.32    10.472245            0 
     100   -678.45897    50.505321   -627.95365    1532.2595    84568.882    10.472245   0.11973883 
     200   -657.78508    68.051968   -589.73311    2064.5998    117963.98    10.472245   0.21274986 
     300   -648.95498    88.038872   -560.91611     2670.974    132747.21    10.472245   0.24929431 
     400   -647.07558    75.319289   -571.75629    2285.0799    132089.07    10.472245    0.2914818 
     500   -655.93022    76.928311   -579.00191    2333.8954    120530.97    10.472245   0.21809885 
     600   -639.27894    74.495585   -564.78336    2260.0899    141396.37    10.472245   0.36286294 
     700   -646.98759     80.34551   -566.64208    2437.5683    136360.59    10.472245   0.23301925 
     800   -656.20622    74.945051   -581.26117    2273.7261    121567.86    10.472245   0.21689916 
     900   -650.25874    78.768983   -571.48976    2389.7387    128929.97    10.472245   0.21941312 
    1000   -648.62358    80.717843   -567.90574    2448.8644     131786.9    10.472245   0.25535545 
    1100   -653.21297    72.199574    -581.0134    2190.4322    123912.29    10.472245    0.2059316 
    1200   -646.92731    73.871285   -573.05603    2241.1495    133036.31    10.472245   0.19834827 
    1300   -653.07856    80.269378   -572.80918    2435.2586    125839.57    10.472245   0.22602331 
    1400   -648.43583    81.986658   -566.44917    2487.3584    132195.81    10.472245   0.28438136 
    1500   -648.27361    83.422404    -564.8512    2530.9169    134564.27    10.472245   0.25956288 
    1600   -649.64546    74.373248   -575.27221    2256.3784    128141.94    10.472245   0.23444684 
    1700   -647.82052    71.426798   -576.39373    2166.9873    130167.14    10.472245   0.24743355 
    1800   -645.93737    83.577523   -562.35984     2535.623    136071.58    10.472245   0.22544191 
    1900   -652.57502    80.044678   -572.53034    2428.4415    124572.68    10.472245    0.2218858 
    2000   -653.84936    81.362593   -572.48677    2468.4252     124226.8    10.472245   0.21672744 
    2100   -639.18783    79.422101   -559.76573    2409.5534    144349.63    10.472245   0.28511817 
    2200   -651.64568    77.764612   -573.88107    2359.2675    125598.48    10.472245   0.21622276 
    2300   -647.01179    73.660668   -573.35113    2234.7597     131721.2    10.472245   0.24072751 
    2400    -654.9634    86.400049   -568.56335    2621.2544    125441.42    10.472245   0.21274257 
    2500   -655.92419    81.316503   -574.60769    2467.0268    122643.95    10.472245   0.22714294 
    2600   -649.73171    71.174266   -578.55744    2159.3258    129080.21    10.472245   0.22926486 
    2700   -645.81495    80.010307   -565.80464    2427.3987     134779.9    10.472245   0.25342529 
    2800   -651.29802    77.531393   -573.76662     2352.192    128335.28    10.472245   0.26001556 
    2900   -654.11456    81.438576   -572.67598    2470.7304    123921.19    10.472245   0.21263998 
    3000   -649.97203    78.156073   -571.81596    2371.1439    130727.01    10.472245   0.24454992 
    3100   -649.98943    75.652842   -574.33659    2295.1994    128644.39    10.472245   0.24296208 
    3200    -661.0277    73.370796    -587.6569    2225.9654    115674.78    10.472245   0.19850157 
    3300   -654.27279    79.153548   -575.11924    2401.4059    124522.02    10.472245   0.21649153 
    3400   -652.43505    84.806187   -567.62886    2572.8989    127757.09    10.472245   0.24200225 
    3500   -647.63896    69.320913   -578.31805    2103.0977    132519.38    10.472245   0.26707421 
    3600    -655.6254    77.785514   -577.83989    2359.9017    121667.46    10.472245   0.21822649 
    3700   -647.14129    80.665713   -566.47558    2447.2828    133554.04    10.472245   0.27410017 
    3800   -647.01999    77.010019   -570.00997    2336.3742    131666.75    10.472245   0.26685311 
    3900   -645.46969    71.327216   -574.14248    2163.9661    133690.57    10.472245   0.28671634 
    4000      -645.56    76.007556   -569.55245    2305.9609     136665.3    10.472245   0.22682526 
    4100   -648.24391    86.644331   -561.59958    2628.6655    133943.12    10.472245   0.26689391 
    4200    -651.9449    74.304451   -577.64045    2254.2912    125075.59    10.472245   0.22011104 
    4300   -652.14003    79.068515   -573.07152    2398.8261    126757.66    10.472245   0.17820572 
    4400   -646.48195    86.722299   -559.75965     2631.031     135992.3    10.472245   0.25723107 
    4500   -653.11231     82.13237   -570.97994    2491.7791     125730.1    10.472245   0.22432302 
    4600   -648.80252     73.91833   -574.88419    2242.5768    129527.88    10.472245   0.25389093 
    4700   -646.00406    80.834458    -565.1696    2452.4023    134089.56    10.472245   0.25064376 
    4800   -647.89074    76.781171   -571.10957    2329.4313     131609.6    10.472245   0.23772912 
    4900   -654.08912    74.433886   -579.65524     2258.218     122981.5    10.472245   0.19204449 
    5000   -647.71629    81.323208   -566.39308    2467.2303    132589.79    10.472245   0.25386959 
    5100   -645.82022    79.510449   -566.30977    2412.2337    136811.11    10.472245   0.28199586 
    5200   -655.31387    73.635749   -581.67812    2234.0037     120604.4    10.472245    0.2368616 
    5300   -652.43039    74.873873   -577.55651    2271.5666    124607.25    10.472245   0.23277988 
    5400   -648.96157    79.323343   -569.63823    2406.5572    131832.21    10.472245   0.23106803 
    5500   -651.34111    69.534105   -581.80701    2109.5657    125162.96    10.472245   0.22010901 
    5600   -653.05033    75.040463   -578.00987    2276.6207     124958.7    10.472245   0.23068124 
    5700   -645.84567    73.875773    -571.9699    2241.2857    134662.66    10.472245   0.25242014 
    5800   -652.28726      74.6655   -577.62176    2265.2449    124597.63    10.472245   0.23188439 
    5900   -654.04957    74.333211   -579.71636    2255.1637    123325.26    10.472245   0.19674479 
    6000   -649.98991    82.498198   -567.49171    2502.8778    129249.42    10.472245   0.21934912 
    6100   -649.89926    72.621287   -577.27797    2203.2264     127338.6    10.472245   0.21475148 
    6200   -656.98892    70.821172   -586.16774    2148.6135    118929.78    10.472245   0.15604988 
    6300   -652.52117    75.027444   -577.49372    2276.2257    123771.44    10.472245   0.21138935 
    6400   -643.45701    75.189543   -568.26747    2281.1436    135229.63    10.472245   0.27038586 
    6500   -642.39291    77.859687   -564.53322     2362.152    138419.94    10.472245   0.31372083 
    6600   -654.42112    77.356325   -577.06479    2346.8807    122909.29    10.472245   0.23368074 
    6700   -656.40828    83.030499   -573.37778     2519.027    122817.88    10.472245   0.21869204 
    6800   -655.86246    87.232387   -568.63008    2646.5063    125742.24    10.472245   0.19896052 
    6900   -652.59984    79.205869   -573.39397    2402.9932     126299.9    10.472245   0.23295016 
    7000   -640.51947    75.157844   -565.36163    2280.1819    142067.94    10.472245    0.3173936 
    7100   -645.77867    81.844356   -563.93432    2483.0411    136610.72    10.472245   0.26594067 
    7200   -650.07242    74.206624    -575.8658    2251.3233    128096.71    10.472245   0.20616309 
    7300    -653.2555    78.997143   -574.25836    2396.6608    125764.05    10.472245     0.232597 
    7400   -635.81104    72.259201   -563.55184    2192.2412    148121.59    10.472245   0.27123969 
    7500   -648.58196    75.558015   -573.02395    2292.3225    128853.49    10.472245    0.2449148 
    7600   -651.25357    77.899053   -573.35452    2363.3463    126622.58    10.472245    0.2493225 
    7700   -641.70529     70.36526   -571.34003    2134.7817    140781.65    10.472245   0.26609282 
    7800   -657.76937    76.746365     -581.023    2328.3754    119141.89    10.472245   0.20149145 
    7900   -645.88194    69.649991   -576.23195    2113.0815    133152.63    10.472245   0.25592365 
    8000   -650.65934    82.349867   -568.30947    2498.3776    129133.95    10.472245   0.28088027 
    8100   -652.80014    75.795719   -577.00442    2299.5341    125918.73    10.472245   0.21508707 
    8200   -653.27891    73.884937   -579.39397    2241.5637    123949.03    10.472245   0.17931939 
    8300    -645.5099    78.043439   -567.46646    2367.7268     135344.5    10.472245   0.24294134 
    8400   -649.19666    88.586063   -560.61059    2687.5749    134257.34    10.472245    0.2307584 
    8500   -654.39761     77.46093   -576.93668    2350.0542    125266.57    10.472245   0.19691736 
    8600   -654.35361    78.997926   -575.35569    2396.6845    124758.38    10.472245   0.18752891 
    8700   -649.40851    85.405673   -564.00284    2591.0864    132747.88    10.472245   0.20986401 
    8800   -654.30771    75.215096   -579.09261    2281.9188    123147.87    10.472245   0.23299423 
    8900   -647.95653    77.273877   -570.68265    2344.3793    132719.66    10.472245   0.25786038 
    9000   -645.50944    79.127119   -566.38232    2400.6041    135853.25    10.472245   0.24246443 
    9100   -647.93036    74.845467   -573.08489    2270.7048    131688.09    10.472245    0.2462557 
    9200   -652.94571    82.372081   -570.57363    2499.0516    125601.44    10.472245   0.21538638 
    9300    -645.8438    78.592394    -567.2514    2384.3813    135108.15    10.472245   0.25186651 
    9400   -655.35767    76.372159   -578.98551    2317.0225    124953.58    10.472245   0.24049198 
    9500   -650.93792    82.474774   -568.46315    2502.1671    128162.98    10.472245    0.2136419 
    9600   -641.61217    78.563765   -563.04841    2383.5127    140554.32    10.472245   0.28588462 
    9700   -649.67274    72.958598   -576.71414    2213.4599    128196.75    10.472245   0.21590713 
    9800   -652.54714    79.903087   -572.64406    2424.1458    127134.76    10.472245   0.22158469 
    9900   -648.08551    84.709638   -563.37587    2569.9697    135195.15    10.472245   0.27035295 
   10000   -650.48945    73.131989   -577.35746    2218.7203    126386.43    10.472245   0.24909915 
   10100   -654.81614    85.137113   -569.67903    2582.9387    125999.68    10.472245   0.23043862 
   10200   -646.00873    78.749834   -567.25889    2389.1578    135834.67    10.472245   0.30571228 
   10300   -651.74224    73.847175   -577.89506    2240.4181    128209.54    10.472245   0.24293829 
   10400   -652.88706    73.285618   -579.60144    2223.3812    124859.23    10.472245   0.21932084 
   10500   -650.85404    79.068539    -571.7855    2398.8268       129695    10.472245   0.25430922 
   10600   -649.68333     79.87503    -569.8083    2423.2946    129172.13    10.472245   0.25922685 
   10700   -657.78435     73.66089   -584.12346    2234.7665    118721.85    10.472245   0.20865116 
   10800   -651.37082    77.775852   -573.59497    2359.6085    129904.15    10.472245   0.19442353 
   10900     -649.823    77.163471   -572.65953    2341.0298    131178.45    10.472245   0.22163352 
   11000   -645.09455    76.250959   -568.84359    2313.3454    135824.28    10.472245   0.23521469 
   11100   -652.20368    77.498118   -574.70556    2351.1825     125550.6    10.472245   0.24598636 
   11200    -650.1942     72.36436   -577.82984    2195.4316    128898.43    10.472245   0.25784512 
   11300   -647.21926    82.937576   -564.28169    2516.2079    133326.61    10.472245   0.26107657 
   11400   -647.83353    74.306851   -573.52668     2254.364    131071.34    10.472245   0.30872964 
   11500   -644.14824    72.388709   -571.75953    2196.1703    136167.07    10.472245   0.27098451 
   11600   -645.43367     74.58079   -570.85288    2262.6749    134484.66    10.472245    0.2352945 
   11700   -649.19596    67.290748   -581.90521    2041.5054    128038.68    10.472245   0.28603447 
   11800   -649.11822    77.836929   -571.28129    2361.4615    129686.64    10.472245   0.25966645 
   11900   -646.03314    77.336838    -568.6963    2346.2895     134076.9    10.472245   0.29454478 
   12000   -646.22414    86.415794   -559.80835     2621.732    136115.03    10.472245   0.24138111 
   12100   -652.84271    77.630421   -575.21229    2355.1964    126980.31    10.472245   0.21506314 
   12200   -653.10547    79.365398   -573.74007    2407.8331    126878.07    10.472245   0.22681152 
   12300   -642.64142    80.050965   -562.59045    2428.6322    140130.37    10.472245   0.29334044 
   12400   -650.02529    70.437942   -579.58735    2136.9868    128807.11    10.472245   0.19183823 
   12500   -649.08958    73.559029   -575.53055    2231.6761     128137.5    10.472245   0.19802945 
   12600   -642.66878    76.805254   -565.86353     2330.162    138506.89    10.472245   0.29083365 
   12700   -634.83539    76.196051   -558.63934    2311.6796    148210.83    10.472245   0.41649609 
   12800   -644.68563     73.82676   -570.85887    2239.7987    134572.86    10.472245    0.2995884 
   12900   -660.05719    77.875861   -582.18133    2362.6427    115088.94    10.472245   0.23468721 
   13000   -654.77317    78.995452   -575.77772    2396.6094    122215.39    10.472245   0.21135115 
   13100   -642.05932    73.381949   -568.67737    2226.3038    137299.96    10.472245   0.26098498 
   13200   -646.72215    74.730351    -571.9918    2267.2124    133309.43    10.472245   0.24320257 
   13300   -654.86903     75.48927   -579.37976    2290.2369    121683.65    10.472245   0.19886808 
   13400   -646.62298    78.546471   -568.07651     2382.988     133584.7    10.472245   0.24344521 
   13500   -645.31836    77.032104   -568.28625    2337.0443    135680.57    10.472245   0.25683425 
   13600   -655.64057    73.605434   -582.03513     2233.084    120840.79    10.472245   0.21188756 
   13700   -652.97635    77.817147   -575.15921    2360.8614    125929.07    10.472245   0.21328068 
   13800   -646.83025    78.179983   -568.65027    2371.8693    132630.08    10.472245   0.23199611 
   13900   -656.22871    74.131621   -582.09709    2249.0477    120863.82    10.472245   0.18832854 
   14000   -648.13223    74.775892   -573.35634     2268.594    130506.49    10.472245    0.2129652 
   14100   -649.56654    78.766096   -570.80045    2389.6511    128551.65    10.472245   0.23252894 
   14200   -646.59943    66.252958   -580.34647    2010.0204    130810.43    10.472245   0.26104175 
   14300   -643.34158    78.280417   -565.06117    2374.9163    136685.45    10.472245   0.25313628 
   14400   -651.26769     79.15988   -572.10781     2401.598     127918.1    10.472245    0.2761385 
   14500   -652.65964    77.631271   -575.02837    2355.2221    125706.09    10.472245   0.21732401 
   14600   -647.63793     84.41205   -563.22588    2560.9413    135513.84    10.472245   0.19921713 
   14700   -653.38094    79.658314   -573.72262    2416.7197    124504.52    10.472245   0.23053817 
   14800   -648.32524    77.330414   -570.99482    2346.0946    131591.19    10.472245   0.23599835 
   14900   -648.48055    76.977765   -571.50279    2335.3957    132641.12    10.472245   0.21770443 
   15000   -649.08162    72.737948   -576.34368    2206.7657    127641.79    10.472245   0.24918135 
   15100   -654.29249    73.785527   -580.50697    2238.5478    123444.92    10.472245   0.25145464 
   15200   -645.30958    78.004193   -567.30539    2366.5361    136041.24    10.472245   0.24568622 
   15300   -656.32697    79.694119   -576.63285     2417.806    120851.94    10.472245    0.2028519 
   15400   -650.67254     71.19482   -579.47772    2159.9494    128228.55    10.472245   0.19742418 
   15500   -649.50389    76.845777   -572.65811    2331.3914    131201.23    10.472245   0.21812721 
   15600   -647.97824    82.686765   -565.29148    2508.5986     132285.5    10.472245   0.24067542 
   15700   -643.41538    77.940486    -565.4749    2364.6033    138316.15    10.472245   0.32395982 
   15800   -656.46646    78.205353   -578.26111     2372.639    122374.54    10.472245   0.21762492 
   15900   -650.57923    76.959094   -573.62013    2334.8292    129346.32    10.472245   0.20138446 
   16000   -650.03937    79.193848   -570.84553    2402.6285    130559.23    10.472245   0.24314266 
   16100   -649.21767    74.682806   -574.53486    2265.7699    130753.07    10.472245   0.20009293 
   16200   -657.07846    78.927271   -578.15118    2394.5409    119676.31    10.472245     0.209366 
   16300    -642.6637     79.01062   -563.65308    2397.0696    139792.17    10.472245   0.35107289 
   16400   -645.23349    72.183992    -573.0495    2189.9595    134412.29    10.472245   0.24546805 
   16500   -651.79989    77.095665   -574.70422    2338.9726    125702.61    10.472245   0.26464867 
   16600   -649.63669    80.730901   -568.90579    2449.2605    131608.61    10.472245   0.23840602 
   16700   -656.92767    75.460383   -581.46729    2289.3605    120239.99    10.472245    0.2619777 
   16800   -649.42998    85.937295   -563.49269    2607.2151    131987.36    10.472245   0.29779573 
   16900   -649.20305    74.659285   -574.54376    2265.0563    130209.17    10.472245   0.25545322 
   17000   -652.90521    76.100896   -576.80431    2308.7928    125269.61    10.472245   0.21859486 
   17100   -644.35546    82.397785   -561.95767    2499.8314    137284.26    10.472245   0.26330444 
   17200   -646.72188    75.825023   -570.89686    2300.4231     133701.6    10.472245    0.2512889 
   17300   -647.12383    71.732978   -575.39085    2176.2764    131377.04    10.472245    0.2411812 
   17400   -646.34256     77.40134   -568.94122    2348.2464     133276.3    10.472245   0.25442721 
   17500   -641.07118    78.856239   -562.21494    2392.3859    140934.68    10.472245   0.29193118 
   17600   -651.47601    76.759401   -574.71661    2328.7709    125041.28    10.472245   0.29160288 
   17700   -647.87294    78.245447   -569.62749    2373.8554     130960.8    10.472245   0.27869225 
   17800   -640.18757    81.461913   -558.72566    2471.4384    144029.13    10.472245   0.30214942 
   17900    -647.9517    75.307574   -572.64412    2284.7245    129759.23    10.472245   0.23913549 
   18000   -653.65122    79.647262   -574.00396    2416.3844    124772.53    10.472245   0.20107462 
   18100   -653.63855    80.261999   -573.37655    2435.0347    123678.54    10.472245   0.22003681 
   18200   -649.50076    75.551059    -573.9497    2292.1115    128344.07    10.472245   0.22072878 
   18300   -641.05224    74.418868   -566.63337    2257.7624    139711.97    10.472245   0.27527154 
   18400   -647.47912    85.662018    -561.8171    2598.8636    135339.82    10.472245   0.27098377 
   18500   -653.76964    77.281913   -576.48773    2344.6231    124642.32    10.472245   0.25340754 
   18600   -647.91702    77.863488   -570.05353    2362.2673    132104.21    10.472245   0.23296173 
   18700   -645.91599    79.395537   -566.52045    2408.7475    133201.37    10.472245   0.26651474 
   18800   -655.24797    79.590475    -575.6575    2414.6616     123120.2    10.472245   0.18942826 
   18900   -649.84734    76.871703   -572.97563     2332.178    130097.67    10.472245   0.22945046 
   19000   -647.89764    84.043427   -563.85422    2549.7578    133108.14    10.472245    0.2872814 
   19100   -639.50544    74.416541    -565.0889    2257.6918    141304.19    10.472245   0.29859299 
   19200   -653.16583    75.551094   -577.61474    2292.1126    124750.93    10.472245   0.24865471 
   19300   -645.93305    78.578458   -567.35459    2383.9585    136165.35    10.472245   0.24382339 
   19400   -645.50463    80.125928    -565.3787    2430.9065    138103.77    10.472245   0.22434949 
   19500   -650.00039    74.953809   -575.04658    2273.9918    127846.61    10.472245   0.25253058 
   19600   -649.56889    78.912303   -570.65659    2394.0868    129383.82    10.472245   0.24568106 
   19700   -643.69044    83.091856   -560.59858    2520.8885    138622.63    10.472245   0.31823952 
   19800   -643.98824    69.612985   -574.37526    2111.9588    135897.16    10.472245   0.27082343 
   19900   -649.71094    73.086595   -576.62434    2217.3432    127725.26    10.472245   0.22782745 
   20000    -646.3693    83.268611   -563.10069     2526.251     136618.8    10.472245   0.24475582 
   20100   -652.93658    82.219601   -570.71698    2494.4255    127590.23    10.472245   0.20960214 
   20200   -648.11225    77.154819   -570.95743    2340.7673    129372.98    10.472245   0.22146673 
   20300   -648.56552    75.345304   -573.22022    2285.8692    130182.74    10.472245   0.25471054 
   20400   -651.28399    75.752393    -575.5316    2298.2197    126619.25    10.472245   0.21578188 
   20500   -648.60467    76.604899   -571.99977    2324.0835    130101.97    10.472245   0.25918623 
   20600   -645.37095    81.982016   -563.38894    2487.2176    136693.11    10.472245   0.28524689 
   20700   -657.80247    78.888091   -578.91437    2393.3523    119877.94    10.472245   0.21342205 
   20800   -655.45159    83.265173   -572.18642    2526.1467    124460.96    10.472245   0.25456234 
   20900   -645.19797    78.513562    -566.6844    2381.9896    136338.18    10.472245   0.29618155 
   21000   -646.54934    76.602623   -569.94671    2324.0144    132440.82    10.472245   0.29374846 
   21100   -652.29005    79.782821   -572.50723    2420.4971    128161.49    10.472245   0.25401359 
   21200   -647.29719    74.962359   -572.33483    2274.2512    131275.33    10.472245   0.20874148 
   21300   -654.41527    75.144351   -579.27092    2279.7725    122827.12    10.472245   0.19213563 
   21400   -655.66236    82.192139   -573.47022    2493.5924    124566.63    10.472245   0.20564742 
   21500   -651.59247    82.915565    -568.6769    2515.5401     128602.8    10.472245   0.21989207 
   21600   -652.18866    75.445095   -576.74356    2288.8967    126298.32    10.472245   0.22014377 
   21700   -650.52521     76.65999   -573.86522    2325.7549    128794.23    10.472245   0.24706341 
   21800   -650.48346    76.482488   -574.00097    2320.3697    128757.84    10.472245   0.21191902 
   21900   -655.66093    81.085629    -574.5753    2460.0224    124762.28    10.472245   0.19994296 
   22000   -646.50582    69.048932   -577.45688    2094.8462    133212.38    10.472245   0.23145093 
   22100   -649.70476    82.442524   -567.26224    2501.1887    131194.88    10.472245    0.2308219 
   22200   -655.43888    80.475483    -574.9634    2441.5115     124144.9    10.472245   0.24263984 
   22300   -656.04352     77.43074   -578.61278    2349.1383    120238.27    10.472245   0.18094782 
   22400   -647.98314    81.714574   -566.26857    2479.1037     131424.5    10.472245   0.20725186 
   22500   -652.25159    71.610713   -580.64088     2172.567    127261.66    10.472245    0.2040674 
   22600   -653.92975    76.752449    -577.1773    2328.5599    122715.75    10.472245   0.20276188 
   22700   -646.09199    77.745066   -568.34693    2358.6745    133421.29    10.472245   0.25227413 
   22800   -652.99573     70.39017   -582.60556    2135.5375    123614.21    10.472245   0.23245268 
   22900   -657.95274    79.842232   -578.11051    2422.2995    121223.63    10.472245   0.19510872 
   23000   -650.84294    80.653743   -570.18919    2446.9197    128838.37    10.472245   0.22991176 
   23100   -652.20998    70.225266   -581.98471    2130.5345     125400.8    10.472245   0.24372283 
   23200   -651.75801    74.649035   -577.10897    2264.7453    127827.09    10.472245   0.21437092 
   23300   -648.73157    78.878346   -569.85322    2393.0566    131561.54    10.472245   0.23745671 
   23400   -652.77639    76.289863   -576.48653    2314.5257    126414.99    10.472245   0.23029096 
   23500   -651.37179    68.602963   -582.76883    2081.3162    127522.42    10.472245   0.22368485 
   23600   -651.84632    83.027587   -568.81873    2518.9387    126924.04    10.472245   0.22346058 
   23700   -646.25534    78.460775   -567.79456    2380.3881    134436.62    10.472245    0.2533179 
   23800   -656.70881    74.342505   -582.36631    2255.4457    119241.96    10.472245   0.16712911 
   23900   -652.41113    77.126036    -575.2851     2339.894     127638.6    10.472245   0.23003372 
   24000   -646.81858    79.302817   -567.51576    2405.9345    133262.88    10.472245   0.24961082 
   24100   -650.29322     74.21736   -576.07586     2251.649    127560.87    10.472245   0.28301627 
   24200    -646.0677    82.608042   -563.45966    2506.2103    136759.84    10.472245   0.27566301 
   24300   -642.07756    74.409524   -567.66803    2257.4789    137920.98    10.472245   0.29631128 
   24400   -653.46342    78.116184   -575.34724    2369.9337       122922    10.472245   0.21900595 
   24500   -650.51363    76.337983   -574.17565    2315.9856    128494.67    10.472245   0.23071653 
   24600   -643.94854    86.894522   -557.05402     2636.256    139724.12    10.472245   0.22254617 
   24700    -649.0533    82.190098    -566.8632    2493.5305    131443.25    10.472245   0.24873139 
   24800   -652.19401    77.631375   -574.56263    2355.2253    125914.92    10.472245   0.23008328 
   24900   -657.45042    75.794841   -581.65558    2299.5075    118274.82    10.472245   0.19927575 
   25000    -650.6455    77.593383   -573.05211    2354.0727    129658.52    10.472245   0.24038352 
   25100   -643.81604    75.856619   -567.95942    2301.3817    137213.68    10.472245   0.27737287 
   25200   -655.54642    74.287088   -581.25933    2253.7644    121025.58    10.472245   0.21643657 
   25300   -647.70401    74.286936   -573.41707    2253.7598    130684.43    10.472245   0.26827726 
   25400   -645.60947    76.063391   -569.54607    2307.6549    134205.37    10.472245   0.25256546 
   25500   -650.73363    72.494038   -578.23959    2199.3658    127274.69    10.472245   0.19686965 
   25600   -647.39268    74.684124   -572.70855    2265.8099    132088.79    10.472245   0.29193396 
   25700   -646.41259    75.790736   -570.62185     2299.383    132756.81    10.472245   0.23160001 
   25800   -650.26719    71.952611   -578.31458    2182.9397    127344.37    10.472245   0.26688458 
   25900   -649.07851    85.421895   -563.65662    2591.5786    132124.45    10.472245    0.2482997 
   26000   -645.92863    71.931758   -573.99688     2182.307    133754.94    10.472245   0.26986866 
   26100   -643.37832    70.878146   -572.50018     2150.342    137327.57    10.472245   0.26493678 
   26200   -642.68664    88.396329   -554.29031    2681.8187    141970.84    10.472245   0.35009886 
   26300   -646.14986    77.308255    -568.8416    2345.4223    132395.99    10.472245     0.284343 
   26400   -657.16389    80.132829   -577.03106    2431.1159    121245.86    10.472245   0.20273166 
   26500   -651.57672    78.789972   -572.78675    2390.3755    128391.43    10.472245   0.23176443 
   26600   -642.82115    74.998375   -567.82277    2275.3438    139172.98    10.472245    0.2670179 
   26700   -648.34742    70.628355   -577.71906    2142.7637    131443.75    10.472245   0.27582201 
   26800   -653.87671    77.804067   -576.07264    2360.4645    124396.21    10.472245   0.19619321 
   26900    -647.4474    77.174256   -570.27315     2341.357    131588.79    10.472245   0.28974324 
   27000    -647.4392    83.734656   -563.70454    2540.3901    131564.02    10.472245   0.20638512 
   27100   -648.28354    73.226447    -575.0571    2221.5861    132096.21    10.472245   0.22447732 
   27200   -652.33465    80.061723   -572.27293    2428.9586     127240.8    10.472245   0.23191016 
   27300   -647.36569    76.078464   -571.28723    2308.1122     132836.3    10.472245   0.25998153 
   27400   -650.59868    74.247551   -576.35113    2252.5649     127972.8    10.472245   0.24673046 
   27500    -647.9056    73.810387   -574.09522     2239.302    132504.24    10.472245   0.21783509 
   27600   -645.75446    82.118051   -563.63641    2491.3447    136751.11    10.472245   0.24297405 
   27700   -654.20351     75.55754   -578.64597    2292.3081    121185.83    10.472245   0.19470468 
   27800   -652.45342     79.17277   -573.28065     2401.989    125547.12    10.472245   0.25154204 
   27900    -650.7514    82.170099   -568.58131    2492.9237    128809.14    10.472245   0.24180261 
   28000   -651.45235    77.725464   -573.72688    2358.0798    127809.74    10.472245   0.22260929 
   28100   -648.37561    73.319954   -575.05565    2224.4229    129091.99    10.472245   0.23275294 
   28200   -650.86706     76.92898   -573.93808    2333.9157    130048.77    10.472245   0.24455256 
   28300    -649.1405    82.601444   -566.53905    2506.0101    131433.89    10.472245    0.2262334 
   28400   -645.23659    70.267577   -574.96901    2131.8182    132506.75    10.472245   0.24911723 
   28500   -655.86998    77.011514   -578.85846    2336.4196    123505.18    10.472245   0.20954159 
   28600   -645.06879    81.839618   -563.22918    2482.8974    135400.21    10.472245   0.26889225 
   28700   -645.85625    73.490886   -572.36536    2229.6088    134368.11    10.472245   0.25614698 
   28800   -654.21962    78.265887   -575.95373    2374.4755    123666.39    10.472245   0.24678888 
   28900   -647.80294    84.619595   -563.18334    2567.2379     134437.3    10.472245   0.21442822 
   29000   -649.89384    80.936287   -568.95755    2455.4916    128624.92    10.472245   0.23175762 
   29100    -653.6284      75.2256    -578.4028    2282.2375     124497.5    10.472245    0.2459028 
   29200   -647.13769    79.840209   -567.29748    2422.2382    134417.89    10.472245   0.24230809 
   29300   -648.63451    71.347767   -577.28674    2164.5896    129114.55    10.472245   0.22595843 
   29400   -654.61861    78.345017   -576.27359    2376.8762     123984.4    10.472245   0.20607536 
   29500   -644.86472    74.824313    -570.0404    2270.0631    135398.73    10.472245   0.23737657 
   29600   -656.44471    73.243646   -583.20107    2222.1079    121306.89    10.472245   0.21767558 
   29700   -648.96142    76.246305   -572.71511    2313.2043    130360.79    10.472245    0.2232364 
   29800   -646.22162    74.432789   -571.78883    2258.1848    135108.57    10.472245   0.25183044 
   29900   -650.32614    71.422675   -578.90347    2166.8622    128834.95    10.472245   0.24061745 
   30000   -654.12107    73.629733   -580.49134    2233.8212    123379.42    10.472245   0.21212779 
   30100   -647.89993    81.154479   -566.74545    2462.1113    134371.35    10.472245   0.27217046 
   30200   -650.72692     75.87545   -574.85147    2301.9531    125743.26    10.472245   0.24218051 
   30300   -655.39916    77.171393   -578.22777    2341.2701    121214.14    10.472245   0.19563765 
   30400   -649.64689    74.447389    -575.1995    2258.6277    130013.36    10.472245   0.24185904 
   30500   -648.40783    80.367342   -568.04049    2438.2306    131374.61    10.472245    0.2507767 
   30600   -641.15239    79.131585    -562.0208    2400.7395    140707.61    10.472245   0.25549313 
   30700   -648.78413    71.812276   -576.97185    2178.6821    129124.43    10.472245   0.22048398 
   30800   -648.18779    76.956564   -571.23123    2334.7525    131685.52    10.472245    0.2400508 
   30900    -646.4926    84.789214   -561.70338     2572.384    136034.58    10.472245    0.2772203 
   31000   -654.61713     75.89871   -578.71842    2302.6587    122302.61    10.472245   0.23453166 
   31100   -647.97948    79.370607   -568.60887    2407.9911    130276.33    10.472245   0.22787389 
   31200   -648.02165    77.878824   -570.14283    2362.7325    132011.96    10.472245    0.2642574 
   31300   -653.72716    73.031392   -580.69577    2215.6684    121280.73    10.472245   0.21974661 
   31400   -646.95924    71.150637    -575.8086     2158.609    131557.31    10.472245   0.26901016 
   31500   -647.70681    79.341341   -568.36547    2407.1032    132954.82    10.472245   0.26994018 
   31600    -649.6557    72.044954   -577.61075    2185.7412    127337.82    10.472245   0.22007729 
   31700   -656.92846    72.104958    -584.8235    2187.5617    120665.71    10.472245   0.21533328 
   31800   -647.51052     79.46261   -568.04791    2410.7824    132403.48    10.472245   0.23410323 
   31900    -650.6489    74.062449   -576.58646    2246.9492    128382.25    10.472245   0.20561018 
   32000    -655.6501    79.382905    -576.2672    2408.3642    122646.64    10.472245   0.18867286 
   32100   -640.29561     73.56073   -566.73488    2231.7277    141114.12    10.472245   0.26970027 
   32200   -649.17647    72.187539   -576.98893    2190.0671    128841.11    10.472245   0.23810872 
   32300   -648.75928    76.334227   -572.42506    2315.8717    133136.22    10.472245   0.21769833 
   32400   -655.92721    79.740295   -576.18692    2419.2069    122387.93    10.472245   0.20175991 
   32500   -653.24268    76.712084    -576.5306    2327.3353    124939.02    10.472245   0.22450945 
   32600   -644.59813    78.187094   -566.41104     2372.085    136405.08    10.472245   0.26009286 
   32700   -652.20287    76.309599   -575.89327    2315.1245    127944.37    10.472245   0.23977773 
   32800   -651.66493    75.335686   -576.32924    2285.5774    128310.84    10.472245   0.24409574 
   32900   -642.40272    77.492576   -564.91014    2351.0143    140497.05    10.472245   0.25673092 
   33000   -649.72525     73.88206   -575.84319    2241.4764       129164    10.472245   0.24042878 
   33100   -650.72708    77.705534   -573.02155    2357.4752    128651.07    10.472245   0.24845137 
   33200    -646.5683    78.479423   -568.08888    2380.9539    132012.86    10.472245   0.26810111 
   33300   -656.19828    77.280603   -578.91767    2344.5834    121786.62    10.472245   0.22098095 
   33400     -649.431    84.815974   -564.61503    2573.1958    132917.62    10.472245   0.23037803 
   33500    -646.8816    78.321375   -568.56022    2376.1589    134709.84    10.472245   0.25694191 
   33600   -650.03976    72.018928   -578.02083    2184.9517    128083.84    10.472245   0.24355098 
   33700   -644.26518    80.546471   -563.71871    2443.6652    136694.22    10.472245   0.26624563 
   33800   -644.04784    77.508836     -566.539    2351.5076    136603.84    10.472245   0.26146347 
   33900   -651.01557    76.034586   -574.98098     2306.781    127767.33    10.472245   0.24343013 
   34000   -654.95365    83.075004   -571.87865    2520.3773    123854.25    10.472245   0.21889087 
   34100   -643.59358    77.781192   -565.81239    2359.7706    138135.19    10.472245   0.24944836 
   34200   -650.45444    73.986659   -576.46778    2244.6498    127558.41    10.472245     0.230045 
   34300    -647.7651    71.166294   -576.59881     2159.084    130330.74    10.472245   0.21686307 
   34400   -644.42858    80.154224   -564.27436     2431.765    136960.67    10.472245   0.26670811 
   34500   -649.99353    76.320494   -573.67304    2315.4551    131574.91    10.472245   0.22692762 
   34600    -652.2243    76.301648   -575.92265    2314.8833    125705.25    10.472245   0.20937778 
   34700   -649.57505    85.052285   -564.52277    2580.3651    133111.65    10.472245   0.23129058 
   34800   -649.49451    76.757061   -572.73745    2328.6999     129165.1    10.472245   0.28009442 
   34900   -650.16037    73.914519   -576.24585    2242.4612    129373.37    10.472245   0.26499689 
   35000   -646.79154    82.821004   -563.97054    2512.6713    134599.15    10.472245   0.24073807 
   35100    -649.2957    73.309409   -575.98629     2224.103    129315.27    10.472245   0.26692137 
   35200   -649.57804    79.376844   -570.20119    2408.1804    129476.55    10.472245   0.26927657 
   35300   -647.57705    78.325788   -569.25126    2376.2928    132273.81    10.472245   0.23065697 
   35400   -654.84446    71.404374   -583.44009     2166.307    120505.25    10.472245   0.21780971 
   35500   -645.82365    75.166268   -570.65738    2280.4375    133751.49    10.472245   0.23582919 
   35600   -647.23524     77.40052   -569.83472    2348.2215    131794.15    10.472245   0.23415189 
   35700   -651.22884    70.342302   -580.88653    2134.0852    127617.84    10.472245   0.22728569 
   35800   -646.75119    76.795562   -569.95563    2329.8679    132843.63    10.472245   0.25057362 
   35900   -649.93754    77.013012   -572.92453     2336.465    129918.69    10.472245   0.22546212 
   36000   -656.23078    76.085741   -580.14504     2308.333    121920.77    10.472245   0.22788764 
   36100   -653.04711    71.267997   -581.77911    2162.1695    123576.78    10.472245   0.25581519 
   36200    -646.5382    78.522981   -568.01522    2382.2754    134371.03    10.472245   0.23875694 
   36300   -651.70507    78.144098   -573.56098    2370.7806     126919.7    10.472245   0.25297058 
   36400   -656.87473    74.102289   -582.77244    2248.1579    120358.76    10.472245   0.24481386 
   36500   -644.76155    77.438413   -567.32313    2349.3711    136689.55    10.472245   0.31072242 
   36600   -651.99163    79.400066   -572.59156    2408.8849    128804.07    10.472245   0.24081088 
   36700   -655.84114    75.632223   -580.20891    2294.5739    120203.13    10.472245    0.2021935 
   36800   -651.43809    76.397476   -575.04062    2317.7906    128219.03    10.472245   0.23989681 
   36900   -644.93766    79.031441   -565.90622    2397.7013    135967.01    10.472245   0.24344724 
   37000    -650.2376    69.665284   -580.57231    2113.5454     126101.7    10.472245   0.23148203 
   37100   -653.15594    77.959269   -575.19668    2365.1731    125922.02    10.472245   0.20218952 
   37200   -645.64384    78.268403   -567.37544    2374.5518    136322.08    10.472245   0.26104322 
   37300    -647.0538    77.571002    -569.4828    2353.3937    135368.53    10.472245   0.23290001 
   37400   -655.47541    73.928841   -581.54656    2242.8957    120454.87    10.472245   0.17500995 
   37500   -650.62604    78.421669   -572.20437    2379.2017    128656.68    10.472245   0.21508759 
   37600   -647.30133    78.499455   -568.80187    2381.5616    134827.25    10.472245    0.2823704 
   37700   -656.86641    77.049909    -579.8165    2337.5845    118835.62    10.472245   0.21156999 
   37800   -655.25092    76.479514    -578.7714    2320.2795    123719.87    10.472245   0.19944096 
   37900   -647.36324    76.598669   -570.76457    2323.8945    132444.03    10.472245   0.29035269 
   38000   -654.38398    83.009107   -571.37488     2518.378    124051.35    10.472245   0.23447993 
   38100   -657.11481    70.189732   -586.92508    2129.4565    117837.34    10.472245   0.20360642 
   38200   -661.04271    70.212545   -590.83016    2130.1486    111586.24    10.472245   0.18048462 
   38300   -646.79851    71.961367   -574.83714    2183.2053    132771.87    10.472245   0.23791057 
   38400   -645.64063    76.102485   -569.53815     2308.841    135778.54    10.472245   0.24889926 
   38500   -650.80058    70.536701   -580.26388     2139.983    125610.46    10.472245   0.20977859 
   38600    -655.5132    72.687447   -582.82575    2205.2336    120447.67    10.472245   0.20435307 
   38700   -647.17141     77.93501    -569.2364    2364.4371    132940.56    10.472245   0.21244966 
   38800   -653.22471    75.656434   -577.56828    2295.3084    125602.59    10.472245   0.23678032 
   38900   -657.27822    77.201661   -580.07656    2342.1884    121798.96    10.472245   0.17055039 
   39000   -649.34911    81.215886   -568.13323    2463.9743    131935.33    10.472245   0.21803464 
   39100   -649.93989    75.685026   -574.25487    2296.1758    128216.88    10.472245   0.27395197 
   39200   -653.01783    68.594696   -584.42313    2081.0653    122992.57    10.472245   0.21952776 
   39300   -642.99682    74.367796   -568.62903     2256.213    139047.68    10.472245   0.29028571 
   39400    -650.9021    79.344009   -571.55809    2407.1842    128838.54    10.472245   0.23158083 
   39500   -650.96265    73.784249   -577.17841     2238.509       128490    10.472245   0.27921729 
   39600   -650.99764    80.832411   -570.16523    2452.3402     128346.6    10.472245   0.21057303 
   39700   -650.73501    76.521095   -574.21391     2321.541    129858.33    10.472245   0.25190759 
   39800   -648.03415    80.796592   -567.23756    2451.2535    133591.56    10.472245   0.24308585 
   39900    -648.6939    78.118408   -570.57549    2370.0012    131939.87    10.472245   0.27275107 
   40000   -656.32642    75.303245   -581.02318    2284.5932    121283.38    10.472245   0.22517587 
   40100   -646.13008    81.504629   -564.62545    2472.7343    136199.07    10.472245    0.2568346 
   40200   -652.69497    78.787345   -573.90762    2390.2958    125285.29    10.472245   0.22446489 
   40300   -651.49413    78.088919   -573.40521    2369.1065    128456.19    10.472245   0.21060917 
   40400   -644.84915    89.418876   -555.43027    2712.8413    138989.57    10.472245   0.24995982 
   40500   -646.58595    80.455631   -566.13032    2440.9092    134635.45    10.472245   0.32526808 
   40600   -647.21843    73.957353   -573.26108    2243.7607    132318.03    10.472245   0.26346527 
   40700   -657.59766     72.56295   -585.03471    2201.4565    119265.65    10.472245    0.1930088 
   40800   -654.27157    71.496307   -582.77527    2169.0961     122063.5    10.472245   0.21456484 
   40900   -650.08975    78.271994   -571.81775    2374.6608    129732.15    10.472245   0.23563723 
   41000   -643.81748     80.01035   -563.80713       2427.4    136591.83    10.472245   0.24444697 
   41100   -654.54945    75.644038   -578.90541    2294.9323    123187.54    10.472245   0.17873386 
   41200   -653.33752    79.002232   -574.33529    2396.8152    123268.09    10.472245   0.18986945 
   41300   -641.45067    80.280061   -561.17061    2435.5827    141882.89    10.472245   0.26511782 
   41400   -651.10729    76.634869   -574.47242    2324.9927    129682.77    10.472245   0.24063907 
   41500   -650.88015    73.423195   -577.45696    2227.5551    128224.85    10.472245    0.2210498 
   41600   -648.75382    85.098065   -563.65575     2581.754    133409.91    10.472245   0.23945189 
   41700   -645.17042    76.053473   -569.11694     2307.354    135204.96    10.472245   0.29981009 
   41800   -650.53458     77.31459   -573.21999    2345.6145    129185.42    10.472245   0.21860105 
   41900    -657.4747    72.447505   -585.02719    2197.9541    117902.77    10.472245   0.23408483 
   42000   -646.73884    71.506015   -575.23282    2169.3906    129688.62    10.472245   0.23622377 
   42100   -649.07178     79.50863   -569.56315    2412.1786    130664.98    10.472245   0.24316929 
   42200    -643.1702    77.261183   -565.90902    2343.9942    140426.06    10.472245   0.24507536 
   42300   -651.63005    73.665916   -577.96413    2234.9189    126250.21    10.472245   0.19821953 
   42400   -645.84905    75.918069   -569.93099     2303.246    134693.66    10.472245   0.25173311 
   42500   -641.52168    76.317039   -565.20465    2315.3502     138458.3    10.472245   0.31219077 
   42600   -652.81215    74.705778   -578.10637    2266.4669    125155.13    10.472245   0.21809259 
   42700   -648.50183    72.617995   -575.88384    2203.1265    128999.76    10.472245   0.22952102 
   42800    -645.9582    82.305224   -563.65298    2497.0232    135162.36    10.472245   0.25175413 
   42900    -650.5873    76.307642   -574.27966    2315.0651    127360.84    10.472245    0.2514776 
   43000   -654.62606    79.974968   -574.65109    2426.3266    124612.04    10.472245    0.1950434 
   43100   -650.80279    83.584451   -567.21834    2535.8331    130480.17    10.472245   0.17788699 
   43200   -657.56833    80.542118   -577.02622    2443.5331    118340.09    10.472245   0.22743036 
   43300   -654.40537    77.130213   -577.27515    2340.0208    122676.95    10.472245   0.20752829 
   43400   -650.53251    85.984734   -564.54778    2608.6543    131118.18    10.472245   0.20301143 
   43500   -651.23144    74.232579   -576.99886    2252.1107    126305.02    10.472245    0.2118867 
   43600   -656.14071    82.074365   -574.06635    2490.0193    122408.39    10.472245   0.22242118 
   43700   -638.19655    72.591113   -565.60544    2202.3109    142362.93    10.472245    0.3228248 
   43800   -651.38827    76.421299   -574.96697    2318.5133    127465.52    10.472245   0.20566454 
   43900   -655.57735    74.007718   -581.56963    2245.2887    122905.45    10.472245   0.19494329 
   44000    -649.6899    76.742925   -572.94698     2328.271    130404.76    10.472245   0.26616555 
   44100   -642.95441    80.378589   -562.57582    2438.5719    139947.88    10.472245   0.26405595 
   44200   -648.32548    71.898482     -576.427    2181.2975    130279.17    10.472245   0.22711483 
   44300   -652.06345    78.154357   -573.90909    2371.0918    126073.54    10.472245   0.19918103 
   44400    -652.1098     86.69322   -565.41658    2630.1488    128450.42    10.472245   0.26752992 
   44500   -647.34412    79.576329   -567.76779    2414.2325    133275.28    10.472245   0.26217384 
   44600   -648.62965     73.48863   -575.14102    2229.5403    130996.04    10.472245   0.23602062 
   44700   -648.36138    77.954977    -570.4064    2365.0429    132374.93    10.472245   0.22763603 
   44800   -645.82308    79.747269   -566.07581    2419.4185     137402.6    10.472245    0.2419995 
   44900   -656.27375    80.215444    -576.0583    2433.6223    121679.81    10.472245   0.20696168 
   45000    -646.6864    79.443407   -567.24299    2410.1998    135432.48    10.472245   0.27927733 
   45100   -641.10492    77.687624   -563.41729    2356.9318    139890.89    10.472245   0.29689071 
   45200   -651.83148    74.946393   -576.88509    2273.7668       126560    10.472245   0.22045059 
   45300   -642.69066    75.539095   -567.15156    2291.7485     138765.1    10.472245   0.29394957 
   45400   -643.61054     76.67725   -566.93329    2326.2785    137019.16    10.472245   0.32896696 
   45500   -652.39303    69.389372   -583.00366    2105.1747    124316.05    10.472245   0.23733044 
   45600   -652.72301    75.670583   -577.05242    2295.7377    124363.99    10.472245   0.25025082 
   45700   -649.05519    77.851855   -571.20334    2361.9143    130745.16    10.472245   0.26860101 
   45800   -650.40485    77.848824   -572.55603    2361.8224    127177.13    10.472245   0.28322349 
   45900   -655.60902    80.924826    -574.6842    2455.1439    122992.72    10.472245   0.21317236 
   46000   -649.61729    70.071011   -579.54628    2125.8546     127673.6    10.472245   0.24387382 
   46100   -645.26544    78.410138    -566.8553    2378.8519     134258.5    10.472245   0.24235179 
   46200   -652.36198    74.862131   -577.49985    2271.2104    126369.54    10.472245   0.21030186 
   46300   -647.19384    70.673378   -576.52046    2144.1296    134314.06    10.472245   0.24687727 
   46400   -644.88182    73.374006   -571.50782    2226.0628     133259.3    10.472245   0.26612354 
   46500   -653.92808    75.530924   -578.39715    2291.5006    124223.98    10.472245   0.21336281 
   46600   -655.37882    76.707364   -578.67146    2327.1921     122631.1    10.472245   0.21544339 
   46700   -647.09582     76.47677   -570.61905    2320.1962    132531.98    10.472245    0.2284374 
   46800    -654.1178     74.26765   -579.85015    2253.1747    124644.38    10.472245   0.23706785 
   46900   -650.99139    72.619968   -578.37142    2203.1864    128349.73    10.472245   0.22600835 
   47000   -654.42701    83.755832   -570.67118    2541.0326    125766.31    10.472245   0.21351934 
   47100   -652.98551    75.600104   -577.38541    2293.5994    125992.18    10.472245   0.23329701 
   47200   -657.62483    68.650345   -588.97448    2082.7537    118170.11    10.472245   0.21997531 
   47300   -651.97241    77.836147   -574.13627    2361.4378    126508.04    10.472245   0.24555233 
   47400   -651.56742    81.718995   -569.84843    2479.2379    127785.83    10.472245   0.22231957 
   47500   -657.62888    73.934005   -583.69488    2243.0524    120202.38    10.472245   0.19272602 
   47600   -651.70951    76.642518     -575.067    2325.2248    127028.18    10.472245   0.22563499 
   47700   -651.52157    80.727821   -570.79375    2449.1671    128652.42    10.472245   0.21339561 
   47800   -651.04406    74.212066   -576.83199    2251.4883     126896.8    10.472245   0.21532099 
   47900   -657.24431    73.189036   -584.05528    2220.4511    119103.35    10.472245   0.19107314 
   48000   -650.31115    79.607792   -570.70336     2415.187    128674.66    10.472245   0.23494665 
   48100   -649.23543    74.294262   -574.94117     2253.982    129260.26    10.472245   0.25310016 
   48200   -654.39508    68.807767   -585.58731    2087.5296    121145.77    10.472245   0.20778862 
   48300   -650.04856    77.792818   -572.25575    2360.1233    129758.82    10.472245   0.20013483 
   48400   -651.84872    80.382117   -571.46661    2438.6789    126917.67    10.472245   0.23833939 
   48500   -653.35619    72.273374   -581.08282    2192.6712    122488.14    10.472245   0.22256174 
   48600   -654.33408    81.981197   -572.35288    2487.1927    126117.81    10.472245   0.19036126 
   48700   -644.19497    74.167715   -570.02725    2250.1428    134874.13    10.472245   0.24363959 
   48800   -652.02179    71.683482   -580.33831    2174.7747    125848.68    10.472245   0.22291349 
   48900   -655.54359     76.95769    -578.5859    2334.7867    121070.88    10.472245   0.19840568 
   49000   -649.21437    79.664406   -569.54997    2416.9046    128732.93    10.472245   0.28390701 
   49100   -651.24853    82.683505   -568.56503    2508.4997    129686.21    10.472245   0.24346263 
   49200   -654.36826    74.188316   -580.17995    2250.7678    123482.45    10.472245   0.20086453 
   49300   -646.06637    73.325915   -572.74045    2224.6038    135015.68    10.472245   0.19937202 
   49400   -656.09896    81.605746   -574.49321    2475.8021    121539.18    10.472245   0.18379612 
   49500   -653.63883    70.860404   -582.77842    2149.8037    124226.45    10.472245   0.22376295 
   49600   -647.45311    77.080297   -570.37281    2338.5064    133508.91    10.472245   0.24538522 
   49700   -650.87333    77.824641   -573.04869    2361.0887    129251.18    10.472245   0.21655269 
   49800    -653.2062    68.803105   -584.40309    2087.3882     123264.8    10.472245   0.23244094 
   49900   -650.25449    76.517315   -573.73718    2321.4263     130403.4    10.472245   0.21502808 
   50000   -648.89612    78.927485   -569.96864    2394.5474    130723.74    10.472245   0.22673633 
   50100   -648.97372      82.0634   -566.91032    2489.6866    132251.88    10.472245   0.22615092 
   50200   -655.13185    76.438991   -578.69286    2319.0501    122549.31    10.472245   0.24139987 
   50300   -643.51295    75.322626   -568.19032    2285.1812    138256.53    10.472245   0.29252257 
   50400    -647.3851    82.984573   -564.40053    2517.6337    134067.72    10.472245   0.24457736 
   50500   -646.52542    74.374254   -572.15117    2256.4089    132809.58    10.472245    0.2556991 
   50600   -655.84126    74.647171   -581.19409    2264.6888    120172.46    10.472245   0.20923261 
   50700   -651.00809    69.909266   -581.09882    2120.9475    126008.81    10.472245   0.20985924 
   50800   -649.45554    82.288742    -567.1668    2496.5232    132996.22    10.472245   0.29157203 
   50900   -648.04262    83.380426   -564.66219    2529.6433    135524.64    10.472245   0.25154787 
   51000     -648.274     69.93053   -578.34347    2121.5927    129060.23    10.472245   0.27189386 
   51100   -647.31445    77.691592   -569.62286    2357.0522    133037.24    10.472245   0.24700694 
   51200   -648.44035    82.798782   -565.64157    2511.9971    131809.88    10.472245   0.22749027 
   51300   -654.23445    75.467737   -578.76672    2289.5836    124483.66    10.472245    0.2303115 
   51400   -644.45824    77.645985   -566.81226    2355.6685    135517.97    10.472245   0.28026062 
   51500   -644.92753    74.826445   -570.10109    2270.1277     135643.3    10.472245    0.2276135 
   51600   -653.59238    75.970715   -577.62167    2304.8433    125128.94    10.472245   0.20722245 
   51700    -643.8722    74.748571   -569.12363    2267.7651     135593.8    10.472245   0.27057122 
   51800   -642.01459    74.510167   -567.50442    2260.5323    138881.25    10.472245   0.29345363 
   51900   -653.00588    72.345378   -580.66051    2194.8557    124367.42    10.472245   0.26296297 
   52000    -649.8126    79.938649   -569.87395    2425.2247    132358.42    10.472245    0.2225835 
   52100   -649.02139    75.880527   -573.14086    2302.1071    131000.06    10.472245    0.2458755 
   52200   -657.65257    70.179302   -587.47327      2129.14    117271.23    10.472245   0.17637692 
   52300   -651.64235     75.98152   -575.66083    2305.1711    128402.67    10.472245   0.21097039 
   52400    -646.1023    76.592159   -569.51014     2323.697    133642.95    10.472245   0.21602288 
   52500   -655.76347    72.699228   -583.06424     2205.591    122029.48    10.472245   0.20598836 
   52600   -652.43095    74.565614   -577.86534    2262.2145    125262.11    10.472245   0.22875629 
   52700   -646.62708    75.238389   -571.38869    2282.6255       134000    10.472245   0.26984406 
   52800   -647.03674    79.351422   -567.68532    2407.4091    134539.19    10.472245   0.19237222 
   52900   -649.73325    68.641301   -581.09195    2082.4793    127602.08    10.472245   0.23946884 
   53000   -648.61373    80.035119   -568.57861    2428.1515    131453.15    10.472245   0.29280622 
   53100    -646.0526     75.12716   -570.92544     2279.251    133165.14    10.472245   0.29238767 
   53200   -653.18502    81.130887   -572.05413    2461.3955       125120    10.472245   0.20994988 
   53300   -656.70067    76.872057   -579.82862    2332.1887    120836.32    10.472245   0.18993239 
   53400    -648.1103    78.390213   -569.72009    2378.2474    130781.09    10.472245   0.23308268 
   53500   -650.20175    81.078412   -569.12334    2459.8035    129152.74    10.472245   0.24306723 
   53600    -652.4469    75.919246   -576.52766    2303.2817    127107.64    10.472245    0.2198712 
   53700   -648.65248     76.89306   -571.75942    2332.8259    131092.23    10.472245   0.29406702 
   53800   -643.08404    80.082659   -563.00138    2429.5938    138122.38    10.472245   0.30482445 
   53900   -647.14277    75.362582   -571.78019    2286.3934    132276.85    10.472245   0.24147535 
   54000    -648.9345    71.994861   -576.93964    2184.2215    128631.06    10.472245   0.22157135 
   54100   -656.91153    72.576026    -584.3355    2201.8532    119546.41    10.472245   0.17748128 
   54200   -648.50843    77.954719   -570.55372    2365.0351    132985.45    10.472245   0.23665446 
   54300   -649.14096    81.431686   -567.70927    2470.5213    132583.03    10.472245   0.27160746 
   54400   -652.79098    71.190105   -581.60087    2159.8064     126027.7    10.472245   0.25655559 
   54500   -650.89957    78.918002   -571.98156    2394.2597    127580.74    10.472245   0.23149472 
   54600   -646.78309    75.909259   -570.87383    2302.9788    133709.27    10.472245   0.24782271 
   54700   -648.81107    69.135936   -579.67514    2097.4858    128409.93    10.472245   0.26719084 
   54800   -654.49674    69.418109   -585.07863    2106.0465    119795.15    10.472245   0.23098942 
   54900   -648.84512    77.218223    -571.6269    2342.6909    131204.47    10.472245   0.26824079 
   55000   -646.24795    76.687417   -569.56053     2326.587       133493    10.472245     0.225395 
   55100   -652.10936    71.719218   -580.39014    2175.8589    124592.99    10.472245    0.2181677 
   55200    -649.0902    74.017518   -575.07268     2245.586    130380.57    10.472245   0.23123638 
   55300   -651.90217    78.736994   -573.16518    2388.7682    126301.43    10.472245   0.23598548 
   55400   -652.19146    75.629575   -576.56189    2294.4935       126557    10.472245   0.25211457 
   55500   -657.57389     82.00209    -575.5718    2487.8266    120592.45    10.472245   0.18480292 
   55600   -646.52272    81.490548   -565.03217    2472.3071    135266.05    10.472245   0.25882293 
   55700    -642.9353    75.499439   -567.43586    2290.5454    138909.81    10.472245   0.30715857 
   55800    -655.1269    76.010077   -579.11682    2306.0374    122107.92    10.472245   0.19854576 
   55900   -648.00991    80.011434   -567.99848    2427.4329    131059.88    10.472245   0.24331063 
   56000   -648.58137    82.444225   -566.13715    2501.2403    130360.36    10.472245   0.27546688 
   56100   -650.98128    72.298206   -578.68308    2193.4246    126830.62    10.472245   0.20276941 
   56200   -656.15118    73.512857   -582.63832    2230.2753    120043.15    10.472245   0.18974146 
   56300   -650.79808    79.050673    -571.7474    2398.2848    129427.64    10.472245   0.23717449 
   56400   -650.02742    77.971839   -572.05558    2365.5545    130870.43    10.472245   0.24861631 
   56500   -653.32958    74.082681    -579.2469     2247.563    123851.31    10.472245   0.21030114 
   56600   -649.68806    84.733144   -564.95492    2570.6829    130625.95    10.472245   0.24141515 
   56700   -654.23154    78.163174   -576.06837    2371.3593    124650.08    10.472245   0.21035646 
   56800   -648.71771    72.655657   -576.06205    2204.2691    129083.05    10.472245   0.29185494 
   56900   -644.53266    72.896835   -571.63582    2211.5861    136699.69    10.472245   0.23669783 
   57000   -652.55156    77.719107   -574.83246     2357.887    128522.68    10.472245   0.20811955 
   57100   -657.90669     76.98357   -580.92312    2335.5718    119982.93    10.472245   0.20852179 
   57200   -644.55155    76.861802   -567.68975    2331.8776    136246.63    10.472245     0.257329 
   57300   -648.42181    74.368807     -574.053    2256.2436    129771.14    10.472245   0.22248163 
   57400   -653.21926    70.755167   -582.46409     2146.611    122992.54    10.472245   0.21494474 
   57500   -653.49881     74.65226   -578.84655    2264.8432    124271.52    10.472245   0.21474575 
   57600   -648.10119    77.806985    -570.2942    2360.5531    132125.13    10.472245   0.20266859 
   57700   -653.00446    73.851555   -579.15291    2240.5509    125272.55    10.472245   0.19481611 
   57800   -653.59653    71.969959   -581.62657     2183.466    123364.51    10.472245   0.19326488 
   57900   -646.45999    77.636129   -568.82387    2355.3695    133498.99    10.472245   0.22627551 
   58000   -652.08613    74.439759   -577.64637    2258.3962    126138.74    10.472245   0.20549759 
   58100   -653.82092    78.468124   -575.35279    2380.6111    124602.17    10.472245    0.2180728 
   58200   -649.70751    83.762457   -565.94505    2541.2336    131279.62    10.472245   0.25082582 
   58300   -652.92657      75.1187   -577.80787    2278.9943    122883.72    10.472245   0.21028105 
   58400   -648.00944    72.361998   -575.64744    2195.3599     129482.9    10.472245   0.23146307 
   58500   -651.31161    81.511342   -569.80027     2472.938    129361.86    10.472245   0.25070427 
   58600   -641.69523    84.374568   -557.32066    2559.8042    141822.06    10.472245   0.23783536 
   58700   -654.50429    82.676181   -571.82811    2508.2775    125866.65    10.472245   0.19087729 
   58800   -648.92581    70.331167   -578.59464    2133.7474    128849.82    10.472245   0.22805903 
   58900   -644.72726    79.331615   -565.39565    2406.8082    138581.01    10.472245   0.26166091 
   59000   -647.28818    76.462477   -570.82571    2319.7626    131418.39    10.472245   0.29632655 
   59100    -651.1854    79.319108   -571.86629    2406.4287    126730.72    10.472245   0.23682015 
   59200    -654.6566    77.660152   -576.99645    2356.0984    123220.41    10.472245   0.19820997 
   59300    -661.2245    79.615753   -581.60874    2415.4285    114902.32    10.472245   0.18721508 
   59400   -651.55344    82.598762   -568.95468    2505.9288    128387.75    10.472245   0.26353377 
   59500    -649.8669    81.374691    -568.4922    2468.7922    129518.49    10.472245   0.21632499 
   59600   -654.07134    71.204457   -582.86688    2160.2418    123007.65    10.472245   0.23040086 
   59700   -649.42112    76.358891   -573.06223      2316.62    129493.03    10.472245   0.25563058 
   59800   -645.70618    75.422243   -570.28394    2288.2034    134710.47    10.472245   0.23644614 
   59900   -655.46901    68.764121   -586.70489    2086.2054    118893.17    10.472245   0.19783084 
   60000   -655.91906    78.045373   -577.87368    2367.7854    121911.32    10.472245   0.22025582 
   60100   -644.06756    74.848965   -569.21859     2270.811    137356.26    10.472245   0.24153588 
   60200   -651.52249    74.159883    -577.3626    2249.9052    127840.94    10.472245   0.25629197 
   60300   -656.96759    78.104142   -578.86345    2369.5684    119811.94    10.472245   0.19481688 
   60400   -649.07563    81.429847   -567.64578    2470.4655    133198.74    10.472245   0.21153592 
   60500   -652.99509    75.091858   -577.90323      2278.18    124192.19    10.472245    0.2180427 
   60600   -647.77345    82.137175   -565.63628    2491.9249     132115.8    10.472245   0.21665727 
   60700   -645.76192    77.314787   -568.44713    2345.6205    136517.98    10.472245   0.23094461 
   60800   -651.25453    76.099355   -575.15517     2308.746     126553.4    10.472245   0.24472906 
   60900   -645.80523    72.099394   -573.70583    2187.3929    133043.02    10.472245   0.23598258 
   61000   -641.00822    79.817996   -561.19023    2421.5643    142220.35    10.472245    0.2452654 
   61100   -650.46781    75.919368   -574.54844    2303.2855    128176.15    10.472245   0.21609333 
   61200   -651.43733    75.083183   -576.35414    2277.9168    127355.88    10.472245     0.225075 
   61300   -647.65515    85.245137   -562.41001     2586.216    136478.51    10.472245   0.28669725 
   61400   -649.54743    76.837641   -572.70979    2331.1445    130455.55    10.472245   0.27305201 
   61500   -652.33204    76.871875   -575.46016    2332.1832    126783.94    10.472245   0.20821808 
   61600   -642.60367    78.331286   -564.27239    2376.4596    139267.83    10.472245   0.28564805 
   61700   -644.36727    79.253207   -565.11406    2404.4294    135851.28    10.472245    0.2541575 
   61800   -647.12029    75.493402   -571.62689    2290.3623    132863.05    10.472245   0.21061084 
   61900   -652.94253    72.559493   -580.38304    2201.3516     124500.8    10.472245   0.21194352 
   62000   -643.59128    79.469874    -564.1214    2411.0027    137935.93    10.472245   0.24361473 
   62100   -649.73349    76.288114   -573.44537    2314.4727    130181.62    10.472245   0.20974454 
   62200    -653.9012     76.68863   -577.21257    2326.6238    123339.02    10.472245   0.21809991 
   62300   -644.66038    82.386618   -562.27377    2499.4926    137315.49    10.472245    0.2426609 
   62400   -642.56184    82.244231   -560.31761    2495.1728     142785.3    10.472245   0.30125665 
   62500   -649.30429    74.252876   -575.05142    2252.7264     129512.1    10.472245   0.24958676 
   62600   -649.75846    75.819138   -573.93932    2300.2446    130177.08    10.472245   0.23982118 
   62700   -644.64478    81.095592   -563.54919    2460.3247    137881.52    10.472245   0.24509538 
   62800   -654.93905    76.219982   -578.71907    2312.4057    123815.05    10.472245   0.21306303 
   62900   -646.08952    70.944834   -575.14469    2152.3652    132529.66    10.472245   0.28221229 
   63000   -642.68305    75.956245   -566.72681    2304.4043    137533.95    10.472245   0.33475168 
   63100   -647.96696    76.821147   -571.14581    2330.6442     134004.2    10.472245   0.24897122 
   63200    -660.1565    79.066182   -581.09032    2398.7553    117903.39    10.472245   0.19036299 
   63300   -653.26546    81.926558   -571.33891     2485.535    125644.47    10.472245   0.24666748 
   63400    -645.4355    73.213669   -572.22183    2221.1984    134012.77    10.472245    0.2370681 
   63500    -654.4947    72.012106   -582.48259    2184.7447    121134.25    10.472245   0.19468607 
   63600   -645.37145    70.399679   -574.97177     2135.826    133488.08    10.472245   0.24015412 
   63700   -646.84733    76.060607   -570.78672    2307.5704       132558    10.472245   0.22631677 
   63800   -650.61527    71.582933   -579.03234    2171.7242    126558.02    10.472245   0.18655615 
   63900   -654.54437    73.005826   -581.53854    2214.8927    122508.99    10.472245   0.21976225 
   64000   -642.68592    72.957749   -569.72817    2213.4341    137979.99    10.472245   0.24108392 
   64100   -646.21623    69.756506   -576.45973     2116.313    131710.94    10.472245   0.24520487 
   64200   -655.41327    70.886619   -584.52665     2150.599     121819.1    10.472245   0.25215307 
   64300   -645.70273    76.180042   -569.52269    2311.1939    133363.28    10.472245   0.28828806 
   64400   -652.28911    83.389228   -568.89988    2529.9104    127759.95    10.472245   0.19824445 
   64500   -656.69643    78.179564   -578.51687    2371.8566    122059.33    10.472245   0.25323747 
   64600   -645.53293    75.974963   -569.55797    2304.9721    135908.54    10.472245   0.27507707 
   64700   -650.57051    79.334712    -571.2358    2406.9021    129842.22    10.472245   0.23836905 
   64800    -653.4609    81.544792   -571.91611    2473.9528    124700.78    10.472245   0.22025046 
   64900   -650.34269    72.376864   -577.96583    2195.8109    128094.37    10.472245   0.23945971 
   65000   -653.96596    67.684848   -586.28111    2053.4618     121961.8    10.472245      0.23633 
   65100   -654.39669    83.069498   -571.32719    2520.2102    124935.92    10.472245   0.21056574 
   65200   -645.49409    77.641395   -567.85269    2355.5293    133173.35    10.472245   0.22981597 
   65300   -653.55114    75.495111   -578.05603    2290.4141    123651.44    10.472245   0.26770692 
   65400   -648.37562    72.047248   -576.32837    2185.8109    130906.45    10.472245   0.22725842 
   65500   -651.75592    85.513338   -566.24258    2594.3528    129697.14    10.472245   0.21620871 
   65600   -652.92133     74.61184   -578.30949    2263.6169    125010.93    10.472245   0.22627408 
   65700   -651.78054    78.608413   -573.17213    2384.8672    127063.56    10.472245   0.21882235 
   65800   -647.40336    86.619626   -560.78374     2627.916    134275.74    10.472245   0.23691008 
   65900   -648.80817    81.528168      -567.28    2473.4484    131631.64    10.472245    0.2105938 
   66000   -650.86067    74.134979   -576.72569    2249.1496    128222.01    10.472245   0.23626674 
   66100   -652.51491    81.542425   -570.97248     2473.881    127030.59    10.472245   0.22462415 
   66200   -648.24623    79.319393   -568.92684    2406.4374    131711.46    10.472245   0.23766479 
   66300    -655.8275    74.093634   -581.73387    2247.8953    120718.46    10.472245   0.24160847 
   66400   -648.30292    79.226819    -569.0761    2403.6288    131803.99    10.472245   0.23602561 
   66500   -647.51194    73.461724   -574.05021     2228.724    133722.49    10.472245   0.25154611 
   66600   -659.89642    75.202395   -584.69402    2281.5335    115639.78    10.472245   0.20845188 
   66700   -648.54171    73.645846   -574.89587      2234.31    131725.04    10.472245   0.27247693 
   66800   -645.39523    80.035843   -565.35939    2428.1734    135960.36    10.472245   0.25363916 
   66900   -646.86617    72.863455   -574.00272    2210.5734    131795.76    10.472245   0.28835522 
   67000   -660.10446    72.066725   -588.03774    2186.4018    113397.24    10.472245   0.21600714 
   67100   -641.44798    64.985716   -576.46226     1971.574    136910.05    10.472245   0.27970467 
   67200   -649.21898     80.97135   -568.24763    2456.5554    131108.16    10.472245   0.20316004 
   67300   -660.94374    78.384128   -582.55962    2378.0628    116156.66    10.472245   0.21032144 
   67400   -651.50954    72.867609   -578.64193    2210.6994    125940.63    10.472245   0.23559372 
   67500    -645.2116     75.70886   -569.50274    2296.8989    133352.08    10.472245   0.23957253 
   67600   -654.15407    74.055973   -580.09809    2246.7527    122797.74    10.472245   0.22790537 
   67700   -654.79093    74.949285   -579.84164    2273.8545    122627.86    10.472245   0.18586132 
   67800   -648.73334    76.956302   -571.77704    2334.7446    132061.48    10.472245   0.24331864 
   67900   -645.60684    70.400669   -575.20617     2135.856    134082.63    10.472245   0.28271431 
   68000   -650.34197    83.760592   -566.58137     2541.177    129454.22    10.472245   0.30315336 
   68100   -650.34461    80.548728   -569.79588    2443.7336    130015.17    10.472245   0.28244431 
   68200   -648.49349    75.297274   -573.19621     2284.412    129607.96    10.472245   0.21373349 
   68300   -653.34333    72.660835   -580.68249    2204.4262    126064.25    10.472245   0.20401934 
   68400   -650.68645    69.150097   -581.53635    2097.9154    125746.36    10.472245   0.20488631 
   68500    -648.8749    77.374814   -571.50009    2347.4416       132003    10.472245   0.20008022 
   68600   -657.80572    79.538145   -578.26758     2413.074    118362.95    10.472245   0.18423109 
   68700   -651.71354    69.832436    -581.8811    2118.6166    126070.65    10.472245   0.23892681 
   68800   -649.35953    76.865572   -572.49395    2331.9919    130695.42    10.472245   0.25817965 
   68900   -653.98996    86.612624   -567.37734    2627.7036    126423.33    10.472245    0.2147261 
   69000   -650.55736    70.766527   -579.79083    2146.9556    126812.31    10.472245   0.23987586 
   69100   -641.53803    70.382647   -571.15538    2135.3092    136288.36    10.472245   0.29392923 
   69200   -641.54386    77.687559    -563.8563    2356.9299    140602.33    10.472245   0.37651093 
   69300   -638.37008    74.214407   -564.15567    2251.5594    144015.02    10.472245   0.27470686 
   69400   -654.60027     76.24241   -578.35786    2313.0861    123630.02    10.472245   0.21566251 
   69500   -650.23535    77.795233   -572.44012    2360.1965    128933.29    10.472245   0.24329385 
   69600   -644.36057    78.317155   -566.04341    2376.0309    136721.61    10.472245   0.26741069 
   69700   -655.16025    82.198045   -572.96221    2493.7716    124673.63    10.472245   0.20798099 
   69800   -655.54599    71.760032   -583.78596    2177.0971    121792.57    10.472245   0.18793981 
   69900   -655.35832    72.116041   -583.24227    2187.8979    120495.69    10.472245   0.18992192 
   70000   -650.15042    78.708012   -571.44241    2387.8889    128861.83    10.472245   0.27509746 
   70100    -648.8189     79.96784   -568.85106    2426.1103    129800.19    10.472245   0.21447375 
   70200   -656.38466    75.844861    -580.5398     2301.025    119042.11    10.472245   0.22802907 
   70300   -650.85598    79.826498   -571.02948    2421.8222    129711.56    10.472245   0.25466247 
   70400   -648.41103    79.175942   -569.23509    2402.0853    131663.41    10.472245   0.29444335 
   70500   -658.67339    78.117008   -580.55638    2369.9587    117307.12    10.472245   0.21299478 
   70600   -650.54258    82.012069   -568.53052    2488.1293    129910.47    10.472245   0.22884586 
   70700   -647.78602    75.544133   -572.24188    2291.9014     134484.8    10.472245   0.26729396 
   70800   -652.45428    70.613613   -581.84066    2142.3164    124915.67    10.472245   0.28275195 
   70900   -647.90191    79.507612    -568.3943    2412.1477    133520.77    10.472245    0.2548689 
   71000   -652.84085    82.092208   -570.74864    2490.5606    126727.63    10.472245   0.21305404 
   71100   -656.23238    79.020232   -577.21215    2397.3612     121359.6    10.472245   0.22728908 
   71200   -646.75147    75.274423   -571.47705    2283.7187    133037.86    10.472245   0.29072033 
   71300    -647.3483    85.086788   -562.26152    2581.4119    135986.15    10.472245   0.23598718 
   71400     -652.404    73.618998     -578.785    2233.4955     124683.5    10.472245    0.1855973 
   71500   -649.19788    74.711606   -574.48627    2266.6437    129407.27    10.472245   0.21640289 
   71600    -642.4924    73.235115   -569.25729     2221.849    137723.88    10.472245   0.25328125 
   71700   -648.19277    74.926032   -573.26674     2273.149    131940.32    10.472245   0.27253266 
   71800   -649.76261    77.055717    -572.7069    2337.7607    129431.33    10.472245   0.25780029 
   71900   -649.78163     78.74404   -571.03759     2388.982    129731.75    10.472245   0.21489081 
   72000   -648.26791    75.432641   -572.83527    2288.5188    130464.21    10.472245   0.22107443 
   72100   -653.54325    78.924488   -574.61876    2394.4565    125094.72    10.472245   0.21431745 
   72200   -649.20242    65.000033   -584.20239    1972.0084    128012.86    10.472245   0.23826585 
   72300   -650.07066    76.029303   -574.04135    2306.6207    128635.98    10.472245   0.21956697 
   72400   -646.20906    77.340681   -568.86838    2346.4061    132741.86    10.472245   0.30799449 
   72500   -651.47893    80.537179   -570.94175    2443.3833    127841.64    10.472245   0.29471119 
   72600   -654.65556    76.528277   -578.12729    2321.7589    123632.02    10.472245   0.22065259 
   72700    -642.1345    78.706017   -563.42849    2387.8284    141840.29    10.472245   0.27497193 
   72800   -644.71163    71.707565   -573.00406    2175.5053    134738.39    10.472245    0.2576621 
   72900   -651.14237     76.42823   -574.71414    2318.7236    128701.71    10.472245   0.21598488 
   73000   -637.49699    78.831684   -558.66531     2391.641    143004.98    10.472245   0.33394569 
   73100   -638.26586    74.171558    -564.0943    2250.2594    143112.74    10.472245   0.46322153 
   73200   -649.18734    74.973982   -574.21336    2274.6038    129809.59    10.472245   0.36628705 
   73300   -647.55888    73.117889   -574.44099    2218.2926    130660.21    10.472245   0.42713877 
   73400   -644.84132    79.316732   -565.52458    2406.3566     135157.8    10.472245   0.52947381 
   73500   -647.81468    74.366692   -573.44799    2256.1795    132297.38    10.472245   0.53139505 
   73600   -653.92113    77.166893   -576.75423    2341.1336    122961.65    10.472245   0.45821304 
   73700   -642.78552    80.506321    -562.2792    2442.4471    137984.62    10.472245   0.47396123 
   73800   -650.37054    78.785334   -571.58521    2390.2348    128247.81    10.472245   0.48238288 
   73900   -654.68408    76.505664   -578.17841    2321.0728    124250.45    10.472245   0.46741558 
   74000   -644.46858    80.091208   -564.37737    2429.8531    138433.23    10.472245   0.46024418 
   74100   -651.26176    79.018824   -572.24293    2397.3185    125961.42    10.472245   0.43065895 
   74200   -646.17831    70.891743   -575.28656    2150.7545    133561.19    10.472245   0.52292583 
   74300   -652.25766    82.250523   -570.00714    2495.3637    126319.21    10.472245   0.42256609 
   74400   -648.68931    79.613689   -569.07562    2415.3659    130512.48    10.472245   0.51373786 
   74500   -658.58572    81.282134   -577.30359    2465.9841    118386.37    10.472245   0.46983858 
   74600   -651.59478     77.23463   -574.36015    2343.1886    125916.86    10.472245   0.42565401 
   74700   -639.18337    74.334884   -564.84848    2255.2145    141471.96    10.472245   0.50698681 
   74800   -647.78586    77.762944   -570.02292    2359.2169     133079.8    10.472245   0.48025355 
   74900   -660.37876    87.745723   -572.63303    2662.0802    118811.39    10.472245   0.42743429 
   75000   -651.88205    76.411197   -575.47085    2318.2069     126217.7    10.472245   0.48365178 
   75100    -649.0821    76.701663   -572.38044    2327.0192     129926.8    10.472245   0.51044807 
   75200   -643.02638    75.038207   -567.98817    2276.5523     135919.7    10.472245   0.44731387 
   75300   -646.63753     79.73861   -566.89892    2419.1558     133767.6    10.472245   0.46495204 
   75400    -652.0904    74.733985   -577.35642    2267.3226    125584.26    10.472245   0.44305263 
   75500   -646.93387     77.61818   -569.31569     2354.825    133692.42    10.472245   0.43251232 
   75600   -645.74699    69.496626   -576.25036    2108.4286    132028.39    10.472245   0.45949422 
   75700   -648.46363    70.013772   -578.44986    2124.1181    129448.08    10.472245   0.50116363 
   75800     -649.562    82.845777   -566.71622    2513.4228    131788.38    10.472245   0.51177265 
   75900   -649.11483    75.418535    -573.6963    2288.0909    132025.94    10.472245   0.50415449 
   76000   -655.18268    73.168434   -582.01424     2219.826    120771.38    10.472245   0.42761988 
   76100    -647.8167    76.650943   -571.16575    2325.4804    130819.49    10.472245   0.47038254 
   76200   -642.84455    71.791074   -571.05348    2178.0389    138128.85    10.472245   0.47275743 
   76300   -654.27146    68.486888   -585.78458    2077.7946    122366.51    10.472245   0.48086244 
   76400   -646.80167    73.984839   -572.81683    2244.5946    132417.19    10.472245   0.46927631 
   76500   -652.33519    83.034389    -569.3008    2519.1451    126828.53    10.472245   0.46834319 
   76600    -654.3263    70.190571   -584.13572    2129.4819    121147.99    10.472245   0.48464806 
   76700   -648.82547    72.526341   -576.29913    2200.3459    129399.69    10.472245   0.52660181 
   76800   -648.60875     79.25066   -569.35809    2404.3521       131445    10.472245   0.45410224 
   76900    -646.8482    74.258186   -572.59001    2252.8876    131769.92    10.472245   0.45254118 
   77000   -661.94202    81.372893   -580.56913    2468.7376    115275.72    10.472245   0.44021367 
   77100   -645.34315    80.103559   -565.23959    2430.2279    136602.24    10.472245   0.56819707 
   77200   -649.48272    78.763816    -570.7189     2389.582    129167.71    10.472245   0.43012188 
   77300   -649.08449     72.37683   -576.70766    2195.8099    129676.07    10.472245   0.43631171 
   77400   -644.97168    81.575502   -563.39617    2474.8845    138195.11    10.472245   0.52317266 
   77500   -644.65827    74.247048   -570.41123    2252.5497    135171.76    10.472245   0.50401121 
   77600   -654.96786      79.9794   -574.98846     2426.461    124805.37    10.472245   0.45846465 
   77700   -644.23403    80.379318   -563.85471     2438.594    136644.72    10.472245   0.53367193 
   77800   -646.94845    80.063932   -566.88452    2429.0256    134368.45    10.472245   0.52104945 
   77900   -648.90054    75.742522   -573.15802    2297.9202    130193.52    10.472245   0.47394183 
   78000   -652.22452     77.34942    -574.8751    2346.6712    125405.14    10.472245   0.46975125 
[...]
  481400   -647.05035    72.635507   -574.41484    2203.6578    129833.56    10.472245    3.9796344 
  481500   -648.01175    79.558228   -568.45353    2413.6833    132383.75    10.472245    4.0004917 
  481600   -651.96199    76.560843   -575.40115    2322.7469     124811.1    10.472245    3.9497679 
  481700   -653.72295    73.193719   -580.52924    2220.5931    122447.71    10.472245    3.9510197 
  481800   -644.53978    76.517322   -568.02246    2321.4265    136471.82    10.472245    4.0730015 
  481900   -647.90494    75.388051   -572.51689    2287.1661    134212.51    10.472245     4.046764 
  482000   -655.24824    74.869418   -580.37882    2271.4315    122167.62    10.472245    3.9913815 
  482100   -652.51245    81.524193   -570.98826    2473.3279    126921.12    10.472245    3.9496301 
  482200    -647.6026    77.647846   -569.95476     2355.725    133933.71    10.472245     4.102513 
  482300   -642.01292    81.726026   -560.28689    2479.4512    140598.32    10.472245    4.1087581 
  482400   -650.81312    75.340803   -575.47232    2285.7326    126923.99    10.472245    3.9311522 
  482500   -649.99681    77.632865   -572.36395    2355.2705    129878.91    10.472245    4.0457368 
  482600   -643.46903    82.943798   -560.52523    2516.3967    138482.97    10.472245    3.9708713 
  482700   -646.43491     70.49691     -575.938    2138.7758    132795.32    10.472245    4.0996514 
  482800   -649.62373    75.612759   -574.01098    2293.9834    128209.68    10.472245    4.0638363 
  482900   -643.92179    80.699572   -563.22221      2448.31       138386    10.472245    3.9775793 
  483000   -653.55243    75.000869   -578.55156    2275.4195     122734.1    10.472245    3.9285483 
  483100    -653.7772    82.543255   -571.23394    2504.2448    126124.47    10.472245    3.8996054 
  483200   -642.14868    72.807823   -569.34086    2208.8856    137591.91    10.472245    3.9067339 
  483300   -655.81174    71.593874   -584.21787    2172.0561       119790    10.472245    4.0434662 
  483400   -644.18188    72.742596   -571.43929    2206.9067     137254.6    10.472245    4.0509235 
  483500   -644.30718     73.17915   -571.12803    2220.1511    134622.64    10.472245    4.1927164 
  483600   -652.09794    69.947689   -582.15025    2122.1132    126547.62    10.472245    4.0525288 
  483700    -650.4192    77.781876   -572.63733    2359.7913    129465.01    10.472245    4.0315225 
  483800   -655.62248    83.262597   -572.35988    2526.0686    124067.31    10.472245     4.018203 
  483900   -654.24564     76.91038   -577.33526    2333.3513    123848.82    10.472245      4.02153 
  484000   -642.31303    79.090569   -563.22246    2399.4952    139879.65    10.472245    4.0793846 
  484100   -650.94218    74.251095   -576.69109    2252.6724    127757.82    10.472245    3.9500718 
  484200   -652.81944    80.498476   -572.32096    2442.2091    127885.83    10.472245    3.9791288 
  484300   -641.60776    85.688883   -555.91888    2599.6786    142849.03    10.472245     4.100824 
  484400   -644.65392    78.400337   -566.25358    2378.5545     137246.4    10.472245    4.0132932 
  484500   -650.11146    72.174474   -577.93699    2189.6707    128512.93    10.472245    3.9974279 
  484600   -653.77226    84.280938   -569.49133    2556.9636    125619.01    10.472245    3.9221983 
  484700   -644.44129    78.368308   -566.07298    2377.5828    135748.95    10.472245    4.0093227 
  484800   -648.09593     78.24735   -569.84858    2373.9131    132350.65    10.472245     4.007256 
  484900   -648.18238    73.698669   -574.48371    2235.9126    131180.62    10.472245    4.0447101 
  485000   -660.24248    76.910986    -583.3315    2333.3697    114506.03    10.472245    3.9728406 
  485100   -651.55961    82.755739   -568.80388    2510.6912    129523.53    10.472245    4.0419148 
  485200   -650.44004    74.683669   -575.75637    2265.7961    128306.51    10.472245    4.0779677 
  485300    -643.6019    66.320314   -577.28159    2012.0638    134336.09    10.472245    4.0321305 
  485400    -647.0826    82.137204    -564.9454    2491.9257    131947.81    10.472245    4.0373135 
  485500   -650.30212    72.235707   -578.06642    2191.5284    128218.79    10.472245    3.8951701 
  485600   -648.88277    75.538345   -573.34442    2291.7258    130672.13    10.472245    4.0122197 
  485700   -643.81151    80.756655   -563.05485    2450.0419    136586.99    10.472245    4.1686042 
  485800   -651.78005    78.695805   -573.08425    2387.5186    126796.91    10.472245    3.9161696 
  485900   -651.81911    74.136468   -577.68264    2249.1948    126075.61    10.472245    4.0186815 
  486000   -650.60532    82.234598   -568.37072    2494.8805    130472.36    10.472245    3.9930263 
  486100   -651.10256    77.428604   -573.67396    2349.0735    128194.87    10.472245    3.9779423 
  486200    -652.0161    73.206685   -578.80941    2220.9865    126774.29    10.472245    3.9537731 
  486300   -649.94897    74.877703   -575.07127    2271.6828    130049.94    10.472245    3.9765003 
  486400   -645.05284    82.292193   -562.76065    2496.6279    134428.29    10.472245    4.0380612 
  486500   -647.43576    82.955217   -564.48054    2516.7431    132336.59    10.472245    4.1431194 
  486600   -648.89255    77.002067   -571.89048     2336.133    131823.72    10.472245    4.0184524 
  486700   -651.88463    75.742315   -576.14232    2297.9139    126775.18    10.472245    4.0137799 
  486800   -657.62096    73.360554   -584.26041    2225.6547    116903.68    10.472245    3.9887076 
  486900   -652.60281    82.903864   -569.69895    2515.1851    127244.43    10.472245    4.0617146 
  487000   -648.96399    79.319781   -569.64421    2406.4491    131631.47    10.472245    4.1485831 
  487100   -656.28864    75.492341    -580.7963    2290.3301    121554.01    10.472245    3.9262139 
  487200   -650.93406    76.040687   -574.89337    2306.9661    126707.64    10.472245    3.9944996 
  487300   -645.02164    74.973714   -570.04793    2274.5957       135970    10.472245    4.0729213 
  487400    -659.2404    81.965352   -577.27505     2486.712       118289    10.472245    3.9106371 
  487500   -655.02769    74.314677   -580.71302    2254.6014    123775.43    10.472245    4.0930313 
  487600   -642.21798    74.025012   -568.19297    2245.8134    140237.59    10.472245    4.0636232 
  487700   -651.08234    75.227795   -575.85455    2282.3041    127460.69    10.472245    3.9267091 
  487800   -656.88664    78.975828   -577.91081    2396.0141    121076.51    10.472245    4.0358526 
  487900   -650.95379    76.995767   -573.95803    2335.9419     127841.4    10.472245    4.0772845 
  488000   -647.97548      78.6985   -569.27698    2387.6004    131147.19    10.472245    3.9625535 
  488100   -654.84511    72.506702   -582.33841      2199.75     122948.8    10.472245    3.9971832 
  488200   -653.34323    80.479629   -572.86361    2441.6373     123971.9    10.472245    3.9696696 
  488300    -647.4431    74.878488   -572.56462    2271.7066    131802.21    10.472245    4.0012504 
  488400    -657.0781    73.656409   -583.42169    2234.6305    120604.45    10.472245    4.0463507 
  488500   -654.88586    83.001547   -571.88432    2518.1487    123218.03    10.472245    3.8936246 
  488600    -647.9947    76.587313   -571.40739    2323.5499    130749.45    10.472245     4.027654 
  488700   -653.31042    71.586517   -581.72391    2171.8329    124395.14    10.472245    3.9899418 
  488800   -652.48488    76.805048   -575.67984    2330.1557    125326.04    10.472245    3.9234473 
  488900   -641.59145    74.773585   -566.81786     2268.524    138832.84    10.472245    3.9410758 
  489000   -651.10788    72.008605   -579.09927    2184.6385    127201.09    10.472245    4.0478704 
  489100    -653.5836    73.653129   -579.93047     2234.531    123953.13    10.472245    3.9733273 
  489200    -653.9611    80.963857   -572.99724    2456.3281    125512.01    10.472245     4.065913 
  489300   -649.14993    81.298079   -567.85185    2466.4679    131560.33    10.472245    3.9974462 
  489400   -634.37839    78.542206   -555.83619    2382.8586    149671.18    10.472245    4.2263243 
  489500    -647.9527    75.457424   -572.49527    2289.2707     129790.6    10.472245    3.8661994 
  489600   -650.15528    76.043676    -574.1116    2307.0568    128500.44    10.472245    4.0137229 
  489700   -647.10264    77.521628   -569.58102    2351.8957    134285.98    10.472245    3.9222305 
  489800   -646.61252    80.686423    -565.9261    2447.9111    134402.73    10.472245    3.9583766 
  489900   -651.83497    72.093894   -579.74107     2187.226    126431.99    10.472245    3.9651559 
  490000   -652.52743    80.490879   -572.03655    2441.9786    125895.15    10.472245    3.9842487 
  490100   -644.61217    75.628869    -568.9833    2294.4721    136935.33    10.472245    4.2182895 
  490200   -645.08869    74.547447   -570.54124    2261.6633    134478.41    10.472245    3.9622183 
  490300   -655.48736    73.124094   -582.36327    2218.4808    121334.89    10.472245    4.0109698 
  490400   -649.95871    75.327791   -574.63092    2285.3378     129538.9    10.472245    3.9845507 
  490500   -650.00216    78.305239   -571.69692    2375.6694    129604.57    10.472245    3.9055244 
  490600   -650.80671    82.913231   -567.89348    2515.4693    128859.68    10.472245    4.1529093 
  490700   -643.15121    76.262493   -566.88872    2313.6954    137853.76    10.472245    4.0375797 
  490800   -653.27404    73.541112   -579.73293    2231.1326    123647.56    10.472245     4.144477 
  490900   -648.49402    76.572692   -571.92132    2323.1064     130619.4    10.472245    4.0608526 
  491000   -649.86936    79.195838   -570.67353    2402.6889    130319.33    10.472245    4.0968631 
  491100   -648.03267    76.879362   -571.15331    2332.4103    133303.24    10.472245    3.8976619 
  491200   -644.67593    82.725552   -561.95038    2509.7754    137308.46    10.472245     4.048006 
  491300   -654.77429    78.753726   -576.02056    2389.2758    122736.63    10.472245    4.0027125 
  491400   -648.92503    74.365345   -574.55969    2256.1386    129740.45    10.472245    3.9493756 
  491500   -636.66581    76.257512    -560.4083    2313.5443    146591.95    10.472245    4.0164262 
  491600   -648.48191    80.356466   -568.12544    2437.9007    132334.08    10.472245    4.1090456 
  491700   -652.27194    74.521645    -577.7503    2260.8805    126024.66    10.472245    3.8155825 
  491800   -642.07141    76.987916    -565.0835    2335.7037    140027.65    10.472245    4.1279744 
  491900   -644.03558    75.524187   -568.51139    2291.2962    136908.08    10.472245    4.2079227 
  492000   -649.60583     78.62476   -570.98107    2385.3632    131370.09    10.472245    4.2108059 
  492100   -654.64293    73.236023   -581.40691    2221.8766    122216.27    10.472245    4.0164494 
  492200   -646.12312    75.059972   -571.06315    2277.2126    133870.41    10.472245    4.0271278 
  492300   -643.91489    75.038861   -568.87603    2276.5721    136452.71    10.472245    3.9696604 
  492400   -649.70588    74.743619   -574.96226    2267.6149    128666.58    10.472245    3.9718998 
  492500   -658.55806     75.33863   -583.21943    2285.6667    117255.54    10.472245    3.9827666 
  492600   -654.59945    82.377787   -572.22167    2499.2247    124182.03    10.472245    4.0321716 
  492700   -652.41095    78.209878   -574.20107    2372.7763    125328.63    10.472245    4.0159807 
  492800   -660.46101    74.475806   -585.98521    2259.4898    114440.43    10.472245    4.0062315 
  492900   -651.54588    76.180304   -575.36557    2311.2019    127519.73    10.472245    4.0509234 
  493000   -647.70994    76.729169   -570.98077    2327.8537    131642.51    10.472245    4.1146646 
  493100   -648.06508    66.396351   -581.66873    2014.3707    129445.75    10.472245    4.0454677 
  493200   -649.03388    78.583427   -570.45046    2384.1092    133003.07    10.472245    4.1205444 
  493300   -652.72727    79.443629   -573.28364    2410.2065    127298.44    10.472245     3.926823 
  493400   -652.84592    72.681574   -580.16434    2205.0554    124533.61    10.472245    4.0883372 
  493500   -640.87818    74.034476    -566.8437    2246.1005    141303.16    10.472245    3.9825805 
  493600   -650.31395     74.54104   -575.77291    2261.4689    128063.16    10.472245    4.0593539 
  493700   -654.40666     71.45211   -582.95455    2167.7552    121608.04    10.472245    4.0729527 
  493800   -653.31109     75.76173   -577.54936     2298.503    123459.06    10.472245    4.0348075 
  493900   -650.42321    81.080057   -569.34315    2459.8534    129526.68    10.472245    3.9767688 
  494000   -656.00008    75.990607   -580.00947    2305.4467    121947.21    10.472245    4.0641285 
  494100   -652.37828    80.491427   -571.88686    2441.9952    128042.46    10.472245    3.9110869 
  494200   -651.35607    80.125531   -571.23054    2430.8944    127262.62    10.472245    4.0300841 
  494300   -650.12958    71.415294   -578.71428    2166.6383    128816.76    10.472245    4.0156736 
  494400   -654.38071    73.036064   -581.34464    2215.8101    120763.56    10.472245    4.1063139 
  494500   -646.56774    78.595212   -567.97253    2384.4667    134895.77    10.472245    3.9758248 
  494600   -651.79533    75.395121   -576.40021    2287.3805    127548.58    10.472245    4.0687879 
  494700   -657.48299    75.825643   -581.65735     2300.442    119081.68    10.472245    4.0823486 
  494800   -644.53037    77.872452   -566.65792    2362.5392    135354.35    10.472245    4.0377149 
  494900   -649.85616    73.334013   -576.52215    2224.8495    128044.05    10.472245    4.1139505 
  495000   -652.08715    74.719344   -577.36781    2266.8784    125318.68    10.472245    3.9366028 
  495100   -646.95794    74.338564   -572.61937    2255.3261       133538    10.472245    4.0847593 
  495200    -652.1392    86.925198     -565.214    2637.1866    127944.97    10.472245    3.9580325 
  495300   -651.65802    78.152574   -573.50545    2371.0377     127626.5    10.472245     4.073665 
  495400   -659.11133    79.205421   -579.90591    2402.9796    117227.69    10.472245    3.9565528 
  495500   -651.21112    82.890838   -568.32028    2514.7899    129294.35    10.472245    3.9005002 
  495600     -648.577    80.437188   -568.13981    2440.3497    132235.34    10.472245    4.1220592 
  495700   -651.76061    69.232137   -582.52848    2100.4044    123156.44    10.472245    4.0137629 
  495800   -647.67328    74.107699   -573.56558     2248.322    130810.19    10.472245    4.1829228 
  495900    -650.4089     83.15523   -567.25367    2522.8112    128350.75    10.472245    4.0780159 
  496000   -652.28578    78.578444   -573.70733     2383.958    124575.77    10.472245    3.9826639 
  496100   -657.05872    70.701419    -586.3573    2144.9803    118554.86    10.472245    4.0591545 
  496200   -647.23864    71.493081   -575.74555    2168.9982    131586.08    10.472245    3.9636085 
  496300   -649.54354    77.431551   -572.11198    2349.1629    129298.13    10.472245    4.0426013 
  496400   -645.99263    79.049182   -566.94345    2398.2396    136742.19    10.472245    3.8884507 
  496500    -644.4476    78.344723   -566.10287    2376.8673    137487.55    10.472245    4.0421422 
  496600    -653.4615    73.560126   -579.90137    2231.7094    122753.76    10.472245    4.0906439 
  496700   -648.78584    78.240064   -570.54578    2373.6921    131772.03    10.472245    4.0838533 
  496800   -645.73545    75.561399   -570.17405    2292.4252    135086.92    10.472245    4.0494906 
  496900   -654.28221     76.40632   -577.87589    2318.0589    124071.33    10.472245     3.900365 
  497000   -644.65636    77.444612   -567.21174    2349.5592    136665.27    10.472245    4.1734644 
  497100   -653.86277    79.439005   -574.42376    2410.0662     125387.2    10.472245    3.9452601 
  497200   -651.53784    75.768064   -575.76978    2298.6951    127117.58    10.472245    4.0973702 
  497300   -649.88997    82.078986   -567.81098    2490.1595    132195.24    10.472245    3.9608528 
  497400   -638.31291    80.483145   -557.82977     2441.744    145699.97    10.472245    3.9903964 
  497500   -648.93354    76.088176   -572.84537    2308.4069    130489.43    10.472245    3.9448202 
  497600   -650.86624    73.494964   -577.37127    2229.7325    128352.68    10.472245    4.0305103 
  497700   -645.28399     82.03059    -563.2534    2488.6912    137050.05    10.472245    4.1676274 
  497800   -647.16512    76.020083   -571.14503     2306.341    131636.77    10.472245    4.0132422 
  497900   -652.50246    80.270865   -572.23159    2435.3037    124305.39    10.472245    4.1162475 
  498000   -646.79917    79.433181   -567.36599    2409.8895    133775.04    10.472245    4.1174037 
  498100   -648.82657    75.097718   -573.72885    2278.3578    131833.17    10.472245    4.0107882 
  498200   -650.20476    71.070661    -579.1341    2156.1826    127649.58    10.472245    3.8998373 
  498300   -643.51554     78.22132   -565.29422    2373.1234    136845.73    10.472245    3.9776347 
  498400   -642.97454    71.037589   -571.93695    2155.1792    136991.38    10.472245    4.0169539 
  498500   -653.68073    75.953755   -577.72697    2304.3287    124100.39    10.472245    3.9490348 
  498600   -648.68052    72.486037   -576.19448    2199.1231    130272.91    10.472245    3.9480277 
  498700   -646.30808    79.949728   -566.35835    2425.5608    133547.96    10.472245     4.164084 
  498800   -644.14784    68.414049   -575.73379    2075.5848    133896.26    10.472245    4.0201243 
  498900   -655.94238    75.755085    -580.1873    2298.3013    121492.33    10.472245    4.0127362 
  499000   -640.79566    74.237796   -566.55787     2252.269    141336.54    10.472245     4.020285 
  499100   -650.12466    78.068581   -572.05608    2368.4895    128716.16    10.472245    3.8974332 
  499200   -650.55704      82.0347   -568.52234    2488.8159    129875.89    10.472245    3.9883541 
  499300   -652.31034     87.26835   -565.04199    2647.5974    127948.61    10.472245    4.0223043 
  499400     -652.726    76.085322   -576.64067    2308.3203    123583.99    10.472245    3.9770155 
  499500   -649.73857    80.958254   -568.78032    2456.1581    128623.75    10.472245    4.1351052 
  499600   -652.73009    75.338768   -577.39132    2285.6709     125632.2    10.472245    3.9708795 
  499700   -648.67762    72.127875   -576.54974    2188.2569    130724.35    10.472245    3.9174675 
  499800   -651.10548    80.195473      -570.91    2433.0164    128578.74    10.472245    3.9822894 
  499900   -649.23749    74.413499   -574.82399    2257.5995    128395.74    10.472245    4.0440306 
  500000   -653.68544    65.082387   -588.60305    1974.5069    120212.52    10.472245    4.0247786 
Loop time of 375.871 on 1 procs for 500000 steps with 256 atoms

Performance: 574.664 ns/day, 0.042 hours/ns, 1330.242 timesteps/s
100.0% CPU use with 1 MPI tasks x no OpenMP threads

MPI task timing breakdown:
Section |  min time  |  avg time  |  max time  |%varavg| %total
---------------------------------------------------------------
Pair    | 223.79     | 223.79     | 223.79     |   0.0 | 59.54
Neigh   | 18.626     | 18.626     | 18.626     |   0.0 |  4.96
Comm    | 4.0077     | 4.0077     | 4.0077     |   0.0 |  1.07
Output  | 0.13642    | 0.13642    | 0.13642    |   0.0 |  0.04
Modify  | 128.59     | 128.59     | 128.59     |   0.0 | 34.21
Other   |            | 0.7132     |            |       |  0.19

Nlocal:    256 ave 256 max 256 min
Histogram: 1 0 0 0 0 0 0 0 0 0
Nghost:    1443 ave 1443 max 1443 min
Histogram: 1 0 0 0 0 0 0 0 0 0
Neighs:    13205 ave 13205 max 13205 min
Histogram: 1 0 0 0 0 0 0 0 0 0

Total # of neighbors = 13205
Ave neighs/atom = 51.582
Neighbor list builds = 33478
Dangerous builds = 111
Total wall time: 0:06:15
