LAMMPS (3 Mar 2020)
Reading data file ...
  orthogonal box = (0 0 0) to (12.27 12.27 12.27)
  1 by 1 by 1 MPI processor grid
  reading atoms ...
  108 atoms
  read_data CPU = 0.000889913 secs
Reading potential file /usr/share/lammps-stable/potentials/Ag_u3.eam with DATE: 2007-06-11
Neighbor list info ...
  update every 1 steps, delay 10 steps, check yes
  max neighbors/atom: 2000, page size: 100000
  master list distance cutoff = 7.55
  ghost atom cutoff = 7.55
  binsize = 3.775, bins = 4 4 4
  2 neighbor lists, perpetual/occasional/extra = 1 1 0
  (1) pair eam, perpetual
      attributes: half, newton on
      pair build: half/bin/atomonly/newton
      stencil: half/bin/3d/newton
      bin: standard
  (2) compute rdf, occasional, copy from (1)
      attributes: half, newton on
      pair build: copy
      stencil: none
      bin: none
Setting up Verlet run ...
  Unit style    : metal
  Current step  : 0
  Time step     : 0.00153413
Per MPI rank memory allocation (min/avg/max) = 3.723 | 3.723 | 3.723 Mbytes
Step PotEng KinEng TotEng Temp Press Density c_msdall[4] 
       0       -307.8    4.1492507   -303.65075          300     2399.079    10.472245            0 
     100   -305.66857    2.0185958   -303.64997    145.94894    9098.3086    10.472245  0.010241236 
     200   -306.22946    2.5791666    -303.6503    186.47945    7036.7854    10.472245 0.0073518042 
     300   -305.17482    1.5248914   -303.64993    110.25302    10228.551    10.472245  0.012361515 
     400   -305.25242     1.602424   -303.64999     115.8588    9944.7096    10.472245  0.011696309 
     500   -305.74034    2.0902382    -303.6501    151.12884    8629.2855    10.472245 0.0092977848 
     600   -305.59381    1.9437851   -303.65003    140.53996    9011.9116    10.472245  0.010217441 
     700   -305.79952    2.1494409   -303.65008    155.40933    8456.1016    10.472245 0.0092382988 
     800    -305.8486    2.1984134   -303.65019    158.95015    8232.5545    10.472245  0.010241524 
     900   -305.63165    1.9815769   -303.65007    143.27239    8930.3334    10.472245  0.009656852 
    1000   -305.58696    1.9368656    -303.6501    140.03966    9003.3202    10.472245  0.011180039 
    1100   -305.60727    1.9572204   -303.65005    141.51136    9013.5423    10.472245 0.0091857912 
    1200    -305.4155     1.765441   -303.65006    127.64529    9458.5256    10.472245   0.01177204 
    1300   -305.44189     1.791894      -303.65     129.5579     9404.035    10.472245  0.010191712 
    1400    -305.5186    1.8685368   -303.65006    135.09934    9223.9266    10.472245  0.010711743 
    1500   -305.58449     1.934418   -303.65007     139.8627    9019.5658    10.472245  0.010243423 
    1600   -305.96111    2.3109711   -303.65014    167.08832    8045.3121    10.472245  0.007768968 
    1700   -305.84191    2.1917368   -303.65017    158.46742    8301.6281    10.472245 0.0092346166 
    1800   -305.69414    2.0440835   -303.65006    147.79176     8898.117    10.472245 0.0086554401 
    1900   -305.84138    2.1912229   -303.65016    158.43026    8249.3107    10.472245 0.0087782569 
    2000   -305.33992    1.6899335   -303.64999    122.18593    9742.0045    10.472245  0.011139251 
    2100   -305.72486    2.0747375   -303.65013    150.00811    8656.3895    10.472245 0.0091334417 
    2200   -305.59658     1.946531   -303.65005     140.7385    9134.7094    10.472245  0.010276511 
    2300   -306.10127    2.4510572   -303.65022    177.21686    7626.5213    10.472245 0.0075448376 
    2400   -306.27129    2.6210524   -303.65024    189.50789    7157.8883    10.472245 0.0068467255 
    2500   -305.90921    2.2590568   -303.65015     163.3348    8185.0457    10.472245 0.0084543998 
    2600   -305.80461    2.1544108    -303.6502    155.76866    8418.5136    10.472245 0.0094704206 
    2700   -305.61386    1.9637676   -303.65009    141.98474       9104.9    10.472245  0.009336443 
    2800   -305.55039    1.9003084   -303.65008     137.3965    9122.5379    10.472245  0.010436213 
    2900    -305.8955    2.2453288   -303.65017    162.34224    8242.3522    10.472245 0.0081703484 
    3000   -305.57929     1.929237   -303.65006     139.4881      9116.69    10.472245 0.0096696931 
    3100   -305.75514    2.1049513   -303.65018    152.19263    8542.6213    10.472245  0.010106028 
    3200   -305.78196    2.1318146   -303.65014    154.13491    8461.6858    10.472245 0.0096066478 
    3300   -305.61454    1.9644552   -303.65008    142.03446    8942.5722    10.472245  0.010612521 
    3400   -305.81789    2.1677743   -303.65012    156.73488    8328.9069    10.472245 0.0087770371 
    3500   -305.56032    1.9102874   -303.65003      138.118    9269.5222    10.472245  0.010203331 
    3600   -305.56619     1.916094    -303.6501    138.53784    9062.5178    10.472245   0.01053745 
    3700   -305.64064    1.9905409    -303.6501    143.92051    8867.6374    10.472245  0.009833417 
    3800   -305.57973    1.9296607   -303.65007    139.51874    9040.4922    10.472245  0.010216259 
    3900    -305.8434     2.193253   -303.65015    158.57704    8242.5417    10.472245 0.0091685452 
    4000    -305.9375    2.2873381   -303.65016     165.3796    8004.6554    10.472245 0.0084018551 
    4100   -305.68859    2.0384631   -303.65013    147.38539    8729.3375    10.472245  0.010179623 
    4200   -305.54175    1.8916687   -303.65008    136.77183    9182.4989    10.472245   0.01082657 
    4300   -305.64561    1.9955185   -303.65009     144.2804    8898.7146    10.472245 0.0091798678 
    4400   -305.49911    1.8490367   -303.65007    133.68944    9283.8778    10.472245  0.011038314 
    4500   -305.80433    2.1542241    -303.6501    155.75517    8497.4523    10.472245 0.0081295702 
    4600   -305.73159    2.0814726   -303.65012    150.49508    8663.6464    10.472245 0.0098054587 
    4700    -305.9298    2.2796468   -303.65015    164.82351     8021.578    10.472245 0.0089314266 
    4800   -306.13062    2.4804082   -303.65021      179.339    7371.7988    10.472245 0.0082515312 
    4900   -305.78569    2.1355598   -303.65013    154.40569    8352.7444    10.472245 0.0098293077 
    5000   -305.78369    2.1335537   -303.65013    154.26065    8421.4001    10.472245  0.009144738 
    5100   -305.56524    1.9151328    -303.6501    138.46834    9111.5812    10.472245  0.010211969 
    5200   -305.51596    1.8658998   -303.65006    134.90868    9301.1776    10.472245  0.010038098 
    5300   -305.67683    2.0267042   -303.65012    146.53519    8814.1653    10.472245 0.0097326689 
    5400   -305.50918    1.8591606   -303.65002    134.42142    9361.3773    10.472245 0.0096409414 
    5500   -305.81671    2.1665489   -303.65016    156.64627    8401.4171    10.472245 0.0094793619 
    5600   -305.89833    2.2481761   -303.65015    162.54811     8166.037    10.472245  0.008540968 
    5700   -305.87069    2.2205386   -303.65015    160.54985    8189.9175    10.472245 0.0092223931 
    5800   -305.95201    2.3018273   -303.65018     166.4272    7951.3576    10.472245 0.0090308221 
    5900   -305.69713    2.0470572   -303.65007    148.00677    8740.2981    10.472245 0.0092713787 
    6000   -305.55883    1.9087266    -303.6501    138.00515    9105.0743    10.472245  0.010870626 
    6100    -305.7636    2.1134623   -303.65013      152.808    8528.7927    10.472245 0.0088870409 
    6200   -305.71131    2.0611873   -303.65012     149.0284    8725.6438    10.472245   0.01003086 
    6300   -306.01443    2.3642637   -303.65017    170.94149    7752.3742    10.472245 0.0081912287 
    6400   -305.95583    2.3056741   -303.65016    166.70534    7956.0526    10.472245 0.0086610671 
    6500   -305.65289    2.0027723   -303.65012    144.80487    8720.2476    10.472245  0.011233064 
    6519   -305.52561    1.8755692   -303.65004     135.6078    9184.7544    10.472245  0.011361073 
Loop time of 1.24924 on 1 procs for 6519 steps with 108 atoms

Performance: 691.689 ns/day, 0.035 hours/ns, 5218.381 timesteps/s
100.0% CPU use with 1 MPI tasks x no OpenMP threads

MPI task timing breakdown:
Section |  min time  |  avg time  |  max time  |%varavg| %total
---------------------------------------------------------------
Pair    | 0.84039    | 0.84039    | 0.84039    |   0.0 | 67.27
Neigh   | 0          | 0          | 0          |   0.0 |  0.00
Comm    | 0.02704    | 0.02704    | 0.02704    |   0.0 |  2.16
Output  | 0.0011334  | 0.0011334  | 0.0011334  |   0.0 |  0.09
Modify  | 0.37448    | 0.37448    | 0.37448    |   0.0 | 29.98
Other   |            | 0.006199   |            |       |  0.50

Nlocal:    108 ave 108 max 108 min
Histogram: 1 0 0 0 0 0 0 0 0 0
Nghost:    990 ave 990 max 990 min
Histogram: 1 0 0 0 0 0 0 0 0 0
Neighs:    4644 ave 4644 max 4644 min
Histogram: 1 0 0 0 0 0 0 0 0 0

Total # of neighbors = 4644
Ave neighs/atom = 43
Neighbor list builds = 0
Dangerous builds = 0
Total wall time: 0:00:01
