LAMMPS (3 Mar 2020)

    # ---------- Initialize simulation ---------------------
    units metal
    atom_style atomic
    dimension  3
    boundary   p p p
    read_data /home/modeler/RemLabs/Lab4/Problem2A_size_5/temp_2100/lammps.data
  orthogonal box = (0 0 0) to (20.45 20.45 20.45)
  1 by 1 by 1 MPI processor grid
  reading atoms ...
  500 atoms
  read_data CPU = 0.00113647 secs

    pair_style eam
    pair_coeff * * /usr/share/lammps-stable/potentials/Ag_u3.eam
Reading potential file /usr/share/lammps-stable/potentials/Ag_u3.eam with DATE: 2007-06-11

    velocity  all create 2100 87287 dist gaussian

    # ---------- Describe computed properties------------------
    compute msdall all msd
    thermo_style custom step pe ke etotal temp press density c_msdall[4]
    thermo 100

    # ---------- Specify ensemble  ---------------------
    #fix  1 all nve
    fix  1 all nvt temp 2100 2100 0.25

    # --------- Compute RDF ---------------
    compute rdfall all rdf 100 1 1
    fix 2 all ave/time 1 25000 25000 c_rdfall[*] file /home/modeler/RemLabs/Lab4/Problem2A_size_5/temp_2100/lammps.rdf mode vector

    # --------- Run -------------
    timestep 0.005
    run 100000
Neighbor list info ...
  update every 1 steps, delay 10 steps, check yes
  max neighbors/atom: 2000, page size: 100000
  master list distance cutoff = 7.55
  ghost atom cutoff = 7.55
  binsize = 3.775, bins = 6 6 6
  2 neighbor lists, perpetual/occasional/extra = 1 1 0
  (1) pair eam, perpetual
      attributes: half, newton on
      pair build: half/bin/atomonly/newton
      stencil: half/bin/3d/newton
      bin: standard
  (2) compute rdf, occasional, copy from (1)
      attributes: half, newton on
      pair build: copy
      stencil: none
      bin: none
Per MPI rank memory allocation (min/avg/max) = 3.769 | 3.769 | 3.769 Mbytes
Step PotEng KinEng TotEng Temp Press Density c_msdall[4] 
       0        -1425    135.45171   -1289.5483         2100    16916.953    10.472245            0 
     100    -1337.186    85.684169   -1251.5018      1328.42    75653.098    10.472245    0.1105178 
     200   -1311.6372    120.31676   -1191.3205    1865.3526    97815.413    10.472245    0.1740242 
     300   -1286.2267    145.83592   -1140.3908    2260.9936    118111.62    10.472245   0.19284197 
     400   -1281.3286    139.84925   -1141.4794     2168.178    120187.68    10.472245   0.20056695 
     500   -1294.4423    128.46925   -1165.9731    1991.7462    109530.18    10.472245   0.17812154 
     600   -1286.1109    131.67831   -1154.4326    2041.4985    116556.37    10.472245   0.19046764 
     700   -1276.2216    136.87456    -1139.347    2122.0595    123890.99    10.472245   0.22494005 
     800   -1288.3019    134.79801   -1153.5039    2089.8654    114319.12    10.472245   0.19995616 
     900    -1294.179    135.19748   -1158.9815    2096.0585    110998.09    10.472245   0.19067565 
    1000   -1283.6953     139.5754   -1144.1199    2163.9324    118644.93    10.472245   0.19657675 
    1100   -1278.8804    128.64673   -1150.2337    1994.4978    121327.13    10.472245   0.24354963 
    1200   -1287.2172    136.81211   -1150.4051    2121.0913    114712.69    10.472245   0.22179829 
    1300   -1283.3157    139.27134   -1144.0444    2159.2185    118102.73    10.472245   0.20030152 
    1400    -1297.501    137.87241   -1159.6286    2137.5298    108905.14    10.472245   0.17473599 
    1500   -1290.7995    141.97319   -1148.8263     2201.107     113973.5    10.472245   0.20945081 
    1600    -1290.892    141.41547   -1149.4766    2192.4603    114012.84    10.472245   0.19269291 
    1700   -1292.8684    134.39488   -1158.4735    2083.6153    111240.56    10.472245   0.18165855 
    1800   -1282.3166    140.79082   -1141.5258    2182.7759    119792.75    10.472245   0.18959983 
    1900   -1299.0404    147.54526   -1151.4952    2287.4945    108548.31    10.472245   0.17683119 
    2000   -1283.2738    126.54381     -1156.73    1961.8948    117383.72    10.472245   0.20000707 
    2100   -1282.1229    131.74216   -1150.3808    2042.4883    120406.88    10.472245   0.26233782 
    2200    -1288.145    141.09875   -1147.0462      2187.55    115970.59    10.472245   0.19186677 
    2300   -1284.5873    133.13341   -1151.4539    2064.0578    116944.38    10.472245   0.21478674 
    2400   -1289.0254    132.70311   -1156.3223    2057.3866    114160.96    10.472245   0.21011532 
    2500   -1282.9152    130.98087   -1151.9343    2030.6856     118103.4    10.472245   0.19492714 
    2600   -1276.0945    138.56614   -1137.5283    2148.2851    122665.47    10.472245   0.26405524 
    2700   -1298.5301    142.43905   -1156.0911    2208.3295    109440.32    10.472245   0.17930789 
    2800    -1289.585     136.3753   -1153.2097    2114.3192    114467.28    10.472245   0.18859694 
    2900   -1283.4864    141.95325   -1141.5331    2200.7978    118790.94    10.472245   0.22920198 
    3000   -1283.9928    121.68087   -1162.3119    1886.5014    115284.81    10.472245   0.19443828 
    3100   -1285.5359    135.59385   -1149.9421    2102.2038    116335.68    10.472245   0.20147227 
    3200   -1283.7816    136.03906   -1147.7426    2109.1061    118100.62    10.472245   0.23898691 
    3300   -1289.1663    135.37831    -1153.788    2098.8621    114878.01    10.472245   0.19722298 
    3400   -1289.0709    128.87182   -1160.1991    1997.9876     113239.1    10.472245   0.18463141 
    3500   -1282.0287    138.31848   -1143.7102    2144.4455    119367.62    10.472245   0.20996265 
    3600   -1283.9052     132.7959   -1151.1093    2058.8252    117581.72    10.472245   0.20745683 
    3700   -1285.7186    129.65713   -1156.0615    2010.1627    115818.51    10.472245   0.21209747 
    3800   -1284.1898    144.37502   -1139.8148    2238.3442    117931.16    10.472245   0.22635832 
    3900   -1282.6905    128.62442   -1154.0661     1994.152    119066.85    10.472245   0.23545791 
    4000   -1287.5189    138.17276   -1149.3461    2142.1863    115748.51    10.472245   0.19937759 
    4100    -1277.892    141.95937   -1135.9326    2200.8928    123574.73    10.472245    0.2156011 
    4200   -1283.2249    132.87055   -1150.3543    2059.9825    118576.63    10.472245   0.20686996 
    4300   -1279.8357    125.72312   -1154.1126    1949.1711    119342.53    10.472245   0.20857454 
    4400   -1289.4662    139.18047   -1150.2857    2157.8095    114100.51    10.472245   0.18410187 
    4500   -1284.9648    135.55855   -1149.4062    2101.6564    116267.51    10.472245   0.21948707 
    4600   -1293.8086    134.60324   -1159.2054    2086.8457    110949.78    10.472245    0.1799165 
    4700   -1285.3132    130.85324   -1154.4599    2028.7069    116658.33    10.472245   0.20707643 
    4800   -1285.0635    137.45996   -1147.6035    2131.1353     118143.8    10.472245   0.21136768 
    4900   -1288.8762    129.07836   -1159.7978    2001.1897    114504.66    10.472245   0.20521323 
    5000   -1293.3781    124.89878   -1168.4793    1936.3908    109725.35    10.472245   0.19056632 
    5100   -1284.8835    133.14394   -1151.7396    2064.2211    115895.17    10.472245    0.2059812 
    5200   -1283.9007    135.50894   -1148.3918    2100.8874    117870.57    10.472245   0.24669009 
    5300   -1274.2339    132.68492   -1141.5489    2057.1047    124095.11    10.472245   0.22007651 
    5400   -1294.3629    136.10566   -1158.2573    2110.1386    110640.87    10.472245   0.17754359 
    5500   -1287.2289    135.66499   -1151.5639    2103.3067    114480.43    10.472245   0.21849147 
    5600   -1280.4543    131.35708   -1149.0972    2036.5183    119440.73    10.472245   0.19073748 
    5700   -1289.2655    130.54717   -1158.7183    2023.9616    113216.63    10.472245   0.19673296 
    5800    -1284.493     134.5253   -1149.9677    2085.6374    117260.02    10.472245   0.22449195 
    5900   -1281.0455    139.79947    -1141.246    2167.4064    121588.87    10.472245   0.24207772 
    6000   -1286.6694     128.2893   -1158.3801    1988.9564    115051.18    10.472245   0.23408357 
    6100   -1285.3143    132.94625    -1152.368    2061.1561    116217.82    10.472245   0.22501714 
    6200   -1283.4067    147.48045   -1135.9262    2286.4898    120154.89    10.472245   0.23605245 
    6300   -1278.3178    145.43424   -1132.8835     2254.766    122069.55    10.472245   0.22941524 
    6400   -1289.2579    133.45304   -1155.8048    2069.0133    113374.79    10.472245   0.19401725 
    6500   -1288.6204    133.99659   -1154.6238    2077.4404    114365.33    10.472245   0.19535172 
    6600    -1276.725    135.23892   -1141.4861     2096.701     122792.5    10.472245   0.23378862 
    6700   -1286.0288    134.16267   -1151.8662    2080.0153    115834.12    10.472245   0.19360199 
    6800   -1286.5364    135.37147    -1151.165    2098.7561    115460.17    10.472245   0.20260775 
    6900   -1286.0637    142.34438   -1143.7193    2206.8618    116850.92    10.472245   0.21376164 
    7000   -1289.9611    141.41087   -1148.5502     2192.389    114564.11    10.472245   0.18348317 
    7100   -1294.9152    135.93978   -1158.9754    2107.5669    110344.07    10.472245   0.18157862 
    7200     -1284.28    140.88818   -1143.3918    2184.2853    117624.69    10.472245   0.21068763 
    7300   -1288.5308    142.19584    -1146.335    2204.5588    115158.11    10.472245   0.19902549 
    7400    -1294.873    141.44985   -1153.4232    2192.9932    111920.46    10.472245   0.20553264 
    7500   -1282.6311    136.89551   -1145.7356    2122.3843    116972.84    10.472245   0.24520244 
    7600   -1289.4535    146.95839   -1142.4951     2278.396    115694.93    10.472245   0.18045377 
    7700   -1293.6208    139.53509   -1154.0857    2163.3075    111403.84    10.472245   0.22801739 
    7800   -1280.4905    137.39703   -1143.0935    2130.1597     119964.5    10.472245   0.23548853 
    7900   -1272.3435    139.31482   -1133.0287    2159.8924     126189.5    10.472245   0.20959852 
    8000    -1295.935    142.44752   -1153.4874    2208.4608    110355.86    10.472245   0.20643577 
    8100   -1293.8025    140.74063   -1153.0619    2181.9978    111410.69    10.472245   0.18876292 
    8200   -1288.3311    150.02219   -1138.3089    2325.8961     116768.5    10.472245   0.21827251 
    8300   -1283.5471    133.49212   -1150.0549    2069.6192    118355.18    10.472245    0.2183978 
    8400    -1289.855    132.37303   -1157.4819    2052.2692    113206.91    10.472245   0.18457127 
    8500    -1284.495    141.04945   -1143.4456    2186.7856    117748.59    10.472245   0.23598307 
    8600   -1285.2327     133.8257    -1151.407     2074.791    116122.62    10.472245   0.22171459 
    8700   -1286.8878     127.8104   -1159.0774    1981.5316    113924.93    10.472245   0.21182939 
    8800   -1281.5081    136.87042   -1144.6376    2121.9953    120147.39    10.472245   0.19222732 
    8900   -1284.6776    131.44318   -1153.2344    2037.8531    116929.79    10.472245   0.19910656 
    9000   -1285.5262    131.65574   -1153.8705    2041.1486       116695    10.472245   0.20162631 
    9100   -1284.2033    130.37137   -1153.8319    2021.2361    116818.66    10.472245   0.22331977 
    9200   -1279.6318    138.29413   -1141.3376    2144.0681    121007.94    10.472245   0.21072331 
    9300   -1285.8297    133.78796   -1152.0417    2074.2058     116669.9    10.472245   0.22684548 
    9400   -1291.1805    133.99607   -1157.1845    2077.4323    112663.03    10.472245   0.19160317 
    9500    -1286.117    133.66353   -1152.4535    2072.2766     116401.6    10.472245   0.19290013 
    9600   -1287.1372    136.35181   -1150.7854    2113.9549     116582.3    10.472245   0.22888712 
    9700   -1278.8217    146.74645   -1132.0752    2275.1102    122782.78    10.472245   0.23781358 
    9800   -1287.6002    137.38643   -1150.2138    2129.9953    114742.46    10.472245   0.23408228 
    9900   -1284.2263    133.11321   -1151.1131    2063.7448    117627.96    10.472245   0.21996874 
   10000   -1279.4543    142.74881   -1136.7055     2213.132    120285.69    10.472245    0.2299935 
   10100   -1291.1904    138.35187   -1152.8385    2144.9632    114269.78    10.472245   0.21121204 
   10200   -1290.2407     135.6672   -1154.5735     2103.341    113714.78    10.472245   0.19592756 
   10300   -1280.5198    142.39904   -1138.1207    2207.7093    120816.41    10.472245    0.2334783 
   10400   -1287.1002    137.31822    -1149.782    2128.9378    116433.54    10.472245   0.21701709 
   10500   -1288.3069    134.31704   -1153.9898    2082.4086    115926.52    10.472245   0.23915654 
   10600   -1293.7197    150.46668    -1143.253    2332.7874    114120.11    10.472245   0.19088072 
   10700   -1286.2996    133.32901   -1152.9706    2067.0904    116644.34    10.472245   0.21579197 
   10800    -1292.859    136.19048   -1156.6685    2111.4537    111638.49    10.472245   0.17297713 
   10900   -1276.9635     138.1799   -1138.7836     2142.297    121718.98    10.472245   0.24255821 
   11000   -1285.1566    139.38762    -1145.769    2161.0212    118101.97    10.472245   0.23110895 
   11100   -1288.6959     134.9355   -1153.7604    2091.9969    114466.22    10.472245   0.19171877 
   11200   -1291.8451    126.44989   -1165.3952    1960.4388    111264.72    10.472245   0.18467693 
   11300   -1283.6197    132.28525   -1151.3345    2050.9084    117530.69    10.472245   0.22299737 
   11400   -1280.0625    136.88362   -1143.1789       2122.2    119157.29    10.472245   0.23698625 
   11500   -1290.4266    131.28978   -1159.1368    2035.4748    113501.48    10.472245   0.21008518 
   11600   -1285.4048     131.8988    -1153.506    2044.9169    116852.79    10.472245     0.203323 
   11700   -1288.0823    138.14023    -1149.942    2141.6821    114884.25    10.472245   0.20701342 
   11800   -1292.2387    137.12486   -1155.1138    2125.9401    112200.86    10.472245   0.20916846 
   11900   -1301.1128    137.29731   -1163.8155    2128.6137    105760.08    10.472245   0.17364344 
   12000   -1288.3279    142.48769   -1145.8402    2209.0836    116086.68    10.472245   0.21494885 
   12100   -1288.1007    135.78374   -1152.3169    2105.1477    114766.94    10.472245   0.20727609 
   12200   -1297.9616    131.88006   -1166.0815    2044.6264    107698.43    10.472245   0.18145344 
   12300   -1287.2088    138.94527   -1148.2635    2154.1631    116821.87    10.472245   0.20178069 
   12400   -1288.7698     132.4907   -1156.2791    2054.0935    114931.35    10.472245   0.20065428 
   12500   -1294.1853    139.14424    -1155.041    2157.2478    111941.55    10.472245   0.18690468 
   12600   -1282.7926      138.799   -1143.9936    2151.8953    117711.22    10.472245   0.23071184 
   12700   -1288.3868    124.16873   -1164.2181    1925.0723    113999.36    10.472245   0.18567802 
   12800   -1287.5814    135.17441    -1152.407    2095.7009    117056.77    10.472245   0.20842518 
   12900   -1286.4381    138.76314   -1147.6749    2151.3393     117008.4    10.472245   0.20327415 
   13000    -1292.176    126.32554   -1165.8505    1958.5109    111546.51    10.472245   0.20787177 
   13100    -1287.925    130.59431   -1157.3307    2024.6924    114494.68    10.472245   0.19999672 
   13200   -1283.3025     137.2712   -1146.0313    2128.2088    118325.46    10.472245   0.19590745 
   13300    -1295.565    130.75257   -1164.8125    2027.1461    109815.38    10.472245   0.19428634 
   13400   -1289.1136    132.54749   -1156.5661     2054.974    113787.74    10.472245   0.22176403 
   13500   -1283.9244    137.42659   -1146.4978     2130.618     118109.8    10.472245   0.19858041 
   13600   -1292.0406    131.10208   -1160.9385    2032.5648    111299.05    10.472245   0.21317377 
   13700   -1293.3258    137.12921   -1156.1966    2126.0074    111977.43    10.472245   0.18702061 
   13800   -1282.1474    132.81852   -1149.3288    2059.1759    118613.05    10.472245   0.21406612 
   13900   -1287.3112    134.39322    -1152.918    2083.5896    115399.31    10.472245   0.19203177 
   14000   -1292.4365    126.74576   -1165.6907    1965.0258    111110.06    10.472245   0.17869664 
   14100   -1292.1083    141.56866   -1150.5396    2194.8353    113608.03    10.472245   0.20500154 
   14200   -1287.0988    134.70434   -1152.3944    2088.4131    115452.04    10.472245   0.20240998 
   14300   -1289.6508    127.86366   -1161.7872    1982.3574    112413.03    10.472245   0.19639302 
   14400   -1284.9105    137.20718   -1147.7034    2127.2163    116612.58    10.472245    0.2185504 
   14500   -1285.1964     140.3798   -1144.8166    2176.4035    117043.93    10.472245   0.21174269 
   14600   -1294.6467    135.63751   -1159.0092    2102.8807    110784.27    10.472245   0.20194041 
   14700   -1290.2829    136.71955   -1153.5634    2119.6563    114021.73    10.472245   0.17942205 
   14800   -1277.5354     131.4334    -1146.102    2037.7015    121801.43    10.472245   0.24052632 
   14900   -1278.6238    142.43081    -1136.193    2208.2018    122257.57    10.472245    0.2297418 
   15000   -1283.5568    131.50944   -1152.0474    2038.8804    118511.59    10.472245   0.20614109 
   15100   -1288.7126     135.1665   -1153.5461    2095.5783    113950.05    10.472245   0.20554504 
   15200   -1285.4585    138.91341   -1146.5451    2153.6692    117385.46    10.472245   0.22263728 
   15300   -1285.5108    143.19139   -1142.3194    2219.9935       118032    10.472245   0.22496447 
   15400   -1293.5374    133.75455   -1159.7828    2073.6879    111037.05    10.472245   0.17852677 
   15500   -1286.2922    139.09579   -1147.1964    2156.4967    116017.75    10.472245   0.20142295 
   15600   -1283.5525    137.60584   -1145.9467    2133.3971    118130.25    10.472245   0.21127757 
   15700   -1290.1432    135.53783   -1154.6053    2101.3352    113863.58    10.472245   0.21292156 
   15800   -1281.7673    137.22692   -1144.5404    2127.5224    119406.86    10.472245   0.22835345 
   15900   -1286.0008    139.21818   -1146.7826    2158.3942    117771.09    10.472245   0.18900211 
   16000   -1292.3173      134.669   -1157.6483    2087.8651    112182.52    10.472245   0.19409719 
   16100   -1284.8153    141.52052   -1143.2948     2194.089    118517.93    10.472245   0.21509412 
   16200    -1278.258    138.34883   -1139.9091    2144.9161    122598.48    10.472245   0.27826951 
   16300   -1290.0473    141.72359   -1148.3238    2197.2373     113644.3    10.472245    0.2039429 
   16400   -1287.7358    133.64638   -1154.0894    2072.0108    114600.16    10.472245   0.21102503 
   16500   -1285.2761    129.90159   -1155.3745    2013.9528    116324.95    10.472245   0.20101667 
   16600   -1283.3514    137.10668   -1146.2447    2125.6581    118596.13    10.472245   0.19883792 
   16700   -1288.6085    133.80138   -1154.8071    2074.4139    115863.13    10.472245   0.19982706 
   16800   -1293.5051    135.36532   -1158.1398    2098.6607    111801.51    10.472245   0.17908438 
   16900   -1277.1876    132.40484   -1144.7828    2052.7624    122335.34    10.472245   0.21991269 
   17000    -1290.211     136.0786   -1154.1324    2109.7192    114621.53    10.472245   0.19612144 
   17100   -1281.7346    130.67775   -1151.0568    2025.9862     118885.9    10.472245   0.21544539 
   17200   -1284.3348    143.20939   -1141.1254    2220.2727    118522.11    10.472245   0.20644983 
   17300   -1294.7876    140.96529   -1153.8224    2185.4808     110875.2    10.472245   0.20042072 
   17400   -1279.6081    131.51679   -1148.0913    2038.9944    120848.83    10.472245   0.20992793 
   17500   -1277.9333    136.64765   -1141.2856    2118.5415    121085.01    10.472245   0.24315285 
   17600   -1279.1556    126.11517   -1153.0404    1955.2493    119425.71    10.472245   0.19675868 
   17700   -1289.4574    136.28314   -1153.1742    2112.8903    113772.69    10.472245   0.18676069 
   17800   -1281.5453    145.82626    -1135.719    2260.8438    120783.31    10.472245   0.21193782 
   17900   -1280.3811      126.989   -1153.3921    1968.7969     119498.2    10.472245   0.22046737 
   18000   -1290.8669     133.9916   -1156.8753    2077.3631    112646.06    10.472245   0.18297586 
   18100   -1296.6942    134.97432   -1161.7199    2092.5988    109351.54    10.472245     0.184315 
   18200   -1278.2056    133.32374   -1144.8818    2067.0088    120613.29    10.472245   0.20725198 
   18300   -1290.4199    135.38189    -1155.038    2098.9176    113768.03    10.472245    0.2101298 
   18400   -1285.9355    127.12336   -1158.8121      1970.88    115092.43    10.472245   0.20691446 
   18500   -1288.2805    137.27431   -1151.0062     2128.257     115545.8    10.472245   0.20763249 
   18600   -1284.7792    138.60494   -1146.1743    2148.8867    117443.11    10.472245   0.19590296 
   18700   -1291.4175    130.39071   -1161.0268     2021.536     112098.4    10.472245   0.18501146 
   18800   -1282.2892    137.52754   -1144.7617     2132.183     118889.3    10.472245   0.20543624 
   18900   -1285.6479    138.50084    -1147.147    2147.2728    117323.46    10.472245   0.23509774 
   19000   -1293.1794    132.12706   -1161.0524    2048.4557    111784.88    10.472245    0.1840145 
   19100   -1294.9461    133.18085   -1161.7652    2064.7934    110101.44    10.472245   0.18239528 
   19200   -1289.0426    139.02273   -1150.0199     2155.364    113880.17    10.472245   0.22408805 
   19300   -1288.9895    144.43193   -1144.5576    2239.2266    114998.66    10.472245   0.18690795 
   19400    -1285.957    124.85715   -1161.0999    1935.7454    115118.03    10.472245    0.2011659 
   19500   -1281.3313    133.55736   -1147.7739    2070.6307    119325.73    10.472245   0.19774036 
   19600   -1285.1261    134.51339   -1150.6127    2085.4526    117169.88    10.472245   0.20984114 
   19700   -1286.1963    135.45691   -1150.7394    2100.0807    116325.15    10.472245   0.25105977 
   19800   -1288.1223    147.60107   -1140.5212    2288.3598    115654.35    10.472245   0.18570606 
   19900   -1290.5372    133.90555   -1156.6317    2076.0289    113818.16    10.472245    0.2060954 
   20000   -1282.9305    132.39796   -1150.5325    2052.6557    117709.55    10.472245   0.22059451 
   20100   -1276.3979    144.90857   -1131.4894    2246.6162    123885.34    10.472245   0.25218171 
   20200   -1276.0576    132.50559    -1143.552    2054.3243    124020.62    10.472245   0.22574849 
   20300   -1282.0765    125.87021   -1156.2063    1951.4515     116846.1    10.472245    0.2343195 
   20400   -1287.4933    140.67455   -1146.8187    2180.9734    116014.94    10.472245   0.21094376 
   20500   -1274.6499    139.76935   -1134.8806    2166.9393    125132.09    10.472245   0.26590155 
   20600   -1289.0475     141.2322   -1147.8153    2189.6189    115561.11    10.472245   0.18541282 
   20700   -1287.0703    129.47135   -1157.5989    2007.2824    115839.94    10.472245   0.19693366 
   20800   -1277.0301     135.4776   -1141.5524    2100.4015    122862.47    10.472245   0.22354965 
   20900   -1283.4893    138.16388   -1145.3254    2142.0487     118718.1    10.472245   0.22467803 
   21000   -1285.4164    133.69391   -1151.7225    2072.7477    115962.47    10.472245   0.20848741 
   21100    -1289.444    127.47419   -1161.9698    1976.3191     112978.6    10.472245   0.20026901 
   21200   -1287.2512    139.49878   -1147.7524    2162.7445    116730.77    10.472245   0.20452072 
   21300   -1292.9808    146.07814   -1146.9026    2264.7488    112436.57    10.472245   0.19249426 
   21400   -1288.4246    129.58669   -1158.8379    2009.0706    113873.06    10.472245   0.22232009 
   21500   -1282.3796    133.58458   -1148.7951    2071.0527    118842.64    10.472245   0.22558587 
   21600   -1288.5633    136.81893   -1151.7444    2121.1971     114640.7    10.472245   0.20738036 
   21700   -1295.9405     130.6349   -1165.3056    2025.3217    108904.32    10.472245   0.17954085 
   21800   -1286.7531    136.55609    -1150.197     2117.122    116131.11    10.472245    0.1850982 
   21900   -1285.6375    133.66519   -1151.9723    2072.3024    117549.31    10.472245   0.20236043 
   22000   -1279.0797    123.33616   -1155.7436    1912.1644    118996.47    10.472245    0.1967394 
   22100   -1286.8752    132.49138   -1154.3838    2054.1041    115493.37    10.472245    0.1824966 
   22200   -1286.1194    142.75727   -1143.3621    2213.2631    118430.86    10.472245   0.21006786 
   22300   -1295.7849    141.38879   -1154.3962    2192.0466    109491.98    10.472245   0.19963142 
   22400   -1292.8392    134.94683   -1157.8923    2092.1726    111716.52    10.472245   0.17865306 
   22500   -1277.6536    137.07813   -1140.5754    2125.2156    122194.31    10.472245   0.22707917 
   22600   -1279.0255    131.18531   -1147.8402    2033.8552    120525.48    10.472245    0.2105024 
   22700   -1293.1269    135.18642   -1157.9404    2095.8871    111083.64    10.472245   0.19377249 
   22800   -1285.6625    145.23392   -1140.4286    2251.6604    117541.69    10.472245   0.20481086 
   22900   -1284.5817    137.32552   -1147.2561    2129.0511    116963.79    10.472245   0.21619439 
   23000   -1286.7993      131.488   -1155.3113    2038.5479    115805.19    10.472245   0.21655624 
   23100   -1281.4858    132.20661   -1149.2792    2049.6891    118192.62    10.472245    0.2339531 
   23200   -1278.0777    130.04129   -1148.0365    2016.1186    121230.55    10.472245   0.24207405 
   23300   -1282.1541    128.26492   -1153.8892    1988.5783    118629.62    10.472245   0.20424466 
   23400   -1293.8482    130.30247   -1163.5457    2020.1679    110735.64    10.472245   0.17452295 
   23500   -1281.9245    138.55014   -1143.3743    2148.0371    120082.78    10.472245    0.2040326 
   23600   -1290.1065     138.0656   -1152.0409     2140.525    114544.64    10.472245   0.19512257 
   23700   -1297.0612    140.66013   -1156.4011    2180.7497    110011.08    10.472245   0.18408529 
   23800   -1271.2348    134.44715   -1136.7876    2084.4257    125616.85    10.472245   0.22754833 
   23900   -1291.1738    137.30763   -1153.8661    2128.7736    112403.98    10.472245   0.18421852 
   24000   -1293.8685     136.1505    -1157.718    2110.8339     110751.3    10.472245    0.1764823 
   24100   -1283.6885      143.621   -1140.0675    2226.6542     119174.7    10.472245   0.18927774 
   24200   -1285.6392      134.426   -1151.2132    2084.0978    115985.66    10.472245   0.17912728 
   24300   -1292.2423    138.14404   -1154.0982    2141.7411    113244.73    10.472245   0.20134308 
   24400   -1285.0723    133.44125    -1151.631    2068.8305    117402.07    10.472245   0.20028883 
   24500    -1287.987    140.12659   -1147.8604     2172.478    114880.41    10.472245    0.2025689 
   24600   -1284.2239    136.79847   -1147.4254    2120.8799    118083.27    10.472245   0.19109156 
   24700   -1288.1982    129.48227   -1158.7159    2007.4518    114421.92    10.472245   0.20467345 
   24800    -1280.535     141.1774   -1139.3576    2188.7693    121516.41    10.472245   0.22267045 
   24900   -1285.4645    137.14357   -1148.3209    2126.2301    117395.41    10.472245   0.18980947 
   25000   -1296.2999    141.84522   -1154.4547    2199.1231    109944.89    10.472245   0.19263727 
   25100   -1277.5546    128.91221   -1148.6424    1998.6137    120927.49    10.472245   0.22981198 
   25200   -1274.2148    140.04597   -1134.1688     2171.228    125434.21    10.472245   0.22519404 
   25300    -1278.228    129.55827   -1148.6697    2008.6301    122476.75    10.472245   0.23793678 
   25400   -1285.7255    139.06093   -1146.6646    2155.9562    116934.41    10.472245   0.19961385 
   25500   -1289.2564    145.03386   -1144.2225    2248.5587    115916.91    10.472245   0.19227147 
   25600   -1292.9032    134.74298   -1158.1602    2089.0121    111912.12    10.472245   0.20116007 
   25700   -1283.3191    140.09409    -1143.225     2171.974    120071.84    10.472245   0.21081757 
   25800   -1283.8912    138.77636   -1145.1148    2151.5444    117652.59    10.472245   0.22259149 
   25900   -1290.6339     136.0201   -1154.6138    2108.8123    113804.89    10.472245    0.2005105 
   26000   -1291.6486    138.13338   -1153.5153    2141.5758    112887.14    10.472245   0.20011376 
   26100   -1281.8538    130.40157   -1151.4522    2021.7044    118677.43    10.472245   0.25095893 
   26200   -1279.8167     134.1325   -1145.6842    2079.5474    120827.81    10.472245   0.20962007 
   26300   -1290.4045    131.98415   -1158.4203    2046.2402    112805.96    10.472245   0.20500715 
   26400   -1284.9355     134.7166   -1150.2189    2088.6031    116657.46    10.472245   0.21808032 
   26500   -1283.5968     136.3462   -1147.2506     2113.868    118051.76    10.472245   0.23798447 
   26600   -1285.7058    128.13176    -1157.574    1986.5139    115878.52    10.472245   0.22337529 
   26700     -1290.81    139.48146   -1151.3286     2162.476    113496.54    10.472245   0.20784211 
   26800   -1283.0642    141.21231   -1141.8519    2189.3106    119412.89    10.472245   0.23045031 
   26900   -1290.3472    129.34387   -1161.0033     2005.306    111839.22    10.472245   0.18964536 
   27000   -1283.2676     126.6176     -1156.65    1963.0388    116068.83    10.472245   0.23512539 
   27100   -1282.4564    135.13757   -1147.3189    2095.1297    118231.44    10.472245   0.20010301 
   27200   -1292.1639    135.21842   -1156.9455    2096.3832    112255.95    10.472245   0.19483728 
   27300   -1295.5069     129.2181   -1166.2888    2003.3561       109205    10.472245   0.17935384 
   27400   -1291.4972    140.34237   -1151.1548    2175.8233    113588.22    10.472245   0.19970635 
   27500   -1287.6638    135.95855   -1151.7052    2107.8579    115538.56    10.472245   0.20456435 
   27600   -1290.1381     126.1974   -1163.9407    1956.5242    112638.79    10.472245   0.21829091 
   27700   -1289.0751    142.34202   -1146.7331    2206.8253    115845.55    10.472245   0.20622829 
   27800   -1290.9317     142.3419   -1148.5898    2206.8234    112939.86    10.472245   0.20484437 
   27900   -1287.1924     121.1376   -1166.0548    1878.0787    114296.14    10.472245   0.21289739 
   28000   -1292.4804    135.57821   -1156.9021    2101.9613    111209.04    10.472245   0.17969488 
   28100   -1290.7168    142.03903   -1148.6777    2202.1277    114432.08    10.472245    0.1937301 
   28200   -1275.8341    137.60186   -1138.2322    2133.3353     124133.3    10.472245   0.23663989 
   28300   -1290.2482    141.54859   -1148.6996    2194.5242    114521.13    10.472245   0.19366984 
   28400   -1288.9679    134.91812   -1154.0498    2091.7274    114714.26    10.472245   0.20996624 
   28500   -1284.9826    145.30157    -1139.681    2252.7091    118574.07    10.472245   0.21175322 
   28600   -1294.3263    134.88111   -1159.4452    2091.1536     110958.9    10.472245   0.19500094 
   28700   -1282.3385    131.57061   -1150.7679    2039.8287    118199.08    10.472245   0.22076048 
   28800   -1284.2918    139.57486    -1144.717    2163.9241    117473.99    10.472245   0.18373291 
   28900   -1285.5579    133.35095    -1152.207    2067.4305    116465.27    10.472245   0.19480127 
   29000   -1287.5734    133.38394   -1154.1894     2067.942       114551    10.472245   0.20190359 
   29100   -1285.3262    140.50646   -1144.8197    2178.3673    117971.95    10.472245   0.20185881 
   29200   -1279.8287    132.49063    -1147.338    2054.0925    119774.17    10.472245   0.20831042 
   29300   -1291.3913    133.43886   -1157.9525    2068.7935    113019.42    10.472245   0.18375332 
   29400   -1283.5541    140.04564   -1143.5085    2171.2228    118676.86    10.472245   0.24315582 
   29500   -1281.3785    141.59298   -1139.7855    2195.2123    120835.12    10.472245   0.21709926 
   29600   -1291.8617    138.66526   -1153.1964    2149.8219    112674.11    10.472245   0.19369613 
   29700   -1279.3507    126.32666    -1153.024    1958.5283    121327.08    10.472245   0.22077792 
   29800    -1282.003    144.03476   -1137.9682    2233.0689    120897.34    10.472245   0.23313839 
   29900   -1285.7232    131.16982   -1154.5533     2033.615    115578.97    10.472245   0.19124557 
   30000   -1287.4087    131.67755   -1155.7311    2041.4867    114478.86    10.472245   0.20344708 
   30100   -1279.3393    141.09387   -1138.2454    2187.4743    121262.58    10.472245   0.21893955 
   30200    -1289.751    138.33253   -1151.4184    2144.6634    114033.19    10.472245   0.20866374 
   30300   -1281.2638    130.90361   -1150.3602    2029.4878    119761.23    10.472245   0.20165283 
   30400   -1281.9472    134.77394   -1147.1733    2089.4921    119383.08    10.472245   0.20754463 
   30500   -1288.8014    127.26422   -1161.5372    1973.0638     113732.1    10.472245   0.21357218 
   30600   -1280.0082    130.92967   -1149.0785    2029.8917    119199.47    10.472245   0.21414193 
   30700   -1286.2561    140.41163   -1145.8445     2176.897    116582.85    10.472245   0.21546745 
   30800    -1289.539    133.75519   -1155.7838    2073.6978    113682.51    10.472245   0.19965657 
   30900   -1290.3932    127.69549   -1162.6978    1979.7501    112299.68    10.472245   0.19144729 
   31000   -1284.1913    138.09402   -1146.0973    2140.9656    119509.92    10.472245   0.20495156 
   31100   -1279.0636    130.94828   -1148.1153    2030.1803    120886.65    10.472245   0.24034452 
   31200   -1293.4288    128.53727   -1164.8915    1992.8007    110250.09    10.472245   0.21025892 
   31300    -1290.438    139.08801     -1151.35    2156.3761    113454.06    10.472245   0.19126264 
   31400   -1282.5482    131.73073   -1150.8175    2042.3111     118769.6    10.472245   0.22541065 
   31500   -1296.6539    137.83394   -1158.8199    2136.9334    108252.29    10.472245   0.20401088 
   31600   -1297.4356     140.9968   -1156.4388    2185.9694    109888.74    10.472245   0.18058676 
   31700   -1285.2452    140.62456   -1144.6206    2180.1983    116298.03    10.472245   0.20422207 
   31800   -1292.3827    134.35306   -1158.0296     2082.967     111480.9    10.472245   0.20124141 
   31900   -1286.9559    133.65286    -1153.303    2072.1112    115431.52    10.472245   0.17900053 
   32000   -1289.0337    137.21351   -1151.8201    2127.3145    113911.56    10.472245   0.19365043 
   32100   -1281.9946    137.00422   -1144.9904    2124.0698    119904.62    10.472245   0.19001967 
   32200   -1289.0114     143.0922   -1145.9191    2218.4559    114998.54    10.472245   0.19046268 
   32300   -1283.7256    125.88386   -1157.8417    1951.6632    116643.65    10.472245   0.20480043 
   32400   -1282.8642    138.79824   -1144.0659    2151.8836     118428.4    10.472245   0.23277557 
   32500   -1271.9686    149.71487   -1122.2537    2321.1315    128217.13    10.472245   0.21641178 
   32600   -1286.9342    144.62365   -1142.3105     2242.199    115888.05    10.472245   0.23186212 
   32700    -1289.746     131.4045   -1158.3415    2037.2534    113007.98    10.472245   0.21577627 
   32800   -1287.0856    137.99102   -1149.0946    2139.3687       114425    10.472245   0.19897024 
   32900   -1284.6301    142.93315   -1141.6969    2215.9899    117913.19    10.472245   0.22956245 
   33000   -1288.6742    138.86186   -1149.8123    2152.8699    114520.66    10.472245   0.19088887 
   33100    -1290.317    135.67376   -1154.6433    2103.4426    114023.84    10.472245   0.19570898 
   33200   -1279.2693    142.49013   -1136.7792    2209.1215    120494.72    10.472245   0.22615485 
   33300    -1295.258    144.19857   -1151.0595    2235.6086    111949.21    10.472245   0.17114293 
   33400   -1282.8058    129.54005   -1153.2657    2008.3476    117535.86    10.472245   0.20342631 
   33500   -1281.4007    141.79555   -1139.6052     2198.353    119517.13    10.472245   0.21294099 
   33600   -1294.4753     141.1963    -1153.279    2189.0623    111655.19    10.472245   0.18284435 
   33700   -1285.6042    129.04565   -1156.5586    2000.6826    116359.02    10.472245   0.21386213 
   33800   -1278.0112    134.53288   -1143.4783    2085.7548    121521.28    10.472245   0.22130458 
   33900   -1288.8654    128.30549   -1160.5599    1989.2073    112819.86    10.472245   0.22203632 
   34000   -1287.6141     129.6288   -1157.9853    2009.7234    114439.91    10.472245   0.20111754 
   34100   -1281.9424    136.33719   -1145.6052    2113.7283    119581.13    10.472245   0.23797282 
   34200   -1282.8327    137.15291   -1145.6798    2126.3749    118550.94    10.472245   0.24339477 
   34300   -1296.6015    131.27795   -1165.3236    2035.2914    108176.75    10.472245   0.20900221 
   34400   -1288.5239    139.70419   -1148.8197    2165.9291    115272.98    10.472245   0.21184312 
   34500   -1286.1443    136.95912   -1149.1852    2123.3704    115840.29    10.472245   0.20817381 
   34600   -1296.7825    133.41223   -1163.3703    2068.3806    109133.68    10.472245    0.1780909 
   34700   -1283.6204    133.65908   -1149.9613    2072.2077    117590.63    10.472245   0.21500945 
   34800   -1290.1482    136.99598   -1153.1522    2123.9419    114810.15    10.472245   0.20153111 
   34900    -1292.274    130.32479   -1161.9492     2020.514    111835.14    10.472245   0.19818463 
   35000   -1288.1415    141.07834   -1147.0632    2187.2336     116175.6    10.472245   0.19311311 
   35100   -1280.5375     135.3564   -1145.1811    2098.5224    119076.31    10.472245   0.24548573 
   35200   -1297.0586    132.32006   -1164.7386     2051.448     108371.4    10.472245    0.1798633 
   35300   -1284.2035    130.49946    -1153.704     2023.222    117031.86    10.472245   0.23211989 
   35400   -1288.3191    139.70642   -1148.6127    2165.9637    115565.35    10.472245   0.19295408 
   35500   -1289.8185    126.48741   -1163.3311    1961.0205    112221.57    10.472245   0.20093164 
   35600   -1288.7899    138.03501   -1150.7549    2140.0507    113944.93    10.472245   0.20436759 
   35700   -1286.6253     139.0257   -1147.5996      2155.41    115790.29    10.472245    0.2177198 
   35800   -1286.2702    133.61034   -1152.6599    2071.4521    116036.36    10.472245   0.23745805 
   35900   -1278.3605     139.3256   -1139.0349    2160.0596    121309.45    10.472245   0.22540369 
   36000   -1286.4694    135.06013   -1151.4093    2093.9292     117245.5    10.472245   0.21593238 
   36100   -1290.9694    136.29037    -1154.679    2113.0024    113356.17    10.472245   0.21755624 
   36200   -1282.8395    138.72751    -1144.112    2150.7871    118332.98    10.472245    0.2275387 
   36300   -1277.5012    142.98718    -1134.514    2216.8276     123403.5    10.472245   0.26703973 
   36400    -1291.532    141.97932   -1149.5526     2201.202    114104.99    10.472245   0.20054551 
   36500    -1286.827    131.64828   -1155.1787    2041.0328    115969.47    10.472245   0.19055744 
   36600   -1279.4562    141.88328   -1137.5729    2199.7131    122076.85    10.472245   0.21182215 
   36700   -1283.2157    133.61562   -1149.6001    2071.5339    117183.87    10.472245   0.21160172 
   36800   -1283.8181    131.14456   -1152.6735    2033.2234    117404.43    10.472245   0.22757795 
   36900   -1283.4141    142.50046   -1140.9137    2209.2817    119049.42    10.472245   0.23939311 
   37000   -1285.5251    133.93992   -1151.5852    2076.5617     116589.4    10.472245   0.20376472 
   37100   -1284.1079     127.1781   -1156.9298    1971.7287    116293.55    10.472245   0.21663454 
   37200   -1275.8343    133.08537    -1142.749    2063.3131    122325.94    10.472245    0.2301785 
   37300   -1279.2565    131.06037   -1148.1961    2031.9181    120794.88    10.472245   0.27818596 
   37400   -1285.9605    135.98429   -1149.9762     2108.257    116582.38    10.472245   0.20110172 
   37500   -1291.0822    128.83131   -1162.2509    1997.3595    112397.61    10.472245   0.20322065 
   37600   -1284.1729    140.48299   -1143.6899    2178.0034    117785.46    10.472245   0.23190163 
   37700   -1281.2349    128.83836   -1152.3966    1997.4689     117358.1    10.472245   0.23396275 
   37800   -1291.7408    135.17585   -1156.5649    2095.7233    111634.62    10.472245    0.1881906 
   37900    -1285.733    145.07659   -1140.6565    2249.2212    118644.36    10.472245   0.19996228 
   38000    -1287.948    135.34477   -1152.6033    2098.3421    114872.07    10.472245   0.21053785 
   38100   -1284.5876    128.71235   -1155.8752    1995.5152    115985.89    10.472245   0.20779175 
   38200   -1279.1718    137.18571   -1141.9861    2126.8835    122277.33    10.472245   0.24351274 
   38300   -1278.4676    139.74737   -1138.7202    2166.5985     122655.9    10.472245   0.26964447 
   38400   -1291.2057    134.71716   -1156.4885    2088.6119    113116.97    10.472245   0.22516755 
   38500   -1288.8647    143.87418   -1144.9905    2230.5793    113957.28    10.472245   0.22254185 
   38600   -1281.8173    136.04523   -1145.7721    2109.2018    119774.52    10.472245   0.19817925 
   38700   -1288.7544    128.47287   -1160.2815    1991.8023    113630.34    10.472245   0.18397952 
   38800   -1286.5852     141.3383   -1145.2469    2191.2639    117022.81    10.472245   0.19771161 
   38900   -1279.5541    130.67095   -1148.8832    2025.8807    121026.99    10.472245    0.2066971 
   39000   -1289.4918    123.01849   -1166.4733    1907.2394    112430.65    10.472245   0.19612598 
   39100   -1295.2059    127.66168   -1167.5442    1979.2259    108549.53    10.472245   0.15772914 
   39200   -1284.0978    135.19948   -1148.8983    2096.0896     118488.1    10.472245   0.20627985 
   39300   -1280.0712    132.73873   -1147.3325    2057.9389    120175.67    10.472245   0.23606477 
   39400   -1291.8607    130.62242   -1161.2382    2025.1283    112028.21    10.472245   0.21438982 
   39500   -1281.7897    135.66387   -1146.1258    2103.2893    119928.33    10.472245   0.20192569 
   39600   -1275.4151    128.42114   -1146.9939    1991.0003    121958.72    10.472245   0.26291523 
   39700   -1295.1382    134.86412    -1160.274    2090.8902    110265.87    10.472245   0.17649631 
   39800   -1285.5555     125.4809   -1160.0746    1945.4159    114868.14    10.472245   0.22142943 
   39900   -1291.0069    137.72364   -1153.2833    2135.2233    112867.28    10.472245   0.18280925 
   40000   -1289.1312    144.23679   -1144.8945    2236.2011    115797.43    10.472245   0.18975656 
   40100   -1288.7217    134.89854   -1153.8231     2091.424    114617.47    10.472245   0.18072477 
   40200   -1288.3971    129.86627   -1158.5309    2013.4052    114770.74    10.472245   0.19482399 
   40300   -1279.5044    132.68756   -1146.8168    2057.1456    120527.91    10.472245   0.22771042 
   40400    -1283.714     133.3443   -1150.3697    2067.3274    118251.53    10.472245   0.21746168 
   40500   -1290.5069    129.18676   -1161.3201    2002.8703    111922.22    10.472245   0.21407484 
   40600   -1289.1841    129.96598   -1159.2181    2014.9511    113479.36    10.472245   0.18797878 
   40700    -1286.594    140.00206   -1146.5919    2170.5472    116484.17    10.472245   0.18409738 
   40800   -1295.2952    136.49055   -1158.8046     2116.106    110419.76    10.472245   0.18885986 
   40900   -1293.2442    122.27422     -1170.97    1895.7005    110850.71    10.472245   0.17457951 
   41000   -1284.1551    132.52583   -1151.6292    2054.6382    117365.86    10.472245   0.18474008 
   41100   -1284.1359    133.70737   -1150.4286    2072.9563     117626.2    10.472245   0.19875466 
   41200   -1288.6843    134.14452   -1154.5398    2079.7338    114075.82    10.472245   0.20146949 
   41300   -1282.6035    130.35642   -1152.2471    2021.0043    118953.59    10.472245   0.20720185 
   41400   -1282.3325    138.04493   -1144.2875    2140.2045    119180.28    10.472245    0.2071578 
   41500    -1294.282    134.79763   -1159.4844    2089.8595    111124.56    10.472245   0.16975251 
   41600   -1285.5234      133.387   -1152.1364    2067.9894    116854.87    10.472245   0.21617625 
   41700   -1281.7985    135.11422   -1146.6843    2094.7678    118798.94    10.472245   0.23899775 
   41800   -1287.2198    134.54325   -1152.6766    2085.9156     115631.4    10.472245    0.2145694 
   41900   -1294.8683    134.85061   -1160.0177    2090.6808    109180.93    10.472245   0.19894457 
   42000   -1283.8617     141.2723   -1142.5894    2190.2406     118907.6    10.472245   0.21355973 
   42100    -1281.873    132.13583   -1149.7371    2048.5918    118520.31    10.472245   0.23852778 
   42200    -1286.191    134.69146   -1151.4996    2088.2134    116548.92    10.472245   0.21936046 
   42300   -1281.1303    126.72365   -1154.4067     1964.683    118820.89    10.472245   0.22398516 
   42400   -1288.9379     128.0544   -1160.8835    1985.3146    112808.28    10.472245   0.23177705 
   42500   -1282.2227    137.36671    -1144.856    2129.6895    118844.15    10.472245   0.19989594 
   42600   -1285.7858    131.32568   -1154.4601    2036.0315    115283.95    10.472245   0.21340994 
   42700   -1296.9704    123.02634    -1173.944     1907.361    107169.99    10.472245   0.18181983 
   42800     -1290.01     138.8044   -1151.2056    2151.9792    113627.92    10.472245   0.19511329 
   42900   -1289.6937    140.79767    -1148.896    2182.8821    115200.03    10.472245   0.18526775 
   43000   -1295.3596    135.07034   -1160.2893    2094.0874    110547.34    10.472245   0.18973396 
   43100   -1289.1075    139.47449    -1149.633    2162.3679    115486.55    10.472245   0.19972005 
   43200   -1282.6009    136.61173   -1145.9892    2117.9847    118862.84    10.472245   0.19308841 
   43300   -1285.2885    127.31542   -1157.9731    1973.8575    115436.56    10.472245   0.19044495 
   43400   -1289.5611     137.5301    -1152.031    2132.2227    114241.52    10.472245   0.17744103 
   43500   -1275.9905    137.05743   -1138.9331    2124.8947    123383.51    10.472245   0.20712993 
   43600    -1287.164    140.37515   -1146.7888    2176.3315    116684.64    10.472245   0.19947639 
   43700   -1289.2301    133.52055   -1155.7096    2070.0599    114633.12    10.472245   0.18182142 
   43800   -1279.8467    132.80024   -1147.0464    2058.8926    119449.49    10.472245   0.20394225 
   43900   -1281.4018    140.48342   -1140.9183    2178.0101    120152.93    10.472245   0.20361082 
   44000   -1286.8521    130.69168   -1156.1604     2026.202       115058    10.472245   0.18414634 
   44100   -1286.9557    137.84058   -1149.1152    2137.0363    116418.25    10.472245   0.19852091 
   44200   -1277.8707    138.79762   -1139.0731     2151.874    123333.44    10.472245   0.21066939 
   44300   -1288.0391    131.31526   -1156.7239    2035.8699    113965.34    10.472245   0.20865454 
   44400   -1283.2902    138.51553   -1144.7747    2147.5006    118999.66    10.472245   0.22544988 
   44500   -1289.1933    137.59907   -1151.5942    2133.2921     114751.9    10.472245    0.1982755 
   44600   -1289.5109    132.82192    -1156.689    2059.2286    113464.02    10.472245   0.19494398 
   44700   -1282.2903    136.08763   -1146.2027    2109.8591    119690.69    10.472245   0.21077056 
   44800   -1288.4888    130.01039   -1158.4784    2015.6396    113916.85    10.472245   0.19961608 
   44900   -1290.2045    133.89326   -1156.3112    2075.8384    112644.98    10.472245   0.18019362 
   45000   -1284.2653    138.76113   -1145.5042    2151.3083    117137.96    10.472245   0.20577169 
   45100   -1287.8222     134.1921   -1153.6301    2080.4715    114754.05    10.472245   0.18964613 
   45200   -1299.7677    129.59715   -1170.1705    2009.2328    107147.74    10.472245   0.16372317 
   45300   -1294.4026    138.61059    -1155.792    2148.9744    110618.52    10.472245    0.1753579 
   45400   -1290.7222    143.25699   -1147.4652    2221.0106    113943.44    10.472245   0.17078998 
   45500   -1289.1004    130.23076   -1158.8696    2019.0562    113248.88    10.472245   0.18541963 
   45600   -1287.5035    128.80189   -1158.7016    1996.9033    115418.38    10.472245   0.21563004 
   45700   -1278.0426    134.95542   -1143.0872    2092.3057    121166.24    10.472245   0.21788607 
   45800   -1289.2234    133.07889   -1156.1445    2063.2126    114169.31    10.472245   0.20782591 
   45900   -1296.0518    124.62872   -1171.4231    1932.2038    108622.82    10.472245   0.20075727 
   46000    -1285.773    130.16449   -1155.6085    2018.0287    115929.72    10.472245   0.20070252 
   46100   -1286.6331    137.64844   -1148.9847    2134.0575    116151.66    10.472245   0.20174724 
   46200   -1299.1734    143.93172   -1155.2417    2231.4714    108526.42    10.472245    0.1809645 
   46300    -1286.264    127.75915   -1158.5048     1980.737    114751.37    10.472245   0.19987386 
   46400   -1278.8982    132.92057   -1145.9777    2060.7581    121430.03    10.472245   0.19218275 
   46500   -1291.8616    136.40338   -1155.4582    2114.7545    112532.03    10.472245   0.16861278 
   46600   -1302.4347    135.55225   -1166.8825    2101.5588    106006.69    10.472245   0.16037752 
   46700   -1290.4353    141.87319   -1148.5621    2199.5567    114209.61    10.472245     0.197538 
   46800   -1284.9467    137.62323   -1147.3235    2133.6666    117977.29    10.472245    0.2205183 
   46900   -1295.2065     131.9339   -1163.2726     2045.461    108936.59    10.472245    0.1967115 
   47000   -1286.7314    130.52064   -1156.2108    2023.5504    115336.62    10.472245   0.19304505 
   47100   -1288.0028    139.06691   -1148.9359     2156.049     115648.2    10.472245   0.20612433 
   47200    -1292.267    146.44628   -1145.8207    2270.4563    113845.77    10.472245   0.19471769 
   47300   -1291.4908    132.83741   -1158.6534    2059.4688    112371.92    10.472245   0.17902885 
   47400   -1284.5558    133.11784    -1151.438    2063.8165    117757.22    10.472245   0.23808222 
   47500   -1287.1387    139.64336   -1147.4954     2164.986    116301.04    10.472245   0.18638185 
   47600   -1291.6434    133.80413   -1157.8393    2074.4564    112045.14    10.472245   0.19620153 
   47700   -1281.6159    137.61314   -1144.0028    2133.5102    119363.85    10.472245   0.22090275 
   47800   -1283.5449    136.31835   -1147.2266    2113.4362    117145.51    10.472245   0.24199345 
   47900   -1287.5055    132.27378   -1155.2317    2050.7305    115317.78    10.472245   0.21450006 
   48000   -1295.6063    131.53336   -1164.0729    2039.2513    110778.35    10.472245   0.18988001 
   48100    -1286.748    139.83999    -1146.908    2168.0346    117277.23    10.472245   0.20501709 
   48200   -1279.5184    126.46936   -1153.0491    1960.7406    120011.62    10.472245   0.20915109 
   48300   -1300.9935     136.8192   -1164.1743    2121.2012    106321.94    10.472245   0.17282003 
   48400   -1282.3246     129.9247   -1152.3999    2014.3111    118114.96    10.472245   0.20219574 
   48500   -1287.5839    138.66134   -1148.9225    2149.7611     115509.2    10.472245   0.21051184 
   48600   -1298.1424    132.76425   -1165.3781    2058.3346    107582.27    10.472245   0.18177004 
   48700   -1289.4166    136.55355   -1152.8631    2117.0827    113972.13    10.472245    0.2020206 
   48800   -1283.8581    131.80761   -1152.0505    2043.5031    117593.39    10.472245   0.21591212 
   48900   -1279.3994    136.75719   -1142.6422    2120.2398    120408.91    10.472245   0.24685922 
   49000   -1283.2405     138.7807   -1144.4598    2151.6116    119566.32    10.472245   0.23444986 
   49100   -1294.3539    139.58563   -1154.7683    2164.0911    110883.59    10.472245   0.18224738 
   49200   -1288.4085    139.01339   -1149.3951    2155.2192    114060.04    10.472245   0.20219671 
   49300   -1280.9008    143.83427   -1137.0666    2229.9607    119827.29    10.472245   0.19962786 
   49400   -1282.3674    132.56766   -1149.7998    2055.2867    117989.76    10.472245   0.19765668 
   49500   -1286.0712    130.01296   -1156.0583    2015.6795    115732.32    10.472245   0.19425137 
   49600    -1284.775    144.86757   -1139.9074    2245.9805    117965.26    10.472245   0.21581684 
   49700   -1282.7009    135.61819   -1147.0828    2102.5811    117871.87    10.472245   0.21601033 
   49800   -1285.9361    133.61921   -1152.3169    2071.5895    116704.87    10.472245   0.19898292 
   49900   -1288.4644    132.27336    -1156.191     2050.724    114566.01    10.472245   0.19893428 
   50000   -1293.1021    138.66629   -1154.4358    2149.8378     111606.7    10.472245   0.19811823 
   50100   -1282.4776    141.72597   -1140.7516    2197.2741    119675.69    10.472245    0.2287784 
   50200   -1287.2192    130.30631   -1156.9129    2020.2275    114549.88    10.472245   0.21585934 
   50300   -1294.1916    141.59261    -1152.599    2195.2066    111373.81    10.472245   0.16718924 
   50400   -1279.7106     138.8851   -1140.8255    2153.2303    121320.31    10.472245   0.19378533 
   50500   -1282.7035    134.76313   -1147.9404    2089.3245    118095.72    10.472245   0.23077013 
   50600   -1292.5528    136.48522   -1156.0675    2116.0233    111973.17    10.472245   0.18159557 
   50700    -1274.625     136.1098   -1138.5152     2110.203    123043.86    10.472245   0.21811566 
   50800   -1291.4246    145.01389   -1146.4107    2248.2491    113757.17    10.472245   0.19394521 
   50900   -1282.0606    128.40375   -1153.6568    1990.7307    119365.94    10.472245   0.20023025 
   51000    -1288.601    131.58459   -1157.0164    2040.0455    114431.36    10.472245   0.20628328 
   51100   -1291.6278    135.86539   -1155.7624    2106.4137    111843.85    10.472245    0.1882652 
   51200   -1279.7513    135.69087   -1144.0604    2103.7079     120828.9    10.472245   0.21389758 
   51300   -1296.4062    134.84737   -1161.5588    2090.6306    109789.99    10.472245   0.19763719 
   51400   -1290.0023    138.74198   -1151.2603    2151.0114    114819.22    10.472245    0.2124617 
   51500   -1283.5301    138.16012     -1145.37    2141.9904     118595.2    10.472245    0.2327288 
   51600    -1288.415    136.11076   -1152.3043    2110.2177    114108.82    10.472245   0.22160307 
   51700   -1290.2374    141.98028   -1148.2571     2201.217    113882.06    10.472245   0.18971624 
   51800   -1279.2887    139.15852   -1140.1302    2157.4693    121354.55    10.472245   0.22584782 
   51900   -1289.3373    134.86311   -1154.4742    2090.8746    115168.93    10.472245   0.18023304 
   52000   -1287.3437    138.03864   -1149.3051     2140.107    115580.41    10.472245   0.23558784 
   52100   -1279.2337    139.12444   -1140.1093    2156.9409    121633.55    10.472245   0.23461741 
   52200   -1281.2829    129.31295     -1151.97    2004.8267    119775.45    10.472245   0.23012802 
   52300   -1290.2945    132.61916   -1157.6753    2056.0851    113753.34    10.472245   0.17649518 
   52400   -1285.6574    141.52577   -1144.1316    2194.1703    117531.74    10.472245   0.20881322 
   52500   -1288.9753    135.56999   -1153.4053    2101.8339    115013.85    10.472245   0.19196091 
   52600   -1291.8881    135.75396   -1156.1342    2104.6861    112005.24    10.472245   0.18337408 
   52700   -1290.2925    141.36062   -1148.9319    2191.6099    115293.43    10.472245   0.20726089 
   52800   -1292.5495    138.95258   -1153.5969    2154.2764    112903.13    10.472245   0.19373234 
   52900   -1291.2135    132.16655   -1159.0469    2049.0679     112127.7    10.472245   0.19549083 
   53000   -1280.3204    136.44351   -1143.8769    2115.3767    119758.09    10.472245   0.24080483 
   53100   -1287.7266     139.9937   -1147.7329    2170.4176    116541.49    10.472245   0.20242204 
   53200   -1289.7202    134.82566   -1154.8945     2090.294    112838.17    10.472245   0.18178856 
   53300   -1286.1428    136.71394   -1149.4289    2119.5692    116751.16    10.472245   0.21958557 
   53400    -1279.203     143.4083   -1135.7947    2223.3565    122448.46    10.472245   0.22523204 
   53500   -1292.9418    137.98511   -1154.9567     2139.277    112443.45    10.472245   0.16748568 
   53600   -1291.0336    138.44455    -1152.589       2146.4    112810.82    10.472245   0.21453653 
   53700   -1290.7924    150.76405   -1140.0283    2337.3977    115179.79    10.472245   0.19797847 
   53800   -1288.1894    138.92079   -1149.2686    2153.7836    114858.37    10.472245   0.19695642 
   53900   -1290.4665    138.60271   -1151.8638    2148.8522    113480.18    10.472245    0.1974391 
   54000   -1285.8398    137.60241   -1148.2374    2133.3438    116896.63    10.472245   0.21007357 
   54100   -1282.6029    134.47688    -1148.126    2084.8866    119476.97    10.472245   0.19667586 
   54200   -1295.3552    132.86383   -1162.4914    2059.8783    109314.42    10.472245   0.17052841 
   54300   -1285.3907    135.99575   -1149.3949    2108.4346    117505.99    10.472245   0.22129577 
   54400   -1284.4121     135.2604   -1149.1517    2097.0341    116851.74    10.472245   0.20294948 
   54500   -1291.6379    132.13013   -1159.5078    2048.5034    111803.37    10.472245   0.22232575 
   54600   -1281.7448    139.94265   -1141.8022    2169.6262    120512.88    10.472245   0.22827706 
   54700   -1282.4056    133.43361    -1148.972     2068.712    118113.27    10.472245   0.22479717 
   54800   -1292.5581    131.04857   -1161.5096    2031.7352    111516.48    10.472245   0.19111459 
   54900   -1289.7022    139.12906   -1150.5732    2157.0125    114061.78    10.472245   0.21289236 
   55000    -1281.656    140.79648   -1140.8595    2182.8637    119948.81    10.472245   0.19241559 
   55100   -1292.9997    135.74193   -1157.2577    2104.4995    111321.71    10.472245   0.19557145 
   55200   -1285.8668    137.77581    -1148.091    2136.0322    116180.86    10.472245    0.1956648 
   55300   -1278.9351    131.98611    -1146.949    2046.2705    119721.19    10.472245   0.20681781 
   55400    -1287.946    125.63226   -1162.3137    1947.7624    115801.73    10.472245   0.18633219 
   55500   -1284.7598    138.41511   -1146.3447    2145.9437       117908    10.472245    0.1893404 
   55600   -1283.0744    127.91115   -1155.1632    1983.0936     117417.7    10.472245   0.22650642 
   55700   -1294.3999    128.68946   -1165.7104    1995.1604    109939.55    10.472245    0.1793854 
   55800   -1289.5703    142.38509   -1147.1853     2207.493    115652.17    10.472245   0.19964373 
   55900   -1290.8907    144.07255   -1146.8181    2233.6548    112423.28    10.472245   0.20544294 
   56000     -1290.12    127.54553   -1162.5745    1977.4252    112515.97    10.472245   0.18059494 
   56100   -1292.5588    139.36243   -1153.1963    2160.6307    112362.94    10.472245   0.19388968 
   56200   -1288.2277    138.16551   -1150.0622    2142.0739     115248.5    10.472245   0.20812896 
   56300   -1291.2267    141.48216   -1149.7446    2193.4942    113073.63    10.472245   0.18214459 
   56400   -1288.6729    131.20401   -1157.4689    2034.1451    113923.83    10.472245   0.20215995 
   56500    -1286.339    135.48097    -1150.858    2100.4537    116286.04    10.472245   0.21995459 
   56600   -1278.6356    135.90001   -1142.7356    2106.9504    120237.51    10.472245   0.22506199 
   56700   -1289.6436    133.79403   -1155.8496    2074.2999    113687.46    10.472245   0.19983286 
   56800   -1284.0763    132.38816   -1151.6882    2052.5038    116928.91    10.472245    0.2326982 
   56900   -1285.5703    143.49253   -1142.0778    2224.6623    117660.63    10.472245   0.20528344 
   57000   -1290.8188    130.36847   -1160.4503    2021.1911    111620.36    10.472245   0.19993117 
   57100   -1286.0778    134.06421   -1152.0136    2078.4887    116485.66    10.472245   0.20214876 
   57200   -1287.2051    142.21076   -1144.9944    2204.7902    115566.51    10.472245   0.21111655 
   57300   -1292.5229    141.15861   -1151.3643     2188.478    112642.96    10.472245   0.18339386 
   57400   -1292.0768    134.24689   -1157.8299    2081.3208    111659.14    10.472245   0.18565252 
   57500   -1293.8103     142.6856   -1151.1247     2212.152     110654.5    10.472245   0.18833478 
   57600   -1280.7956    137.50588   -1143.2898    2131.8472    120273.16    10.472245   0.20671481 
   57700    -1292.584    132.96154   -1159.6225    2061.3933    111922.94    10.472245   0.18796097 
   57800   -1288.7802    133.41025   -1155.3699      2068.35    114438.67    10.472245   0.19126928 
   57900    -1290.923    141.92096    -1149.002    2200.2973    113534.62    10.472245   0.18662953 
   58000   -1278.8472    142.68601   -1136.1612    2212.1584    123249.95    10.472245   0.23654665 
   58100   -1294.4748    144.78895   -1149.6859    2244.7616    111549.24    10.472245   0.19522088 
   58200   -1287.0238    132.78016   -1154.2437    2058.5812    115427.89    10.472245   0.20599609 
   58300   -1278.6532    139.43415    -1139.219    2161.7426    121999.51    10.472245   0.25730339 
   58400   -1278.4725    134.35454    -1144.118    2082.9898    121157.35    10.472245   0.23422745 
   58500   -1281.8686    131.96339   -1149.9052    2045.9183    118448.44    10.472245   0.23580277 
   58600   -1283.8686    127.72585   -1156.1428    1980.2209     116905.1    10.472245   0.21109065 
   58700   -1288.7446    127.52039   -1161.2242    1977.0354    113742.56    10.472245    0.1901052 
   58800   -1281.3367    136.67115   -1144.6656    2118.9058    119027.04    10.472245   0.20974074 
   58900    -1285.137    133.14241   -1151.9946    2064.1974    116536.25    10.472245   0.20663991 
   59000   -1291.8446    132.36188   -1159.4827    2052.0962    111428.84    10.472245    0.2002773 
   59100   -1280.3979    133.34111   -1147.0568     2067.278    120483.09    10.472245   0.22809365 
   59200    -1281.829    134.46834   -1147.3607    2084.7542    119178.27    10.472245   0.22921065 
   59300   -1296.0393    134.41715   -1161.6221    2083.9606    109274.27    10.472245   0.20609141 
   59400   -1285.9239     134.4128   -1151.5111    2083.8931    116494.52    10.472245   0.19914831 
   59500   -1283.9515    136.04543    -1147.906     2109.205    117543.15    10.472245   0.20191922 
   59600   -1292.8973    132.28687   -1160.6104    2050.9334    112845.75    10.472245   0.19699472 
   59700   -1287.0912    124.54489   -1162.5463    1930.9041    113821.35    10.472245   0.20053591 
   59800   -1284.4672    140.58046   -1143.8868    2179.5145    117984.48    10.472245   0.18666155 
   59900   -1286.6801    130.76865   -1155.9114    2027.3955    116321.73    10.472245   0.21681659 
   60000   -1297.5617    134.52639   -1163.0353    2085.6542    108464.03    10.472245   0.17704928 
   60100   -1285.5831    139.07466   -1146.5084    2156.1691    116992.06    10.472245   0.24120353 
   60200   -1284.5526    140.02806   -1144.5246    2170.9503    118147.92    10.472245    0.2186415 
   60300   -1290.2347    129.55285   -1160.6819     2008.546     113679.2    10.472245   0.22509639 
   60400   -1289.2457    141.46033   -1147.7854    2193.1558    115302.18    10.472245   0.20856576 
   60500   -1295.8719    145.66184     -1150.21    2258.2946    110671.86    10.472245   0.19108289 
   60600   -1287.4383    124.19713   -1163.2412    1925.5126    113508.18    10.472245   0.21433098 
   60700   -1289.3498    139.05622   -1150.2936    2155.8833    114129.47    10.472245   0.22358812 
   60800   -1285.2895    137.63603   -1147.6535     2133.865     116929.3    10.472245   0.20841203 
   60900   -1293.3623    134.99563   -1158.3666    2092.9292     112197.7    10.472245   0.17957006 
   61000   -1286.5442    129.46604   -1157.0782    2007.2002    115924.61    10.472245   0.20442354 
   61100    -1280.547     135.1026   -1145.4444    2094.5876    120611.35    10.472245   0.21615646 
   61200    -1286.487    128.96647   -1157.5206     1999.455    113686.27    10.472245   0.23172225 
   61300   -1298.2418    126.72797   -1171.5138      1964.75    106120.11    10.472245   0.20327705 
   61400   -1284.1865    132.71745    -1151.469     2057.609    117311.14    10.472245   0.20815841 
   61500   -1280.1007    135.27939   -1144.8213    2097.3285    120074.68    10.472245   0.23041795 
   61600   -1286.9935    130.68474   -1156.3088    2026.0945     114414.8    10.472245   0.20532499 
   61700   -1288.8023    132.03288   -1156.7694    2046.9956       114002    10.472245   0.21343695 
   61800   -1281.1074    136.50786   -1144.5995    2116.3743    119588.93    10.472245   0.24992655 
   61900   -1292.7849     141.7517   -1151.0332    2197.6731    112973.13    10.472245   0.18849163 
   62000    -1290.483     127.6731   -1162.8099     1979.403    111632.76    10.472245   0.21157172 
   62100   -1285.6291    133.04117   -1152.5879    2062.6278     115998.5    10.472245   0.20829254 
   62200   -1281.2308    137.20114   -1144.0297    2127.1227    119872.52    10.472245    0.2378219 
   62300   -1281.8308    143.84711   -1137.9837    2230.1596    121830.14    10.472245   0.24288444 
   62400   -1286.0463    132.00479   -1154.0415    2046.5601     115520.9    10.472245   0.21585282 
   62500   -1291.6861    145.41787   -1146.2682    2254.5122    114514.15    10.472245   0.20474466 
   62600   -1276.3561    145.78628   -1130.5698    2260.2239    123354.64    10.472245   0.26988216 
   62700   -1285.8885    137.53414   -1148.3544    2132.2854    116295.85    10.472245   0.19757121 
   62800   -1291.4679    140.46725   -1151.0006    2177.7594    113298.32    10.472245   0.18943839 
   62900   -1291.4265    134.46354    -1156.963    2084.6798    112179.65    10.472245   0.18388311 
   63000   -1284.9588    137.57645   -1147.3824    2132.9413    117245.12    10.472245    0.2094389 
   63100   -1287.7564    142.13464   -1145.6218    2203.6101    116993.15    10.472245   0.20741873 
   63200   -1293.2608    137.40807   -1155.8527    2130.3308    111585.24    10.472245   0.18492884 
   63300    -1282.184    134.75583   -1147.4282    2089.2114     120263.7    10.472245   0.20710929 
   63400   -1284.0929    140.08783   -1144.0051    2171.8769    118495.04    10.472245   0.23270871 
   63500     -1291.23    131.17554   -1160.0544    2033.7037    112270.55    10.472245   0.19819411 
   63600   -1282.8898    135.03674   -1147.8531    2093.5665    118883.65    10.472245    0.2108213 
   63700   -1279.5499    134.89788   -1144.6521    2091.4136    120490.39    10.472245   0.22217291 
   63800   -1276.8375    121.07467   -1155.7628     1877.103    121199.19    10.472245   0.23274697 
   63900   -1294.8308    125.83869   -1168.9921    1950.9628    109444.35    10.472245   0.18726223 
   64000   -1284.3307    129.51352   -1154.8172    2007.9362    117453.86    10.472245   0.21462805 
   64100   -1282.3827     135.1109   -1147.2718    2094.7162    117551.98    10.472245    0.2092971 
   64200   -1292.2357    129.73347   -1162.5022    2011.3463    112511.17    10.472245   0.17496836 
   64300    -1289.416    137.77836   -1151.6376    2136.0718    113812.58    10.472245   0.19940278 
   64400   -1280.4723    136.42162   -1144.0507    2115.0372    120105.18    10.472245   0.22704627 
   64500   -1294.8809    134.95386    -1159.927    2092.2815    110400.68    10.472245   0.20328965 
   64600   -1283.2807    129.74067     -1153.54    2011.4579    117365.15    10.472245   0.20680524 
   64700   -1290.3598    139.29034   -1151.0694    2159.5129    113888.39    10.472245   0.18700181 
   64800   -1288.7022    132.53492   -1156.1673     2054.779    113342.69    10.472245   0.18997639 
   64900   -1294.3547    131.63586   -1162.7189    2040.8403    110123.54    10.472245   0.17881178 
   65000   -1286.3868    140.62828   -1145.7585     2180.256     116660.4    10.472245   0.19848574 
   65100   -1289.9345    137.08585   -1152.8487    2125.3353    114020.72    10.472245   0.20964276 
   65200   -1291.5776    133.14342   -1158.4342    2064.2131    112459.15    10.472245   0.18045378 
   65300   -1287.5243     134.4855   -1153.0388    2085.0203    115148.19    10.472245   0.20410928 
   65400   -1275.8708    133.21543   -1142.6554    2065.3295    121710.01    10.472245   0.22386774 
   65500   -1287.2171    136.09079   -1151.1263    2109.9081    116112.67    10.472245   0.20576252 
   65600    -1287.355    137.49649   -1149.8585    2131.7017    116679.37    10.472245   0.17859401 
   65700   -1286.8975    126.04513   -1160.8524    1954.1634    113989.87    10.472245   0.20663654 
   65800   -1297.9504    137.40726   -1160.5431    2130.3183    108152.55    10.472245   0.16894071 
   65900   -1280.8386    134.07303   -1146.7656    2078.6255    119770.31    10.472245   0.20638451 
   66000   -1289.0105    132.67108   -1156.3394    2056.8901    114598.05    10.472245   0.24926304 
   66100   -1289.1758    132.63416   -1156.5417    2056.3177    113051.56    10.472245   0.21548341 
   66200   -1284.7984    142.01413   -1142.7843    2201.7418    118800.95    10.472245   0.20726927 
   66300   -1287.8371    128.75777   -1159.0793    1996.2194    114992.36    10.472245   0.19735217 
   66400   -1288.5257    133.59083   -1154.9349    2071.1496     114468.7    10.472245   0.21027286 
   66500    -1287.635    144.59762   -1143.0374    2241.7953    115242.11    10.472245   0.20961964 
   66600   -1290.1291    131.60148   -1158.5276    2040.3073    113701.65    10.472245   0.19433215 
   66700   -1289.7765    143.26959   -1146.5069     2221.206    114683.15    10.472245   0.17935459 
   66800   -1286.3861    142.14675   -1144.2393    2203.7979    116722.35    10.472245   0.18568418 
   66900   -1288.3303    128.91079   -1159.4196    1998.5917    114527.67    10.472245    0.1836546 
   67000   -1281.8431    136.28737   -1145.5558    2112.9558     118514.3    10.472245   0.19220242 
   67100    -1280.587    122.71999    -1157.867    1902.6116    117926.29    10.472245   0.22167378 
   67200   -1296.4511    137.40269   -1159.0484    2130.2474    110526.05    10.472245   0.19792578 
   67300   -1289.7414    138.07432   -1151.6671    2140.6602    114631.86    10.472245   0.19681893 
   67400   -1283.5416    142.19976   -1141.3418    2204.6198    119995.21    10.472245   0.20385528 
   67500   -1287.7878    129.80842   -1157.9793    2012.5083    115722.88    10.472245   0.20270687 
   67600   -1289.4164    135.28004   -1154.1363    2097.3386    113859.98    10.472245   0.19608064 
   67700   -1280.6928    140.33631   -1140.3565    2175.7294     120663.1    10.472245   0.21940924 
   67800   -1291.5143    131.18735    -1160.327    2033.8867    111593.68    10.472245   0.19611761 
   67900   -1289.4138    138.99544   -1150.4183     2154.941    114349.82    10.472245   0.19112448 
   68000   -1276.6503    136.30345   -1140.3468    2113.2052     122955.3    10.472245   0.21779397 
   68100   -1287.9128    130.82269   -1157.0901    2028.2331    115066.28    10.472245   0.23977241 
   68200   -1283.9998      136.564   -1147.4358    2117.2447    117179.16    10.472245   0.21423596 
   68300   -1273.2281      133.643   -1139.5851    2071.9583    123857.92    10.472245   0.24243383 
   68400   -1287.8345    138.18569   -1149.6488    2142.3868    115336.53    10.472245   0.21893017 
   68500   -1279.7144    123.53787   -1156.1766    1915.2917    119676.99    10.472245   0.20163742 
   68600   -1283.8531    142.41851   -1141.4346     2208.011    118688.95    10.472245    0.2167956 
   68700   -1290.5065    134.77406   -1155.7324    2089.4939    114124.22    10.472245    0.1911082 
   68800   -1286.5588    133.09165   -1153.4672    2063.4104    116390.69    10.472245   0.20645609 
   68900   -1278.0877    135.41715   -1142.6706    2099.4642    121874.32    10.472245     0.203801 
   69000   -1281.8367     120.2551   -1161.5816    1864.3967    116740.43    10.472245   0.21134106 
   69100   -1285.0653    131.34234   -1153.7229    2036.2898    115759.24    10.472245   0.18532462 
   69200    -1280.973    138.69748   -1142.2755    2150.3215    120078.12    10.472245   0.22231394 
   69300   -1285.7212    126.93025   -1158.7909    1967.8861    115848.56    10.472245   0.21882359 
   69400   -1289.5392    139.45421    -1150.085    2162.0536    115445.71    10.472245    0.1958202 
   69500   -1277.8511    132.80632   -1145.0448    2058.9868    121606.46    10.472245   0.22327811 
   69600   -1291.8855    128.01241    -1163.873    1984.6635       111476    10.472245   0.19945272 
   69700   -1289.2596    140.63033   -1148.6292    2180.2877    113819.08    10.472245   0.20314825 
   69800   -1284.6676    135.93236   -1148.7352    2107.4519    117232.89    10.472245   0.21925516 
   69900   -1293.7575    127.73738   -1166.0201    1980.3995    111360.99    10.472245   0.18627773 
   70000   -1287.3159    134.87762   -1152.4383    2091.0996    114663.71    10.472245    0.2247166 
   70100   -1281.1516    131.16111   -1149.9904      2033.48    118837.55    10.472245   0.24992651 
   70200   -1293.4475    140.16652    -1153.281    2173.0969    111542.83    10.472245   0.18159937 
   70300   -1293.1161    132.18905   -1160.9271    2049.4169     110822.7    10.472245   0.18765236 
   70400   -1284.6506    140.02653   -1144.6241    2170.9265     117992.3    10.472245   0.21871319 
   70500   -1279.7315    130.18398   -1149.5475    2018.3308    120255.36    10.472245   0.19928714 
   70600    -1291.285    130.21601    -1161.069    2018.8274    112557.96    10.472245   0.18960375 
   70700   -1281.4679    134.77359   -1146.6944    2089.4866    119275.03    10.472245   0.19118297 
   70800    -1288.089    134.61919   -1153.4698     2087.093     114921.3    10.472245   0.20124618 
   70900   -1297.0854     134.6338   -1162.4516    2087.3195       109091    10.472245   0.17890388 
   71000   -1284.2272    132.18598   -1152.0412    2049.3692    118613.95    10.472245   0.20640056 
   71100    -1280.335    135.11601   -1145.2189    2094.7954    120239.43    10.472245   0.22043807 
   71200   -1278.7687    128.55991   -1150.2088    1993.1518    120127.73    10.472245   0.21066836 
   71300   -1289.5821    129.60776   -1159.9743    2009.3973    112969.88    10.472245   0.18573926 
   71400   -1277.7084    136.35061   -1141.3578    2113.9364    122422.44    10.472245   0.22508866 
   71500   -1283.8113    130.93514   -1152.8761    2029.9766    117492.73    10.472245    0.1838567 
   71600   -1290.3026    134.75447   -1155.5482    2089.1903    113663.77    10.472245   0.19038951 
   71700   -1282.7768    140.42423   -1142.3526    2177.0924    119529.22    10.472245   0.21316134 
   71800    -1275.768    146.37598    -1129.392    2269.3665    124700.94    10.472245   0.20949893 
   71900   -1284.6375    131.33928   -1153.2982    2036.2422    116869.22    10.472245   0.18882549 
   72000   -1287.3033    131.56731    -1155.736    2039.7775    114989.31    10.472245   0.18600849 
   72100   -1278.7278    138.33636   -1140.3915    2144.7228    122286.22    10.472245   0.22259292 
   72200   -1288.6691    129.10729   -1159.5618    2001.6382     114480.9    10.472245   0.19662997 
   72300   -1286.2426    135.74994   -1150.4927    2104.6238    117088.42    10.472245   0.19019102 
   72400   -1285.8696     139.1378   -1146.7318     2157.148    117823.09    10.472245   0.21512504 
   72500   -1290.7909    126.71115   -1164.0798    1964.4893    110839.52    10.472245   0.23209705 
   72600   -1291.1864    139.96148    -1151.225    2169.9181    114154.57    10.472245   0.21464154 
   72700   -1293.7601    147.22202   -1146.5381    2282.4831    112335.37    10.472245    0.2029695 
   72800   -1285.5206    132.91197   -1152.6087    2060.6248    116520.39    10.472245   0.20411302 
   72900   -1296.8582    136.31099   -1160.5472    2113.3221    109348.99    10.472245   0.19008231 
   73000   -1282.7564    139.54237    -1143.214    2163.4203       118253    10.472245   0.21708298 
   73100   -1286.1444    133.81017   -1152.3343    2074.5502    115697.57    10.472245    0.2322581 
   73200   -1284.0274     131.8102   -1152.2172    2043.5433    118192.19    10.472245   0.22373636 
   73300   -1277.7715     137.9285    -1139.843    2138.3994    123319.68    10.472245   0.22225051 
   73400   -1290.0917     133.4757    -1156.616    2069.3646    113239.34    10.472245   0.20070509 
   73500   -1295.1187    143.71427   -1151.4044    2228.1002    110357.32    10.472245   0.17535473 
   73600   -1283.7916    141.61206   -1142.1795    2195.5082    118775.55    10.472245   0.23403709 
   73700   -1282.3609    141.38541   -1140.9755    2191.9943    119367.28    10.472245   0.21853577 
   73800    -1292.989    138.72605    -1154.263    2150.7644     112121.6    10.472245   0.21475627 
   73900   -1283.0268    141.91645   -1141.1104    2200.2273    119812.64    10.472245   0.22810112 
   74000   -1287.6865    141.60269   -1146.0838    2195.3629    117127.06    10.472245   0.20527375 
   74100   -1288.5848    134.98783   -1153.5969    2092.8083    113909.57    10.472245   0.22200383 
   74200   -1290.5113    137.63244   -1152.8789    2133.8094    113606.54    10.472245   0.21101164 
   74300   -1275.4721    136.15768   -1139.3144    2110.9452    123592.42    10.472245   0.22964756 
   74400    -1286.579    130.92262   -1155.6564    2029.7825    114141.96    10.472245   0.21946368 
   74500   -1291.5317     140.1032   -1151.4285    2172.1153    111861.88    10.472245   0.19151516 
   74600   -1282.5053    147.69868   -1134.8066    2289.8731    119891.83    10.472245   0.20919171 
   74700     -1284.11    131.73715   -1152.3729    2042.4106    117917.38    10.472245   0.23174602 
   74800   -1289.7365    136.15711   -1153.5794    2110.9363    114196.96    10.472245   0.20506083 
   74900    -1274.688    129.36784   -1145.3202    2005.6778    123292.63    10.472245   0.24429618 
   75000   -1284.2624    140.59483   -1143.6676    2179.7373    117409.57    10.472245   0.21768338 
   75100   -1296.3521    139.44448   -1156.9076    2161.9028    109643.62    10.472245    0.2003044 
   75200   -1276.8143    135.16297   -1141.6513    2095.5235    122353.37    10.472245   0.23499166 
   75300   -1281.6773    137.46782   -1144.2095    2131.2572     119605.7    10.472245    0.2160342 
   75400   -1287.9996    132.77867    -1155.221    2058.5581    114043.09    10.472245   0.20740244 
   75500   -1290.7133    139.45981   -1151.2535    2162.1404    113658.11    10.472245   0.18954853 
   75600   -1285.6948     146.6224   -1139.0724    2273.1869    116920.97    10.472245   0.23162427 
   75700   -1287.1675    133.20525   -1153.9622    2065.1716    115468.17    10.472245    0.2280806 
   75800   -1286.1176    135.04938   -1151.0682    2093.7624    115033.56    10.472245   0.20924166 
   75900   -1285.8456     126.4315   -1159.4141    1960.1536    114979.04    10.472245   0.20333549 
   76000   -1293.4918    134.18701   -1159.3048    2080.3925    111806.83    10.472245   0.21098915 
   76100   -1283.7587    137.51737   -1146.2414    2132.0253    118428.02    10.472245   0.24256365 
   76200   -1282.8972    128.76318    -1154.134    1996.3032     117845.7    10.472245   0.22441397 
   76300   -1291.2253     131.1202   -1160.1051    2032.8457    112324.48    10.472245   0.20055229 
   76400   -1286.4037    135.22062   -1151.1831    2096.4174    117300.13    10.472245   0.19723762 
   76500   -1284.2939    132.57254   -1151.7213    2055.3624    116928.41    10.472245   0.21200841 
   76600   -1283.4556    136.00507   -1147.4506    2108.5792    119466.53    10.472245   0.21569485 
   76700   -1287.3951     142.1349   -1145.2602    2203.6141    116358.61    10.472245   0.21670627 
   76800   -1291.3468    131.38917   -1159.9577    2037.0157    112657.37    10.472245   0.20016021 
   76900   -1284.1483    135.35018   -1148.7982     2098.426     118402.1    10.472245   0.24332454 
   77000    -1282.499    137.70113   -1144.7979    2134.8744    118808.46    10.472245   0.21318626 
   77100   -1295.2636    138.02047   -1157.2431    2139.8253    110008.98    10.472245   0.18830623 
   77200   -1282.2151    139.02115   -1143.1939    2155.3395     118141.3    10.472245   0.21376762 
[...]
   81400   -1287.8162    128.13019    -1159.686    1986.4896    113100.89    10.472245   0.20827648 
   81500   -1286.2095     134.0751   -1152.1344    2078.6576    115852.66    10.472245   0.23224825 
   81600    -1284.515    138.49537   -1146.0196     2147.188     117394.8    10.472245   0.22406342 
   81700   -1285.4396    129.83297   -1155.6066    2012.8889    117090.93    10.472245   0.21195463 
   81800    -1281.598    124.07567   -1157.5223    1923.6295    118482.89    10.472245   0.19508314 
   81900   -1282.2346    139.98614   -1142.2485    2170.3005    119331.84    10.472245     0.213404 
   82000   -1296.5997    138.22344   -1158.3762    2142.9721    109337.38    10.472245   0.19002133 
   82100   -1294.3058    138.41441   -1155.8914    2145.9327    111272.21    10.472245   0.16732649 
   82200   -1279.3551    138.27351   -1141.0816    2143.7484    120701.96    10.472245   0.21958539 
   82300   -1279.9593    136.26593   -1143.6934    2112.6234    120800.02    10.472245   0.23447052 
   82400   -1290.8055    136.72964   -1154.0759    2119.8126    112906.28    10.472245   0.21666353 
   82500   -1294.9179    137.83196   -1157.0859    2136.9028    111101.52    10.472245   0.18962277 
   82600   -1284.9202    146.61117    -1138.309    2273.0127    116999.53    10.472245   0.24156336 
   82700   -1291.3606    139.48044   -1151.8802    2162.4603    112985.66    10.472245   0.19093516 
   82800   -1287.2481    135.40866   -1151.8395    2099.3327    115896.97    10.472245   0.20472234 
   82900   -1283.0446    143.48199   -1139.5626     2224.499    118778.98    10.472245   0.21562662 
   83000   -1278.1686    132.87668   -1145.2919    2060.0777    120949.59    10.472245   0.22918371 
   83100    -1287.462     129.2406   -1158.2214     2003.705    114965.13    10.472245   0.18688985 
   83200   -1292.0106    148.80289   -1143.2077    2306.9925    115043.59    10.472245   0.19659155 
   83300   -1283.4327    137.76666    -1145.666    2135.8903    118174.88    10.472245    0.2219413 
   83400   -1291.9338    137.88525   -1154.0485    2137.7289    113134.04    10.472245    0.1977685 
   83500   -1287.1942    134.81597   -1152.3782    2090.1438    114791.96    10.472245   0.23512804 
   83600   -1279.9382     144.7903   -1135.1479    2244.7826    122160.94    10.472245   0.23904033 
   83700   -1286.7822    139.73535   -1147.0468    2166.4123    116328.56    10.472245   0.26850614 
   83800   -1285.5802    131.11015   -1154.4701    2032.6899    115786.85    10.472245   0.20938309 
   83900   -1292.3761     122.8179   -1169.5582    1904.1295    110581.47    10.472245   0.18703139 
   84000   -1287.2444     133.9611   -1153.2833    2076.8902    115850.53    10.472245   0.19498923 
   84100   -1280.7689    132.72157   -1148.0473    2057.6728    120215.03    10.472245   0.20385182 
   84200   -1293.8654    132.06479   -1161.8006    2047.4903    110541.41    10.472245   0.18526456 
   84300   -1286.5131    135.11288   -1151.4002     2094.747    115658.14    10.472245   0.19836073 
   84400   -1287.1908     140.7565   -1146.4343    2182.2438    116119.46    10.472245   0.22303189 
   84500   -1294.4362    132.26348   -1162.1727    2050.5707    110411.78    10.472245   0.17074496 
   84600   -1289.7417    131.24264    -1158.499     2034.744    112757.26    10.472245   0.19908315 
   84700   -1280.4848    131.34992   -1149.1348    2036.4072    120653.45    10.472245   0.20513105 
   84800   -1278.8992    134.26782   -1144.6314    2081.6455    120875.33    10.472245   0.22640319 
   84900   -1298.4861     136.0412   -1162.4449    2109.1393    106941.02    10.472245   0.17341787 
   85000   -1287.3584     137.9332   -1149.4252    2138.4722    116262.13    10.472245   0.18196541 
   85100   -1287.7053    139.36289   -1148.3424    2160.6378    115399.17    10.472245   0.21024855 
   85200    -1290.992    128.70134   -1162.2906    1995.3445    111889.22    10.472245   0.18752195 
   85300    -1287.937    132.03525   -1155.9018    2047.0324    115197.17    10.472245   0.19528353 
   85400   -1284.3132    137.97978   -1146.3334    2139.1945    119106.39    10.472245   0.20334817 
   85500      -1290.1    133.17572   -1156.9243    2064.7138    112890.06    10.472245   0.19023181 
   85600   -1296.3732    134.22328   -1162.1499    2080.9549    109272.76    10.472245   0.17923957 
   85700   -1287.7675    135.04693   -1152.7206    2093.7246    115552.35    10.472245   0.20960851 
   85800   -1279.1484    129.21399   -1149.9344    2003.2924    120229.32    10.472245   0.22757857 
   85900   -1286.6203    130.84681   -1155.7735    2028.6072    115654.07    10.472245   0.20693524 
   86000   -1290.4332    138.82258   -1151.6106     2152.261    114126.11    10.472245   0.19881157 
   86100   -1285.4435     142.1936   -1143.2499    2204.5242    117940.76    10.472245   0.19848181 
   86200   -1291.1259    139.11303   -1152.0128     2156.764    112962.49    10.472245   0.21700243 
   86300   -1291.1055    138.87252    -1152.233    2153.0353    112952.01    10.472245   0.21272667 
   86400   -1287.1729    142.27066   -1144.9022    2205.7189    116217.47    10.472245   0.22566188 
   86500   -1288.3197    142.00681   -1146.3129    2201.6283    115404.67    10.472245   0.22375293 
   86600   -1291.5952    132.92485   -1158.6703    2060.8244    112614.83    10.472245   0.20170821 
   86700   -1279.3249    139.93822   -1139.3867    2169.5575    121816.63    10.472245   0.20972514 
   86800   -1277.6794    127.41268   -1150.2667    1975.3656    121073.96    10.472245   0.21758955 
   86900   -1285.8737    130.50668    -1155.367    2023.3339     116870.7    10.472245   0.19866481 
   87000   -1285.0627    133.44365    -1151.619    2068.8677    117099.67    10.472245   0.19885591 
   87100   -1282.1338    147.58272   -1134.5511    2288.0753    120189.83    10.472245   0.19604663 
   87200   -1283.8147    130.27064    -1153.544    2019.6744    116682.36    10.472245     0.212783 
   87300   -1292.8611    137.82666   -1155.0344    2136.8205    111943.74    10.472245   0.18885569 
   87400   -1276.7455    139.98672   -1136.7588    2170.3093     123119.9    10.472245   0.23821238 
   87500   -1291.6924    135.96144    -1155.731    2107.9028    113365.64    10.472245   0.18820999 
   87600    -1290.986    138.35806   -1152.6279    2145.0592    113559.53    10.472245    0.2036235 
   87700   -1277.6646    136.37072   -1141.2939    2114.2481    122500.22    10.472245   0.23231904 
   87800   -1299.9851    138.37515     -1161.61    2145.3242    107828.01    10.472245   0.16430686 
   87900    -1291.705    139.85868   -1151.8463    2168.3243     112856.2    10.472245   0.18802939 
   88000   -1287.5901    138.50834   -1149.0817    2147.3891    115509.12    10.472245   0.20724814 
   88100   -1293.8775    128.33127   -1165.5462     1989.607    111253.04    10.472245    0.1969703 
   88200   -1292.4187    139.77594   -1152.6427    2167.0416    111315.48    10.472245   0.18319351 
   88300   -1281.8544    133.19626   -1148.6582    2065.0323    118522.98    10.472245    0.2170239 
   88400   -1293.5404    138.67926   -1154.8611    2150.0389    110791.21    10.472245   0.18138564 
   88500   -1298.4293     140.0567   -1158.3726    2171.3943     108119.2    10.472245   0.17609549 
   88600   -1284.8527    137.32121   -1147.5315    2128.9842    117344.22    10.472245   0.21361497 
   88700   -1287.2156    136.36467    -1150.851    2114.1544    115996.02    10.472245   0.23110278 
   88800   -1283.2222    127.49453   -1155.7277    1976.6344    116319.68    10.472245   0.21709053 
   88900   -1289.8179    136.35026   -1153.4676    2113.9309    115023.77    10.472245   0.19569782 
   89000   -1278.6985     136.0424   -1142.6561     2109.158    121115.94    10.472245   0.20971038 
   89100   -1289.1559    127.61295    -1161.543    1978.4704    113962.57    10.472245   0.19121689 
   89200   -1282.1157    130.92649   -1151.1892    2029.8425    118480.57    10.472245   0.21293384 
   89300    -1279.968    133.51884   -1146.4491    2070.0334    120646.39    10.472245    0.2245919 
   89400   -1289.2216    134.48048   -1154.7412    2084.9424    113164.86    10.472245    0.1949444 
   89500   -1301.5041    129.70846   -1171.7956    2010.9585    106083.36    10.472245   0.17227023 
   89600   -1288.8979    131.21815   -1157.6798    2034.3643    115169.19    10.472245   0.19049275 
   89700   -1284.7938    137.19463   -1147.5992    2127.0217    118746.15    10.472245   0.23457856 
   89800   -1278.3987    134.27069   -1144.1281    2081.6899    121956.54    10.472245   0.22645038 
   89900   -1293.9011    133.31943   -1160.5817    2066.9418    111004.17    10.472245   0.21194012 
   90000    -1278.882    131.49311   -1147.3889    2038.6272    120252.81    10.472245   0.22389318 
   90100   -1281.3069    132.46051   -1148.8464    2053.6255    118060.45    10.472245   0.23958898 
   90200   -1284.9029    129.44912   -1155.4538    2006.9378    115720.94    10.472245   0.20783157 
   90300   -1292.9088    128.85049   -1164.0583    1997.6568    110890.98    10.472245   0.18461882 
   90400   -1286.8638     135.9192   -1150.9446    2107.2479    116162.71    10.472245   0.21372871 
   90500   -1281.8744    135.32261   -1146.5518    2097.9986    118800.61    10.472245   0.21916035 
   90600    -1284.229    130.22779   -1154.0012      2019.01    117109.37    10.472245   0.20358521 
   90700   -1293.6026     136.9665   -1156.6361    2123.4849    111706.47    10.472245   0.19636946 
   90800   -1274.6167    133.76595   -1140.8507    2073.8646    124088.63    10.472245   0.25700608 
   90900   -1286.6668    136.91674   -1149.7501    2122.7134       115938    10.472245   0.20541182 
   91000   -1291.4531     140.2559   -1151.1972    2174.4827    113414.24    10.472245   0.19697499 
   91100   -1285.4434    135.14727   -1150.2961    2095.2801    116699.72    10.472245   0.20037685 
   91200   -1286.2227    129.37039   -1156.8523    2005.7173    114937.55    10.472245    0.2163166 
   91300   -1287.3129    139.76623   -1147.5467    2166.8909    116994.89    10.472245    0.2252724 
   91400    -1283.242    140.94211   -1142.2999    2185.1214    119185.34    10.472245   0.19522438 
   91500   -1289.5827    131.71796   -1157.8648    2042.1131    113634.36    10.472245   0.20345649 
   91600   -1281.7803    136.04647   -1145.7338    2109.2211    119459.51    10.472245   0.23419927 
   91700   -1275.6246    142.20981   -1133.4148    2204.7755     124314.3    10.472245    0.2256698 
   91800   -1283.8566     134.3594   -1149.4972    2083.0652    116766.55    10.472245   0.25028478 
   91900   -1291.5715    139.85631   -1151.7152    2168.2876       113371    10.472245    0.1876702 
   92000   -1290.8755    137.67796   -1153.1975    2134.5152    113797.78    10.472245   0.19411203 
   92100   -1285.2848    137.07349   -1148.2114    2125.1436    116758.86    10.472245   0.17777583 
   92200   -1282.1392    128.33743   -1153.8018    1989.7025     117392.9    10.472245   0.22020748 
   92300   -1293.1841    132.09037   -1161.0938    2047.8869    111893.15    10.472245   0.19513184 
   92400   -1275.9389    132.49946   -1143.4394    2054.2294    123415.27    10.472245   0.22720806 
   92500   -1289.2091    136.94311    -1152.266    2123.1223    114237.44    10.472245   0.20796426 
   92600   -1300.4167    132.89025   -1167.5264     2060.288     107113.9    10.472245   0.18597147 
   92700   -1282.1039    136.82812   -1145.2758    2121.3394    118953.09    10.472245   0.19755813 
   92800   -1285.2207     134.5002   -1150.7205    2085.2481     116259.9    10.472245   0.22231358 
   92900   -1289.8671    131.12939   -1158.7377    2032.9883    114921.48    10.472245   0.24350379 
   93000   -1285.2538    142.29129   -1142.9625    2206.0387    118089.06    10.472245   0.23683512 
   93100   -1290.6545    137.52134   -1153.1331    2132.0869     113384.7    10.472245   0.17976443 
   93200    -1296.795    133.53042   -1163.2645     2070.213     108571.7    10.472245   0.17420671 
   93300   -1280.5779    137.21886    -1143.359    2127.3974    120322.55    10.472245   0.20946569 
   93400   -1288.6254    135.91976   -1152.7056    2107.2566    114743.12    10.472245   0.19931664 
   93500   -1300.9453    143.33249   -1157.6128    2222.1812    106919.13    10.472245   0.19003865 
   93600   -1279.2235    138.13294   -1141.0905     2141.569    121581.35    10.472245   0.24244361 
   93700   -1288.3471    137.69687   -1150.6502    2134.8083    115444.53    10.472245    0.1997814 
   93800   -1290.7996    135.50282   -1155.2967    2100.7925    113035.69    10.472245   0.18472362 
   93900   -1285.6145    133.58824   -1152.0262    2071.1093    116670.92    10.472245   0.20207656 
   94000   -1280.2704     136.3017   -1143.9687     2113.178     121378.4    10.472245   0.22796858 
   94100   -1283.4089    139.43709   -1143.9718     2161.788    118740.17    10.472245   0.21796756 
   94200   -1293.2277    135.44026   -1157.7875    2099.8226    112550.67    10.472245   0.18492932 
   94300   -1287.6787     142.4059   -1145.2728    2207.8155       116791    10.472245   0.21078139 
   94400   -1284.6216    145.39941   -1139.2222    2254.2261    119677.08    10.472245   0.20949405 
   94500   -1285.4444    135.93395   -1149.5105    2107.4765    117095.52    10.472245    0.2134224 
   94600    -1288.019    135.08958   -1152.9294    2094.3857    115082.44    10.472245   0.21790085 
   94700   -1286.0495    137.07937   -1148.9701    2125.2348    117595.61    10.472245    0.2003887 
   94800   -1288.5536    149.66641   -1138.8872    2320.3802     115836.4    10.472245   0.19067664 
   94900   -1292.2819    135.14304   -1157.1389    2095.2146    112290.26    10.472245   0.18588329 
   95000    -1286.068     134.1112   -1151.9568    2079.2172    115394.62    10.472245   0.20312699 
   95100   -1279.9109     143.3865   -1136.5244    2223.0184    122247.68    10.472245   0.21376849 
   95200   -1281.2272    133.58847   -1147.6387     2071.113    118992.38    10.472245   0.21708311 
   95300   -1282.3769    124.09028   -1158.2867     1923.856    118478.28    10.472245   0.20728644 
   95400     -1280.27    131.74781   -1148.5222     2042.576    119655.23    10.472245   0.20069502 
   95500   -1280.3536    134.25945   -1146.0941    2081.5156    120160.22    10.472245   0.21062556 
   95600   -1291.4403    135.09313   -1156.3472    2094.4407       112415    10.472245   0.21300109 
   95700   -1294.4007    142.38325   -1152.0174    2207.4645    110532.88    10.472245   0.17381924 
   95800   -1284.3605    131.09839   -1153.2621    2032.5076    117199.52    10.472245   0.19588805 
   95900   -1286.7016    150.17272   -1136.5288    2328.2298    118832.39    10.472245   0.19715494 
   96000   -1291.5086    140.77815   -1150.7304    2182.5794    113704.48    10.472245   0.18615232 
   96100   -1289.5444    135.08106   -1154.4634    2094.2536    114114.93    10.472245   0.19560489 
   96200    -1278.599    143.76643   -1134.8326    2228.9088    121638.68    10.472245   0.21898093 
   96300    -1283.969    134.97572   -1148.9933    2092.6205    118028.86    10.472245   0.18904287 
   96400   -1290.6453    137.13438   -1153.5109    2126.0876    113410.67    10.472245   0.19901526 
   96500   -1283.9451    137.58173   -1146.3633    2133.0233    117981.11    10.472245   0.24878888 
   96600   -1287.1029    151.14718   -1135.9557    2343.3376    118315.95    10.472245   0.18207266 
   96700   -1298.2531    143.91152   -1154.3416    2231.1582    108490.84    10.472245    0.1886591 
   96800   -1291.4297    138.95757   -1152.4722    2154.3538    112448.86    10.472245   0.21553552 
   96900     -1279.06    139.76624   -1139.2938    2166.8912    121578.91    10.472245   0.23305371 
   97000   -1288.6276      133.431   -1155.1966    2068.6716    114888.97    10.472245   0.21822674 
   97100   -1285.9838    135.45151   -1150.5323     2099.997    115505.25    10.472245   0.22910599 
   97200   -1284.6543    138.38745   -1146.2669    2145.5148    117441.38    10.472245   0.21991057 
   97300   -1291.3782    129.49333   -1161.8849    2007.6232     112812.9    10.472245   0.18578544 
   97400   -1289.2954    138.74352   -1150.5519    2151.0352    113650.88    10.472245   0.20185685 
   97500   -1287.5201    137.44197   -1150.0781    2130.8564    115206.58    10.472245   0.17920292 
   97600   -1290.2373    133.43566   -1156.8016    2068.7439    114092.13    10.472245   0.17056324 
   97700   -1296.8515    133.53455   -1163.3169     2070.277    108651.98    10.472245    0.1790972 
   97800   -1280.4575    132.76068   -1147.6968    2058.2791    119149.56    10.472245   0.20850252 
   97900   -1281.6141    136.02839   -1145.5857    2108.9408    119544.06    10.472245   0.20990493 
   98000   -1293.1411    130.23579   -1162.9053    2019.1341    110658.61    10.472245   0.20449791 
   98100    -1283.957    133.69448   -1150.2626    2072.7566    117575.75    10.472245   0.23131486 
   98200   -1287.4241     137.7124   -1149.7117     2135.049     115054.2    10.472245    0.2191871 
   98300   -1281.9998    124.21145   -1157.7883    1925.7347    117439.76    10.472245   0.22815779 
   98400   -1289.1455    126.80591   -1162.3396    1965.9583    112978.06    10.472245    0.1990685 
   98500   -1281.8902    135.98183   -1145.9083    2108.2188    119665.71    10.472245   0.23661481 
   98600   -1289.0981    133.89368   -1155.2045    2075.8449    114004.19    10.472245   0.21026512 
   98700   -1287.8723    128.44333    -1159.429    1991.3444    113995.21    10.472245    0.2033332 
   98800   -1284.8952    133.73135   -1151.1639    2073.3282    116508.25    10.472245   0.20745858 
   98900   -1282.0836    139.78026   -1142.3033    2167.1085    120253.92    10.472245   0.20823691 
   99000   -1300.2764    141.73259   -1158.5438    2197.3769    107993.06    10.472245    0.1690832 
   99100   -1284.7271    129.36917    -1155.358    2005.6982     116894.5    10.472245   0.21725917 
   99200   -1286.8399    140.02052   -1146.8194    2170.8334    115669.31    10.472245   0.19694775 
   99300   -1294.7619    137.68149   -1157.0804    2134.5699    111235.44    10.472245   0.18612202 
   99400   -1282.0469    130.12293    -1151.924    2017.3844    118388.29    10.472245   0.22116937 
   99500   -1284.9593    141.91857   -1143.0408    2200.2601    118832.09    10.472245   0.20846754 
   99600   -1291.7268      133.078   -1158.6488    2063.1989    111373.45    10.472245   0.19521482 
   99700   -1280.4362    129.39038   -1151.0459    2006.0271    119148.33    10.472245   0.20377778 
   99800   -1289.7516    142.63662   -1147.1149    2211.3926    114339.82    10.472245   0.20450846 
   99900   -1286.6938     136.1126   -1150.5812    2110.2463    117019.32    10.472245    0.1929036 
  100000   -1289.2407    131.52558   -1157.7152    2039.1306    113869.72    10.472245   0.18711321 
Loop time of 146.292 on 1 procs for 100000 steps with 500 atoms

Performance: 295.299 ns/day, 0.081 hours/ns, 683.562 timesteps/s
100.0% CPU use with 1 MPI tasks x no OpenMP threads

MPI task timing breakdown:
Section |  min time  |  avg time  |  max time  |%varavg| %total
---------------------------------------------------------------
Pair    | 87.375     | 87.375     | 87.375     |   0.0 | 59.73
Neigh   | 7.3808     | 7.3808     | 7.3808     |   0.0 |  5.05
Comm    | 1.1768     | 1.1768     | 1.1768     |   0.0 |  0.80
Output  | 0.036576   | 0.036576   | 0.036576   |   0.0 |  0.03
Modify  | 50.072     | 50.072     | 50.072     |   0.0 | 34.23
Other   |            | 0.2515     |            |       |  0.17

Nlocal:    500 ave 500 max 500 min
Histogram: 1 0 0 0 0 0 0 0 0 0
Nghost:    1961 ave 1961 max 1961 min
Histogram: 1 0 0 0 0 0 0 0 0 0
Neighs:    25760 ave 25760 max 25760 min
Histogram: 1 0 0 0 0 0 0 0 0 0

Total # of neighbors = 25760
Ave neighs/atom = 51.52
Neighbor list builds = 6683
Dangerous builds = 10
    
Total wall time: 0:02:26
