LAMMPS (3 Mar 2020)

    # ---------- Initialize simulation ---------------------
    units metal
    atom_style atomic
    dimension  3
    boundary   p p p
    read_data /home/modeler/RemLabs/Lab4/lammps.data
  orthogonal box = (0 0 0) to (8.18 8.18 8.18)
  1 by 1 by 1 MPI processor grid
  reading atoms ...
  32 atoms
  read_data CPU = 0.0200969 secs

    pair_style eam
    pair_coeff * * /home/modeler/labutil/lab4_samples/Ag_u3.eam
Reading potential file /home/modeler/labutil/lab4_samples/Ag_u3.eam with DATE: 2007-06-11

    velocity  all create 300 12345 dist gaussian

    # ---------- Describe computed properties------------------
    compute msdall all msd
    thermo_style custom step pe ke etotal temp press density c_msdall[4]
    thermo 100

    # ---------- Specify ensemble  ---------------------
    # fix  1 all nve
    fix  1 all nvt temp 300 300 0.05
    # fix  1 all npt temp 300 300 0.05 tchain 2 iso 1.0 1.0 1.0 pchain 2

    # --------- Compute RDF ---------------
    compute rdfall all rdf 100 1 1
    fix 2 all ave/time 1 250 250 c_rdfall[*] file /home/modeler/RemLabs/Lab4/lammps.rdf mode vector

    # --------- Run -------------
    timestep 0.001
    run 100000
Neighbor list info ...
  update every 1 steps, delay 10 steps, check yes
  max neighbors/atom: 2000, page size: 100000
  master list distance cutoff = 7.55
  ghost atom cutoff = 7.55
  binsize = 3.775, bins = 3 3 3
  2 neighbor lists, perpetual/occasional/extra = 1 1 0
  (1) pair eam, perpetual
      attributes: half, newton on
      pair build: half/bin/atomonly/newton
      stencil: half/bin/3d/newton
      bin: standard
  (2) compute rdf, occasional, copy from (1)
      attributes: half, newton on
      pair build: copy
      stencil: none
      bin: none
Per MPI rank memory allocation (min/avg/max) = 3.706 | 3.706 | 3.706 Mbytes
Step PotEng KinEng TotEng Temp Press Density c_msdall[4] 
       0        -91.2    1.2021193   -89.997881          300    2345.8272    10.472245            0 
     100   -90.434941   0.77000725   -89.664934    192.16243    10470.796    10.472245  0.014134258 
     200   -90.204946    1.4980285   -88.706917    373.84686    15230.995    10.472245  0.010293737 
     300   -89.919604     1.006011   -88.913593    251.05935    17353.707    10.472245  0.020854369 
     400   -90.129636    1.6303464   -88.499289    406.86802    16881.271    10.472245  0.010719034 
     500   -89.625162   0.56554645   -89.059616    141.13735    20106.624    10.472245  0.020654654 
     600   -89.851704   0.73569439   -89.116009    183.59934    18345.956    10.472245  0.015451904 
     700   -89.756487   0.95206658   -88.804421    237.59702    19645.265    10.472245  0.019422096 
     800   -90.017264    1.4095236   -88.607741    351.75965    17225.453    10.472245  0.016274038 
     900   -89.778774    1.1127455   -88.666029    277.69593    19443.857    10.472245  0.018313749 
    1000   -89.914571   0.81965315   -89.094918    204.55202    17084.205    10.472245  0.018130062 
    1100   -90.006739    1.3575886   -88.649151     338.7988    17166.052    10.472245  0.015827922 
    1200   -90.090185    1.1756941   -88.914491    293.40534    15440.655    10.472245  0.016923801 
    1300   -90.339676     1.152243   -89.187433    287.55289    12870.702    10.472245  0.011300757 
    1400   -89.529773   0.78652291    -88.74325    196.28406    21462.165    10.472245  0.024251035 
    1500    -89.86325    1.2154758   -88.647774    303.33322    18812.877    10.472245  0.016081391 
    1600    -90.04051   0.94943484   -89.091075    236.94025    15869.314    10.472245  0.016074922 
    1700   -89.907948    1.2473568   -88.660592    311.28942    18461.634    10.472245  0.016217249 
    1800   -89.604605   0.75709399   -88.847511    188.93981    20478.897    10.472245  0.025084921 
    1900   -90.140707    1.2382293   -88.902478    309.01158    15599.806    10.472245  0.011347994 
    2000    -90.02115    1.1554619   -88.865688     288.3562    16474.101    10.472245   0.01648794 
    2100   -90.008642     1.493969   -88.514673    372.83379     17860.44    10.472245  0.014323932 
    2200   -89.777477    1.0643085   -88.713169    265.60804     18949.02    10.472245  0.019392675 
    2300   -90.082985    1.0748422   -89.008143    268.23682    16175.799    10.472245  0.012579405 
    2400   -90.042135    1.1610648    -88.88107    289.75446    16329.721    10.472245  0.014350325 
    2500   -89.831882    1.1368292   -88.695053    283.70624    19249.626    10.472245  0.016427899 
    2600   -90.229292    1.0022142   -89.227078    250.11181    13800.549    10.472245  0.012703834 
    2700   -90.040032     1.179317   -88.860715    294.30946    16876.334    10.472245  0.014102671 
    2800    -89.86199    1.3006257   -88.561364    324.58317    19043.166    10.472245   0.01908035 
    2900    -90.12206    1.1531668   -88.968893    287.78345     15521.05    10.472245  0.013236179 
    3000   -90.263736   0.93605639   -89.327679    233.60153    13465.674    10.472245   0.01212534 
    3100   -90.104323    1.2664968   -88.837826    316.06599    15885.356    10.472245  0.014178393 
    3200   -89.989446    1.3239908   -88.665455    330.41415    17317.956    10.472245  0.018136031 
    3300   -89.923081    1.4245811     -88.4985     355.5174    18199.444    10.472245  0.017800089 
    3400    -90.34868    1.2728669   -89.075813     317.6557    12893.619    10.472245  0.011776773 
    3500    -90.18451    1.1938132   -88.990697    297.92711    14801.735    10.472245  0.013491447 
    3600   -89.942633    1.1913835   -88.751249    297.32076    17702.809    10.472245  0.016878437 
    3700    -89.58746    1.2205048   -88.366955    304.58827    22240.062    10.472245  0.021671286 
    3800   -89.918592    1.2942319    -88.62436    322.98755    17970.939    10.472245  0.016805584 
    3900   -90.028433    1.1175681   -88.910865    278.89945    16649.803    10.472245  0.014990326 
    4000   -89.818753   0.86531103   -88.953442    215.94637    18047.399    10.472245  0.018775879 
    4100   -89.821423    1.0979962   -88.723427     274.0151    19039.641    10.472245   0.01863553 
    4200   -90.144022   0.99295152   -89.151071    247.80024    14390.673    10.472245   0.01689087 
    4300   -89.985679    1.5161114   -88.469568    378.35962    17587.365    10.472245  0.017476099 
    4400   -89.598283   0.90814462   -88.690138    226.63589     20486.58    10.472245  0.028041478 
    4500   -90.252712    1.0906368   -89.162076    272.17849    13745.325    10.472245  0.012235495 
    4600   -89.978153     1.079633    -88.89852    269.43241    16693.648    10.472245  0.019688521 
    4700   -89.982629     1.342434   -88.640195    335.01682    17245.671    10.472245  0.017214526 
    4800   -89.981277    1.0109008   -88.970376    252.27964    16730.368    10.472245  0.017388722 
    4900   -89.618549    1.2608405   -88.357709     314.6544    21967.762    10.472245  0.021385849 
    5000   -89.931626    1.4222593   -88.509367    354.93795    18179.958    10.472245   0.01647175 
    5100   -90.065849    1.0726658   -88.993183    267.69367    16058.547    10.472245  0.014118313 
    5200   -89.950225    1.1575571   -88.792668    288.87909     17583.61    10.472245  0.016229084 
    5300   -89.700161    1.1213071   -88.578854    279.83255    20391.734    10.472245  0.020254076 
    5400   -90.403596    1.1082689   -89.295327    276.57875    11665.245    10.472245  0.011121912 
    5500   -90.223225    1.2340589   -88.989166    307.97081    14298.372    10.472245  0.014453318 
    5600   -90.038017    1.4644546   -88.573562     365.4682    16800.386    10.472245  0.016258596 
    5700   -90.036264    1.2383348    -88.79793    309.03791    16563.087    10.472245  0.016057221 
    5800   -90.459798    1.0587503   -89.401047    264.22092    10882.094    10.472245  0.010598325 
    5900   -90.224684    1.1742262   -89.050458      293.039    14199.682    10.472245  0.013578662 
    6000   -89.959779    1.2978774   -88.661902     323.8973     17291.53    10.472245  0.019779169 
    6100   -89.760439    1.4451276   -88.315312    360.64495    19859.735    10.472245  0.020052411 
    6200   -90.021052    1.1100646   -88.910987     277.0269    15954.936    10.472245  0.017573332 
    6300    -90.07568    1.3216705   -88.754009    329.83508    16205.906    10.472245  0.015864771 
    6400   -90.024768    1.2306963   -88.794071    307.13164    16419.794    10.472245  0.017580437 
    6500   -90.168056    1.1295044   -89.038551    281.87828     14868.38    10.472245  0.013479369 
    6600   -89.834936   0.88092017   -88.954015    219.84177    18120.629    10.472245  0.020137626 
    6700   -89.997215    1.0647538   -88.932462    265.71915    16669.229    10.472245  0.014902761 
    6800   -89.868125    0.9074767   -88.960648     226.4692      17704.8    10.472245  0.019773298 
    6900   -89.923145    1.2582838   -88.664861    314.01636    18088.773    10.472245  0.017554819 
    7000   -90.091018    1.1082992   -88.982719     276.5863    15586.193    10.472245  0.016545508 
    7100   -90.058412    1.4041637   -88.654249    350.42204    16845.934    10.472245  0.015559976 
    7200   -90.084477    1.2636173    -88.82086    315.34737    15862.487    10.472245  0.016318417 
    7300   -90.069632    1.4210461   -88.648586    354.63521    16507.869    10.472245  0.015802015 
    7400    -89.97135    1.2312514   -88.740098    307.27017    16882.996    10.472245  0.019276346 
    7500   -90.240811    1.3018476   -88.938963    324.88812     14253.21    10.472245  0.012122884 
    7600   -89.958144    1.0319714   -88.926173    257.53801    16945.719    10.472245  0.019674107 
    7700   -89.904485    1.5031125   -88.401372    375.11561    18692.326    10.472245  0.017211479 
    7800   -89.923668   0.96552416   -88.958144    240.95548    17411.265    10.472245  0.018911917 
    7900   -89.982117    1.1119102   -88.870206    277.48748     16998.51    10.472245  0.015876515 
    8000   -89.849919    1.0330994    -88.81682    257.81951    18353.003    10.472245  0.019318369 
    8100   -89.685305     1.158729   -88.526576    289.17153     20274.59    10.472245  0.023105424 
    8200   -90.048586    1.2447336   -88.803852    310.63478    16253.558    10.472245  0.017564147 
    8300   -90.324567     1.017813   -89.306754    254.00465    12353.868    10.472245  0.013861322 
    8400   -89.907155    1.2445212   -88.662634    310.58179    17873.872    10.472245  0.017452195 
    8500   -89.863417    1.0398627   -88.823554    259.50734    17728.028    10.472245  0.020753142 
    8600   -90.112518    1.2391921   -88.873326    309.25185    15653.546    10.472245  0.014749929 
    8700   -90.047532   0.92607153    -89.12146    231.10972    15141.243    10.472245  0.019131553 
    8800   -90.009326    1.3887212   -88.620605    346.56822    16655.209    10.472245   0.01766136 
    8900   -90.043326    1.1633045   -88.880021     290.3134    15558.969    10.472245  0.021358486 
    9000   -90.496353    1.2706053   -89.225748    317.09131    10791.014    10.472245  0.010834384 
    9100   -90.221271    1.1221678   -89.099103    280.04736    13655.157    10.472245  0.015731529 
    9200   -89.885233    1.2994281   -88.585805     324.2843    18094.784    10.472245  0.019768234 
    9300    -90.00306    1.0703727   -88.932687    267.12141    16295.517    10.472245  0.017039236 
    9400   -90.087403    1.0053691   -89.082034    250.89915    15804.992    10.472245  0.015226838 
    9500   -89.796602   0.89692882   -88.899673    223.83688    18284.583    10.472245  0.020627486 
    9600   -89.846008    1.1171104   -88.728898    278.78523    18620.053    10.472245  0.019865189 
    9700   -89.956909    1.0917778   -88.865131    272.46325    16615.103    10.472245  0.021288661 
    9800   -90.078824    1.2669308   -88.811893    316.17429    15901.391    10.472245  0.018106556 
    9900   -90.071989    1.2883177   -88.783671    321.51159    15821.112    10.472245  0.017385207 
   10000   -89.993185    1.3373174   -88.655867    333.73993    16941.133    10.472245  0.017383479 
   10100   -90.154287    1.3088333   -88.845454    326.63145    15016.405    10.472245   0.01767841 
   10200   -90.076774     1.577968   -88.498806     393.7965    16360.624    10.472245  0.017213886 
   10300   -89.992589    1.1871746   -88.805414     296.2704    16597.579    10.472245  0.019899584 
   10400   -90.205727   0.99719011   -89.208537    248.85801    13866.825    10.472245  0.014185742 
   10500   -90.098524    1.1865645    -88.91196    296.11815    15523.623    10.472245  0.016028648 
   10600   -89.814997    1.2783051   -88.536692    319.01285    18968.906    10.472245  0.021876486 
   10700   -90.091438    1.1900591   -88.901379    296.99025    15390.245    10.472245  0.013495782 
   10800   -90.101444   0.97287926   -89.128564    242.79102    15302.457    10.472245  0.014844713 
   10900   -89.935545    1.2483393   -88.687205    311.53463    17585.026    10.472245  0.019231176 
   11000    -89.99599    1.5312696   -88.464721    382.14248    17301.319    10.472245  0.017773825 
   11100   -89.904016     1.114201   -88.789815    278.05916    17452.289    10.472245  0.021060581 
   11200   -90.103548   0.99299285   -89.110555    247.81055    15198.434    10.472245  0.015737809 
   11300   -90.205713   0.98874172   -89.216971    246.74964    13541.432    10.472245  0.014946738 
   11400   -89.984926    1.3236829   -88.661243    330.33731    17132.343    10.472245  0.019271727 
   11500   -89.879308    1.3293449   -88.549963     331.7503    18007.766    10.472245  0.020384854 
   11600   -90.033719    1.0814085    -88.95231    269.87549     16026.43    10.472245  0.018703449 
   11700   -90.197363    1.4451517   -88.752211    360.65097    14799.627    10.472245  0.014962376 
   11800   -90.127436    1.3560339   -88.771402    338.41081    15344.602    10.472245  0.016353733 
   11900   -89.976182    1.3006642   -88.675517    324.59277    16909.493    10.472245  0.017121844 
   12000   -89.929512   0.97227509   -88.957236    242.64024    16716.497    10.472245  0.019879363 
   12100   -90.013787    1.4879243   -88.525863    371.32526    17301.029    10.472245  0.016549665 
   12200   -89.797401    1.3690586   -88.428342    341.66124    19061.386    10.472245  0.021109527 
   12300   -90.261461     1.277169   -88.984292    318.72934     14062.28    10.472245  0.012585945 
   12400   -90.059387    0.9620752   -89.097312    240.09476    15298.428    10.472245   0.01793729 
   12500    -89.89833    1.3066826   -88.591648    326.09472    18249.973    10.472245  0.020009533 
   12600   -90.144811    1.2485969   -88.896214    311.59891    14751.456    10.472245  0.016616198 
   12700   -90.351353    1.0674178   -89.283936    266.38398    12091.064    10.472245  0.012482779 
   12800    -89.67656    1.1285797   -88.547981     281.6475    20088.948    10.472245  0.022117826 
   12900   -89.951925    1.3112279   -88.640697    327.22904    17307.882    10.472245  0.018516694 
   13000   -90.295469     1.278165   -89.017304     318.9779    13351.593    10.472245  0.013485822 
   13100    -90.12013    1.3225479   -88.797582    330.05406    15483.664    10.472245    0.0173017 
   13200   -90.037133    1.3195806   -88.717552    329.31355    16455.159    10.472245  0.018043755 
   13300     -90.0558    1.1447637   -88.911036    285.68637    15678.722    10.472245  0.018216449 
   13400    -90.34698    1.1800496    -89.16693     294.4923    12477.815    10.472245  0.012918098 
   13500   -89.925485    1.2822415   -88.643243    319.99522    17518.132    10.472245   0.01928881 
   13600   -89.887117     1.310056   -88.577061    326.93659    18443.242    10.472245  0.019493415 
   13700   -90.288271    1.1029672   -89.185304    275.25567    13218.058    10.472245  0.013274832 
   13800   -90.026847    1.0415745   -88.985273    259.93454    16206.333    10.472245  0.015840494 
   13900   -89.749274    1.0771728   -88.672101    268.81844    20016.219    10.472245  0.019507855 
   14000   -89.840785    1.0626443   -88.778141    265.19271    18214.933    10.472245   0.01821933 
   14100   -89.943473    1.0642779   -88.879195    265.60039    17154.778    10.472245  0.016486476 
   14200   -89.957648   0.86227328   -89.095375    215.18827    16714.131    10.472245  0.018945962 
   14300   -90.052664    1.3544881   -88.698175    338.02502    16672.654    10.472245  0.015547518 
   14400   -89.915143    1.1042964   -88.810846    275.58739    17155.803    10.472245  0.021882262 
   14500   -90.106343    1.4236667   -88.682676     355.2892    15881.014    10.472245  0.015751312 
   14600   -90.015487   0.97934509   -89.036142    244.40462    15567.895    10.472245  0.020413351 
   14700   -89.970648    1.3376339   -88.633014    333.81892    17154.528    10.472245  0.018259436 
   14800   -89.978504    1.2551871   -88.723317    313.24354    16519.594    10.472245  0.020722252 
   14900    -90.15161    1.3016652   -88.849945    324.84258    14695.441    10.472245  0.016222742 
   15000   -90.237981    1.2271245   -89.010857    306.24028    13825.339    10.472245  0.014994105 
   15100   -89.924821    1.4536597   -88.471161    362.77421     17408.84    10.472245  0.020045772 
   15200   -90.258601     1.266212   -88.992389    315.99493     13560.53    10.472245  0.015853417 
   15300   -90.349317    1.0672158   -89.282101    266.33358    12214.186    10.472245  0.012187333 
   15400   -89.701844    1.1672088   -88.534635    291.28776    20225.976    10.472245  0.022041807 
   15500   -89.762747    1.0630209   -88.699726    265.28671    19528.169    10.472245  0.020582088 
   15600   -90.121754     1.026464    -89.09529    256.16359    15060.098    10.472245  0.013074935 
   15700   -90.207937   0.65491671    -89.55302    163.44052    13221.875    10.472245  0.013609977 
   15800   -89.963676   0.87214357   -89.091532    217.65149    17107.441    10.472245  0.016006438 
   15900   -89.696188    1.0473553   -88.648833    261.37721    20005.959    10.472245  0.022250037 
   16000   -90.026135    1.3216937   -88.704442    329.84089    17034.297    10.472245   0.01494448 
   16100   -89.979051   0.99558903   -88.983462    248.45845    16688.011    10.472245  0.016265462 
   16200    -89.91604    1.1223824   -88.793657    280.10092    17831.457    10.472245   0.01656334 
   16300    -89.93419    1.2943692   -88.639821     323.0218    18087.057    10.472245  0.016952762 
   16400    -89.77861    1.4069263   -88.371684    351.11147    19840.535    10.472245  0.019476038 
   16500   -90.130067    1.2312416   -88.898826    307.26773    15772.173    10.472245  0.013668001 
   16600   -90.011814   0.79664153   -89.215172    198.80926    16009.411    10.472245   0.01695049 
   16700   -89.844962    1.1937606   -88.651201      297.914    19194.199    10.472245  0.016252228 
   16800   -89.775993    0.9641591   -88.811834    240.61482    19186.795    10.472245  0.019976351 
   16900    -90.17766   0.93319145   -89.244468    232.88656     14790.51    10.472245  0.011583473 
   17000   -90.134814   0.94539373    -89.18942    235.93175    14940.362    10.472245  0.014539146 
   17100   -90.184775    1.4532318   -88.731543    362.66744     15189.48    10.472245  0.014201545 
   17200   -90.106934    1.3857709   -88.721163    345.83195    16170.009    10.472245   0.01647268 
   17300   -89.998948     1.438085   -88.560863    358.88742    16812.417    10.472245    0.0181869 
   17400    -90.27949     1.360417   -88.919073    339.50464    13750.608    10.472245  0.013912626 
   17500   -90.270432     1.103443   -89.166989    275.37439    12977.745    10.472245  0.015760154 
   17600   -89.911326    1.4896268   -88.421699    371.75013    18397.205    10.472245  0.018447321 
   17700   -89.967759    1.1292913   -88.838467     281.8251    16565.788    10.472245  0.019961362 
   17800   -90.087952    1.3604776   -88.727474    339.51975     16142.35    10.472245  0.015140811 
   17900   -89.913107    1.0563508   -88.856756    263.62212    17021.232    10.472245  0.020818989 
   18000   -89.950354     1.283774    -88.66658    320.37767    17228.125    10.472245   0.01587224 
   18100     -90.0247     0.880044   -89.144656    219.62312    15318.052    10.472245  0.019388191 
   18200   -90.266809    1.4135981   -88.853211    352.77649    13899.833    10.472245  0.014392286 
   18300   -89.840929    1.0651086   -88.775821     265.8077     17776.31    10.472245  0.024510685 
   18400   -90.023811    1.4619315   -88.561879    364.83851    16713.617    10.472245  0.015534768 
   18500   -90.100694    1.0489822   -89.051712     261.7832    14939.008    10.472245  0.018209526 
   18600   -89.921005     1.328136   -88.592869    331.44863    17901.246    10.472245  0.017972538 
   18700   -89.814811    1.0844777   -88.730334    270.64143     18466.09    10.472245  0.020265678 
   18800   -89.985365    1.1312948    -88.85407    282.32507    16530.571    10.472245  0.016594294 
   18900   -90.081017    0.7944086   -89.286608    198.25201    15012.939    10.472245  0.016348644 
   19000   -90.222461    1.1258654   -89.096596    280.97013    14171.815    10.472245  0.012575419 
   19100   -89.862714    1.1508708   -88.711843    287.21046    17938.017    10.472245  0.022270286 
   19200     -89.9143     1.483138   -88.431162    370.13081    18377.778    10.472245   0.01630084 
   19300   -90.221639    1.0563723   -89.165266    263.62748    13586.343    10.472245  0.014096024 
   19400   -90.057155    1.3705574   -88.686598    342.03527    16390.117    10.472245  0.017060571 
   19500   -90.028102    1.6504377   -88.377664      411.882    16652.489    10.472245  0.019977601 
   19600   -90.208459    1.3018033   -88.906655    324.87706    14127.997    10.472245  0.017017496 
   19700    -90.26455    1.1896436   -89.074907    296.88657    13471.001    10.472245  0.013947385 
   19800   -89.666143    1.1924632   -88.473679    297.59022    20586.656    10.472245  0.024334366 
   19900   -89.835336    1.3748896   -88.460446     343.1164    19083.596    10.472245  0.019267369 
   20000   -90.065213    1.0296124     -89.0356    256.94929     15901.17    10.472245  0.015951212 
   20100   -89.769963    1.0188075   -88.751156    254.25283     19181.69    10.472245  0.019842934 
   20200   -89.695717    1.2194559   -88.476261    304.32649    20473.039    10.472245  0.021214692 
   20300   -90.000071    1.1628733   -88.837197    290.20579    16532.657    10.472245  0.017502731 
   20400   -90.139846    1.1334424   -89.006404    282.86104    15166.496    10.472245  0.014980497 
   20500   -89.744656    1.4855623   -88.259093    370.73582    20183.603    10.472245  0.023034609 
   20600   -89.801693       1.4039   -88.397793    350.35622     19153.57    10.472245  0.020488203 
   20700   -90.273299    1.1188513   -89.154447     279.2197     13252.23    10.472245  0.012188296 
   20800   -89.964838    1.2439309   -88.720907    310.43446    16979.273    10.472245  0.018225506 
   20900   -90.094251    1.5984678   -88.495783    398.91241     16475.18    10.472245  0.016388966 
   21000   -90.134314    1.2539637    -88.88035    312.93824    15162.168    10.472245  0.015813109 
   21100    -90.09784     1.063777   -89.034063     265.4754    15180.054    10.472245   0.01700471 
   21200    -89.86925    1.4788327   -88.390418    369.05638    18681.054    10.472245  0.019510056 
   21300   -89.876114    1.2520541   -88.624059    312.46167    17965.137    10.472245  0.022769879 
   21400   -90.045685    1.1684236   -88.877261     291.5909     15984.19    10.472245  0.018516143 
   21500   -90.259558   0.96349898   -89.296059    240.45008    12838.187    10.472245  0.015837289 
   21600   -90.189059    1.3928189    -88.79624    347.59083    14858.689    10.472245  0.014928422 
   21700   -89.882191    1.3529176   -88.529273     337.6331    17913.655    10.472245  0.022542501 
   21800   -89.862312    1.2757765   -88.586535    318.38183     18371.18    10.472245  0.020658988 
   21900   -89.885082   0.92595731   -88.959125    231.08121    17275.114    10.472245  0.019875836 
   22000   -89.942302   0.89625361   -89.046048    223.66838    16872.056    10.472245  0.018635133 
   22100   -90.103468    1.1330449   -88.970423    282.76183    15372.017    10.472245  0.015128277 
   22200   -89.863695    1.1389683   -88.724726    284.24007    18228.226    10.472245  0.019877199 
   22300    -90.15641    1.0376444   -89.118766    258.95376    14448.353    10.472245  0.016296768 
   22400   -90.052639    1.1157989    -88.93684    278.45793    15763.746    10.472245  0.018646756 
   22500   -89.882085    1.5295003   -88.352585    381.70095    18374.554    10.472245   0.02302065 
   22600   -90.127662    1.3689698   -88.758692    341.63908    15628.053    10.472245   0.01622495 
   22700   -90.021397   0.90148285   -89.119914    224.97338    15586.336    10.472245  0.017728875 
   22800   -89.980313    1.1682677   -88.812045      291.552    16874.554    10.472245  0.017361786 
   22900   -89.951951    1.5149148   -88.437036      378.061    17983.832    10.472245  0.020631168 
   23000   -89.972219    1.6237431   -88.348476    405.22011    17639.721    10.472245  0.016939934 
   23100   -90.133342    1.0741472   -89.059195    268.06337    14699.406    10.472245  0.016573295 
   23200   -89.864248    1.2476405   -88.616607    311.36022    18367.738    10.472245  0.020380079 
   23300   -89.826021    1.1990072   -88.627013    299.22335    18480.732    10.472245  0.021940007 
   23400   -90.252757    1.2033178   -89.049439    300.29909    13854.811    10.472245  0.013011401 
   23500   -89.963244    1.0314796   -88.931764    257.41527    16316.159    10.472245  0.018836746 
   23600   -89.728793     1.247783    -88.48101    311.39578    20250.557    10.472245  0.021315853 
   23700    -90.01117   0.93587696   -89.075293    233.55675    15723.663    10.472245  0.019282678 
   23800   -90.234395     1.354631   -88.879764     338.0607    14142.481    10.472245  0.014758076 
   23900   -90.069462     1.494836   -88.574626    373.05016    15985.287    10.472245  0.018562804 
   24000   -89.839924    1.1433974   -88.696527    285.34539    18269.626    10.472245  0.020878153 
   24100   -90.146399   0.88350834   -89.262891    220.48768    14224.098    10.472245  0.015340159 
   24200   -90.341718    1.3165235   -89.025194    328.55062    12625.295    10.472245  0.011508645 
   24300    -89.82721    1.4061871   -88.421023      350.927    18387.357    10.472245  0.024737783 
   24400   -90.019706    1.3732979   -88.646408    342.71919    16802.369    10.472245  0.018356257 
   24500   -90.197589    1.0495283   -89.148061     261.9195    13761.123    10.472245  0.014882713 
   24600    -89.96241    1.2556886   -88.706721     313.3687     17024.41    10.472245  0.019409071 
   24700    -89.77788    1.6638653   -88.114014    415.23298    19549.849    10.472245  0.021345307 
   24800   -90.024573     1.313256   -88.711317    327.73518    16501.718    10.472245  0.019138486 
   24900    -90.14663     1.099298   -89.047332    274.33998    14629.132    10.472245   0.01541348 
   25000    -89.74164    1.1835492   -88.558091    295.36566    19118.167    10.472245  0.021276789 
   25100   -89.863588    1.4034332   -88.460155    350.23973    18019.281    10.472245  0.022179219 
   25200   -90.110545    1.3430567   -88.767488    335.17221    15661.904    10.472245   0.01787015 
   25300   -90.071526   0.94636588    -89.12516    236.17436    15046.431    10.472245  0.018572574 
   25400    -89.70686    1.1608469   -88.546013    289.70009    19839.035    10.472245  0.021939082 
   25500     -89.8787    1.1106342   -88.768066    277.16903    17699.505    10.472245  0.022567331 
   25600   -90.422341    1.3806505   -89.041691    344.55411    11973.266    10.472245  0.011967835 
   25700   -90.231577    1.0258739   -89.205703    256.01632    13363.881    10.472245  0.017885065 
   25800   -89.885296    1.2128565   -88.672439    302.67955    17736.126    10.472245  0.020487998 
   25900   -90.027562    1.3067383   -88.720824    326.10864    15955.294    10.472245  0.017946973 
   26000   -90.355444    1.3910375   -88.964407    347.14626    12734.751    10.472245   0.01176366 
   26100   -90.128415    1.3484494   -88.779966    336.51802    15284.285    10.472245  0.017106968 
   26200   -89.614119    1.1088703   -88.505249    276.72883     20677.89    10.472245  0.023797131 
   26300    -90.00973    1.0343985   -88.975332    258.14371    16270.515    10.472245  0.017939886 
   26400   -90.053747    1.3268257   -88.726921    331.12163    16154.621    10.472245  0.018282126 
   26500    -90.06273    1.7315263   -88.331204     432.1184    16886.441    10.472245  0.016026768 
   26600   -89.827143    1.0493306   -88.777813    261.87016      18032.7    10.472245  0.021401261 
   26700   -90.087128    1.1108378    -88.97629    277.21985    15531.028    10.472245  0.014733169 
   26800   -90.126913     1.290699   -88.836214    322.10588     15265.92    10.472245  0.016339806 
   26900   -89.854066    1.5944194   -88.259647    397.90211    18883.747    10.472245  0.021061855 
   27000   -89.961196    1.2017463    -88.75945     299.9069    16843.292    10.472245  0.016851929 
   27100   -90.075227    0.9103599   -89.164867    227.18873    15252.808    10.472245  0.016633894 
   27200   -90.041394    1.1498306   -88.891563    286.95086    16064.721    10.472245  0.017012872 
   27300   -89.861616    1.1366081   -88.725008    283.65107    18121.707    10.472245   0.01899028 
   27400   -89.601513    1.1880324   -88.413481    296.48447      21046.8    10.472245  0.020551065 
   27500   -90.125529    1.1074307   -89.018098    276.36956    14744.119    10.472245  0.014754414 
   27600   -90.163802     1.171749   -88.992053    292.42079    14757.895    10.472245  0.015785951 
   27700   -89.787917    1.3951352   -88.392781    348.16889    19323.448    10.472245  0.022522252 
   27800      -90.163    1.4273679   -88.735632    356.21285    15326.442    10.472245  0.014786863 
   27900    -90.20268    1.1223575   -89.080323    280.09469    14127.498    10.472245  0.013356037 
   28000   -89.779541    1.1371251   -88.642416    283.78008    19052.522    10.472245  0.019016812 
   28100   -89.840167    1.2708221   -88.569345     317.1454    18957.838    10.472245  0.018538397 
   28200   -90.126665    1.3813039   -88.745362    344.71716     15696.95    10.472245  0.014609607 
   28300   -90.235356    1.1585192   -89.076837    289.11918    14252.576    10.472245  0.012430692 
   28400    -89.70971    1.2926531   -88.417057    322.59353    20511.218    10.472245  0.020953278 
   28500   -89.679234    1.2212788   -88.457955    304.78142    20425.474    10.472245    0.0211684 
   28600   -90.282472    1.0902149   -89.192258     272.0732    13379.665    10.472245   0.01236067 
   28700   -89.905571    1.1607712     -88.7448     289.6812    17615.369    10.472245  0.019329743 
   28800    -89.96477     1.269494   -88.695276    316.81396    17580.511    10.472245  0.016360641 
   28900   -90.143062     1.008214   -89.134848    251.60912    14386.137    10.472245    0.0144522 
   29000   -90.385416   0.99191336   -89.393503    247.54115    11795.199    10.472245  0.010887287 
   29100   -89.984848     1.217038    -88.76781    303.72309    16622.892    10.472245  0.017942226 
   29200   -89.947229    1.5773501   -88.369879     393.6423    17806.904    10.472245  0.017569674 
   29300   -90.236394    1.3300779   -88.906317    331.93324    14022.455    10.472245  0.015708813 
   29400   -90.128341    1.3799429   -88.748398     344.3775      15349.6    10.472245  0.016355501 
   29500   -90.006162    1.2436964   -88.762466    310.37593    16593.175    10.472245  0.018557334 
   29600   -89.992709    1.1867465   -88.805962    296.16357    16501.964    10.472245  0.017251059 
   29700   -89.983873     1.155495   -88.828378    288.36445    16626.084    10.472245  0.017341961 
   29800   -90.087862    1.1340127   -88.953849    283.00336    15633.808    10.472245  0.016786281 
   29900    -89.81098    1.3059406    -88.50504    325.90956    18955.158    10.472245  0.019602697 
   30000   -89.915339    1.1541895   -88.761149    288.03865    17527.657    10.472245  0.017333242 
   30100   -90.073289    1.1051797   -88.968109    275.80782     15440.03    10.472245    0.0161216 
   30200   -90.023011    1.3306824   -88.692329    332.08411    16238.674    10.472245   0.01703858 
   30300   -90.068257    1.3117937   -88.756464    327.37025    15662.586    10.472245  0.017244598 
   30400   -89.984506    1.2165256   -88.767981    303.59521    16710.797    10.472245  0.019783115 
   30500   -89.867139    1.4815463   -88.385592    369.73358    18379.151    10.472245  0.019426151 
   30600   -90.126972    1.1506365   -88.976335    287.15198     14816.84    10.472245  0.016680511 
   30700   -90.212945    1.2250669   -88.987878    305.72677    14247.179    10.472245  0.013119637 
   30800   -89.884213    1.0929265   -88.791286    272.74991     17769.49    10.472245  0.019618391 
   30900   -89.805649    1.2135651   -88.592083    302.85639    19120.429    10.472245  0.019108934 
   31000    -90.01045    1.1183384   -88.892112    279.09168    16058.827    10.472245  0.016989417 
   31100   -89.989484    1.0855878   -88.903896    270.91848    16873.454    10.472245  0.015512832 
   31200   -89.803518   0.89940575   -88.904113    224.45502     18248.16    10.472245  0.019835252 
   31300   -89.770172    1.1581425    -88.61203    289.02516    19808.933    10.472245  0.017176707 
   31400   -90.152915   0.89459284   -89.258322    223.25392    14243.911    10.472245  0.014468068 
   31500   -90.022225    1.2077982   -88.814426    301.41722    16820.273    10.472245  0.014487105 
   31600   -89.756567    1.0294842   -88.727083     256.9173    18856.934    10.472245  0.021416496 
   31700   -89.656479    1.3549431   -88.301536    338.13857      21168.6    10.472245  0.021554247 
   31800    -90.07063      1.29942    -88.77121    324.28229    15827.441    10.472245  0.017622853 
   31900   -90.232873    1.3935568   -88.839316    347.77498    14358.523    10.472245  0.013906013 
   32000   -90.242944    1.0624486   -89.180495    265.14387    13396.583    10.472245  0.015413368 
   32100   -90.005686    1.4241854   -88.581501    355.41863    16884.912    10.472245  0.016107038 
   32200   -90.056839    1.3209848   -88.735854    329.66397    16338.983    10.472245  0.017639913 
   32300   -90.382162    1.1820449   -89.200117    294.99024    12043.537    10.472245  0.011634277 
   32400   -90.053626    1.2236867    -88.82994    305.38233    15910.401    10.472245  0.016482363 
   32500   -89.813151    1.2267099   -88.586441    306.13679    18830.406    10.472245  0.021497718 
   32600   -90.232742    1.3118408   -88.920901      327.382    13920.238    10.472245  0.013485063 
   32700   -90.139049    1.0574921   -89.081557    263.90693    14960.305    10.472245   0.01508057 
   32800   -89.972109    1.2446108   -88.727498    310.60412    16706.524    10.472245  0.018219393 
   32900   -89.832618    1.1375975    -88.69502    283.89798    18810.087    10.472245  0.019932805 
   33000   -89.807301    1.1173545   -88.689947    278.84614     18540.98    10.472245  0.022260495 
   33100   -90.008193    1.3621465   -88.646047    339.93626    16869.548    10.472245  0.017337624 
   33200   -90.178744   0.98999812   -89.188746    247.06319    13967.044    10.472245   0.01468878 
   33300    -89.95134    1.0100138   -88.941326    252.05829    16840.155    10.472245  0.014670256 
   33400   -89.834086     0.943998   -88.890088    235.58343    17929.441    10.472245  0.020213662 
   33500   -90.152431    1.6135444   -88.538886    402.67494    15718.362    10.472245  0.015032705 
   33600   -90.026919    1.2471495   -88.779769    311.23769    16125.056    10.472245  0.018239356 
   33700   -89.926738    1.0375652   -88.889173    258.93399    17000.834    10.472245   0.01779101 
   33800   -90.074123   0.97471486   -89.099408    243.24911    15039.517    10.472245  0.017181394 
   33900   -90.060416    1.4095573   -88.650859    351.76805     16221.45    10.472245  0.018058201 
   34000   -89.746418    1.2532279    -88.49319    312.75461    19484.881    10.472245  0.024600093 
   34100   -89.762546    1.1957166    -88.56683    298.40213    19057.647    10.472245  0.021658307 
   34200   -90.053105    1.0904233   -88.962682    272.12523    15652.057    10.472245  0.018016671 
   34300    -89.99269    1.3462981   -88.646392    335.98114    16629.812    10.472245  0.019661026 
   34400   -89.732808    1.4136907   -88.319117     352.7996    19837.487    10.472245  0.023424057 
   34500   -90.100104    1.2416902   -88.858414    309.87527     15413.53    10.472245  0.016888354 
   34600   -90.108713    1.1959536   -88.912759    298.46129    14967.126    10.472245  0.017369676 
   34700   -89.887562    1.4779588   -88.409604    368.83828    18438.905    10.472245  0.019671876 
   34800   -89.885286    1.1969192   -88.688367    298.70226    17589.554    10.472245  0.021745147 
   34900   -90.070337    1.2293041   -88.841033     306.7842    16149.776    10.472245  0.015052386 
   35000   -90.235853   0.84010276   -89.395751    209.65541    13058.147    10.472245  0.014674871 
   35100   -90.056721    1.1481973   -88.908523    286.54325    16042.218    10.472245  0.015609869 
   35200   -89.763786    1.1755221   -88.588264    293.36241    19044.678    10.472245  0.022592124 
   35300   -90.004347    1.0634663   -88.940881    265.39785    16369.293    10.472245  0.016568056 
   35400   -90.149179   0.98846536   -89.160714    246.68067    14492.146    10.472245  0.014346603 
   35500   -89.902571    1.1812395   -88.721331    294.78924    17512.422    10.472245  0.019735935 
   35600   -89.973749    1.5391477   -88.434601    384.10853    17569.818    10.472245  0.017691767 
   35700   -90.126846    1.1028245   -89.024021    275.22006    14704.422    10.472245  0.017895475 
   35800    -90.00619    1.3485653   -88.657624    336.54695    16684.776    10.472245  0.016740464 
   35900   -89.626065    1.0309178   -88.595147    257.27508     20136.56    10.472245  0.024435516 
   36000   -90.081798    1.1414204   -88.940377    284.85202    15679.411    10.472245   0.01411127 
   36100   -90.021226   0.87211734   -89.149108    217.64495    15790.584    10.472245  0.016892986 
   36200   -89.982743    1.1990715   -88.783672    299.23938    16816.932    10.472245  0.016519938 
   36300   -89.844045   0.93550334   -88.908542    233.46351    18185.581    10.472245  0.020872989 
   36400   -90.012929     1.340438   -88.672491    334.51871    16794.144    10.472245  0.015937902 
   36500   -90.154594    1.3871703   -88.767424    346.18117    15224.997    10.472245  0.015212452 
   36600   -90.182553    1.3581137    -88.82444    338.92984    14561.689    10.472245   0.01490652 
   36700   -90.209307   0.91308923   -89.296218    227.86986    13592.696    10.472245  0.015536815 
   36800     -90.2821    1.3023271   -88.979773    325.00778    13660.852    10.472245   0.01333966 
   36900   -89.824544    1.4012543    -88.42329    349.69598    18567.809    10.472245  0.021709631 
   37000   -90.219226    1.2876446   -88.931581    321.34363    14417.598    10.472245  0.012329686 
   37100   -89.963918   0.87873253   -89.085186    219.29583    16579.222    10.472245  0.018522714 
   37200   -90.064174    1.2477001   -88.816474    311.37509    16492.091    10.472245  0.014363715 
   37300   -89.981469    1.0186376   -88.962832    254.21043    16513.308    10.472245  0.017002806 
   37400   -89.798308    1.2047193   -88.593589    300.64884    19431.025    10.472245  0.017615329 
   37500   -90.029015     1.025504   -89.003511      255.924    15895.161    10.472245  0.016555729 
   37600   -90.327719    1.1270153   -89.200704    281.25709    12704.011    10.472245  0.011485134 
   37700   -89.766458    1.2059588     -88.5605    300.95816    18625.984    10.472245  0.022108939 
   37800   -90.032376     1.569127   -88.463249    391.59015     17057.82    10.472245  0.016834437 
   37900   -90.094637    1.1966098   -88.898027    298.62505    15428.008    10.472245  0.017572401 
   38000   -89.970607    1.3690849   -88.601522    341.66781    17289.311    10.472245  0.018885557 
   38100   -89.899536    1.3762797   -88.523256    343.46332    17948.181    10.472245  0.020894158 
   38200   -90.241103    1.2527729    -88.98833    312.64107    14145.008    10.472245  0.012808603 
   38300   -90.083285    0.9385771   -89.144708     234.2306    15126.249    10.472245  0.014835677 
   38400   -89.831012    1.2203302   -88.610681    304.54468     18714.34    10.472245  0.017489703 
   38500    -89.95096    1.0347486   -88.916212    258.23108    17030.638    10.472245  0.018695919 
   38600   -90.276188    1.1480565   -89.128131    286.50811    13323.733    10.472245  0.012574335 
   38700   -89.655872    1.1840708   -88.471801    295.49582    20653.639    10.472245  0.024057392 
   38800   -89.931346    1.4268489   -88.504497    356.08335    17792.586    10.472245  0.018149753 
   38900   -90.042315     1.143799   -88.898516    285.44562    15921.176    10.472245  0.016795319 
   39000   -89.992828    1.0908216   -88.902006    272.22462    16488.766    10.472245  0.018211201 
   39100   -89.639536    1.2344416   -88.405094    308.06632    20903.908    10.472245  0.023571756 
   39200    -90.17747    1.1923284   -88.985141    297.55657    14257.741    10.472245  0.015596752 
   39300    -90.16466    1.1454496    -89.01921    285.85753    14863.532    10.472245  0.015362561 
   39400   -89.759981    1.0512941   -88.708687    262.36016    18712.462    10.472245  0.024819219 
   39500   -89.746133    1.4486757   -88.297457    361.53042    20210.475    10.472245  0.022022911 
   39600   -89.976409    1.1051005   -88.871309    275.78805    16482.906    10.472245  0.018798322 
   39700   -90.083071   0.99274016   -89.090331    247.74749     15349.02    10.472245  0.015712667 
   39800   -89.828771    1.2026403    -88.62613       300.13    18345.918    10.472245  0.020818581 
   39900   -89.625002    1.5155272   -88.109474    378.21383    21661.572    10.472245  0.022297681 
   40000   -90.019367    1.2921764   -88.727191    322.47457    16392.071    10.472245  0.016326325 
   40100   -90.168108    1.1480466   -89.020061    286.50565    14678.634    10.472245  0.015791515 
   40200   -90.076531    1.4203136   -88.656217     354.4524    15874.505    10.472245  0.017831953 
   40300   -89.924527    1.4056356   -88.518891    350.78936    17673.936    10.472245  0.018965167 
   40400   -90.283175    1.1928192   -89.090355    297.67907    13094.091    10.472245  0.013326349 
   40500   -90.049361    1.1548191   -88.894542    288.19579    16043.952    10.472245  0.016781732 
   40600   -89.894142    1.2409554   -88.653186     309.6919    17806.345    10.472245  0.017668547 
   40700   -90.033219   0.97191683   -89.061303    242.55083    16043.659    10.472245  0.016846546 
   40800   -90.098984    1.1982774   -88.900706    299.04121    15655.349    10.472245  0.015080008 
   40900   -89.774784    1.3485822   -88.426202    336.55115    19812.072    10.472245  0.021063167 
   41000    -90.03769    1.1654288   -88.872261    290.84354    15974.601    10.472245  0.017680784 
   41100   -90.176512    1.1379448   -89.038567    283.98464    14397.883    10.472245  0.014685585 
   41200   -90.183453    1.4349568   -88.748496    358.10674    14616.421    10.472245  0.016881888 
   41300   -89.996073     1.408899   -88.587174    351.60378    16854.726    10.472245  0.019511047 
   41400    -90.05759    1.1344208    -88.92317    283.10519    15686.551    10.472245  0.016277577 
   41500   -89.973896    1.0163257   -88.957571    253.63348    16486.821    10.472245  0.017546827 
   41600   -89.666071    1.1147729   -88.551298    278.20188     20134.29    10.472245  0.023075098 
   41700   -89.977072    1.0206181   -88.956454    254.70468    16612.487    10.472245  0.018104081 
   41800    -90.14106    1.0024076   -89.138652    250.16009    14448.505    10.472245  0.015362744 
   41900   -89.955685    1.1492424   -88.806443    286.80407    16821.673    10.472245  0.017353428 
   42000   -89.924805     1.133905     -88.7909    282.97648    16875.834    10.472245  0.018233397 
   42100   -90.145657    1.3089007   -88.836757    326.64828    14618.948    10.472245  0.017058018 
   42200   -90.176747    1.3844135   -88.792333    345.49319    14713.378    10.472245  0.017103391 
   42300    -90.00561    1.2836463   -88.721963    320.34582    16313.476    10.472245  0.018671015 
   42400   -89.992047    1.1952464   -88.796801    298.28479    16392.828    10.472245  0.018015232 
   42500   -90.274224    1.1064902   -89.167734    276.13485    13135.304    10.472245  0.013433949 
   42600   -89.694962    1.2572116   -88.437751    313.74879    20029.564    10.472245  0.021375333 
   42700   -89.728333    1.0696043   -88.658729    266.92966    19414.131    10.472245  0.022005893 
   42800   -90.262091   0.94935619   -89.312734    236.92062    13037.076    10.472245  0.013361397 
   42900   -90.054615    1.1415798   -88.913035     284.8918    15441.105    10.472245   0.01554704 
   43000   -89.938525    1.1123063   -88.826219    277.58632    16960.655    10.472245  0.022284913 
   43100   -89.963972     1.603306   -88.360666    400.11983    17408.186    10.472245  0.020791761 
   43200   -90.139199    1.3877298    -88.75147     346.3208    14716.392    10.472245  0.017777028 
   43300   -90.086053    1.1970855   -88.888967    298.74375    15307.343    10.472245  0.018131762 
   43400   -89.801656    1.1312766    -88.67038    282.32054    18500.067    10.472245  0.021936207 
   43500   -89.750026     1.260748   -88.489278    314.63132     19305.84    10.472245  0.021442257 
   43600   -90.071491    1.1929132   -88.878577    297.70253    15597.575    10.472245   0.01573499 
   43700    -89.98915   0.94502458   -89.044125    235.83962     16168.26    10.472245  0.018310831 
   43800   -89.739339     1.168276   -88.571063    291.55407    19363.479    10.472245  0.020073277 
   43900   -89.893216   0.85091058   -89.042306     212.3526    16731.817    10.472245  0.023028555 
   44000   -90.366473    1.4588685   -88.907604    364.07413    12506.834    10.472245  0.012789329 
   44100   -89.994302    1.2430622    -88.75124    310.21767    16157.122    10.472245  0.021371827 
   44200   -89.954135    1.3818796   -88.572256    344.86082    17201.332    10.472245  0.019193563 
   44300   -90.215419    1.1383627   -89.077057    284.08894    13397.086    10.472245  0.015753218 
   44400   -90.276884    1.4832151   -88.793669    370.15004    13824.277    10.472245  0.013372252 
   44500   -89.981684    1.3323673   -88.649317    332.50459    16714.947    10.472245  0.018463412 
   44600   -90.020805    1.1417901   -88.879015    284.94427    16473.395    10.472245  0.015916581 
   44700   -90.032268    1.0771482    -88.95512    268.81229    15975.712    10.472245  0.016342233 
   44800   -89.748528    1.1894265   -88.559102    296.83238    19834.983    10.472245  0.021198305 
   44900   -90.164782    1.0414414    -89.12334    259.90133    14244.261    10.472245   0.01509373 
   45000   -90.222097   0.94206018   -89.280037    235.09983    13542.312    10.472245  0.014018984 
   45100   -89.734883    1.1600691   -88.574814    289.50598    19412.357    10.472245  0.021724202 
   45200   -90.004243    1.2606243   -88.743619    314.60045    16758.026    10.472245  0.016182843 
   45300   -90.147789    1.2846732   -88.863116    320.60207    14950.956    10.472245  0.015644776 
   45400   -89.937549    1.3353035   -88.602246    333.23734    17723.101    10.472245  0.018738316 
   45500   -89.702823    1.1798072   -88.523016    294.43179    19962.294    10.472245  0.022300002 
   45600   -90.203723    1.0280713   -89.175652    256.56469    13772.667    10.472245  0.014280213 
   45700   -90.104322    1.2536334   -88.850689    312.85581    15285.332    10.472245  0.016744539 
   45800   -89.530818     1.527521   -88.003297    381.20699    22484.233    10.472245    0.0244927 
   45900   -89.941429     1.269653   -88.671776    316.85365    17195.881    10.472245  0.019783021 
   46000   -90.228918    1.2589879    -88.96993    314.19207    14027.569    10.472245  0.014438516 
   46100   -90.225134     1.312757   -88.912376    327.61065    13859.039    10.472245  0.015314175 
   46200   -89.715303    1.3921377   -88.323166    347.42083    20256.924    10.472245  0.022171458 
   46300   -89.894568    1.1026826   -88.791885    275.18464     17329.78    10.472245  0.019138882 
   46400   -90.074711   0.97463049   -89.100081    243.22805    15403.531    10.472245  0.015774087 
   46500   -89.880786    1.1653847   -88.715401    290.83252    17758.111    10.472245  0.019828965 
   46600   -89.726705    1.4348393   -88.291866    358.07742    20622.594    10.472245  0.020417549 
   46700    -89.95951    1.1052989   -88.854211    275.83756    16689.585    10.472245  0.018226584 
   46800    -90.00417    1.0157954   -88.988374    253.50113    16178.201    10.472245  0.017850203 
   46900   -89.924891      1.42029   -88.504601    354.44651    17522.985    10.472245  0.019296116 
   47000   -90.214485    1.6191154   -88.595369    404.06522    14398.739    10.472245  0.016383216 
   47100   -90.358051    1.3037968   -89.054254    325.37454    12416.668    10.472245   0.01341096 
   47200   -90.023458    1.3775612   -88.645897    343.78314     16289.52    10.472245  0.018283739 
   47300   -90.053571    1.4803737   -88.573197    369.44095    16312.822    10.472245    0.0180966 
   47400   -90.081217    1.2948453   -88.786372    323.14063    15717.149    10.472245  0.016438187 
   47500   -90.079751    1.1663352   -88.913416    291.06974    15675.098    10.472245  0.015888053 
   47600   -89.539642    1.1344659   -88.405177    283.11646    21872.114    10.472245  0.022999835 
   47700   -89.641065   0.99937217   -88.641693    249.40257     20546.12    10.472245  0.023216479 
   47800    -90.09242    1.1570886   -88.935331    288.76216     15083.72    10.472245  0.016650318 
   47900   -90.111941    1.1539153   -88.958026    287.97024    15300.993    10.472245  0.016941257 
   48000   -89.543878    1.4967832   -88.047095    373.53608    21884.423    10.472245  0.027299318 
   48100   -89.764518    1.3988201   -88.365698    349.08848    19079.003    10.472245  0.023959149 
   48200   -90.241509     1.287903   -88.953606    321.40811    13732.147    10.472245  0.015525282 
   48300   -90.092965    1.2943733   -88.798592    323.02283    15416.224    10.472245  0.018058077 
   48400   -89.942608    1.2330999   -88.709508    307.73149     17239.42    10.472245  0.017824954 
   48500   -90.072521   0.99170531   -89.080815    247.48923    15292.326    10.472245  0.015916201 
   48600   -90.322307    0.9240002   -89.398307    230.59279    12324.677    10.472245  0.012351219 
   48700   -89.912509    1.1381772   -88.774332    284.04266    17561.405    10.472245  0.018403723 
   48800   -89.726522    1.2032837   -88.523239    300.29058    19886.968    10.472245  0.021293419 
   48900   -90.119073   0.97389821   -89.145175     243.0453    14761.576    10.472245  0.015541035 
   49000   -90.033425    1.0959696   -88.937456    273.50935    16028.996    10.472245  0.016238129 
   49100   -89.725161    1.1941755   -88.530986    298.01753    19798.597    10.472245  0.022899011 
   49200   -89.955923      1.32213   -88.633793    329.94976    17216.355    10.472245  0.017579968 
   49300   -90.301455    1.2482531   -89.053202    311.51309    13231.678    10.472245  0.012240971 
   49400   -89.987007    1.2035402   -88.783467    300.35458    16689.971    10.472245  0.016732399 
   49500   -89.807052    1.0664488   -88.740603    266.14216      18598.2    10.472245  0.017611257 
   49600   -89.957713   0.80039494   -89.157319    199.74596     16221.99    10.472245  0.016580451 
   49700   -90.239584    1.1182416   -89.121343    279.06754    13830.343    10.472245   0.01218045 
   49800   -89.900125    1.1563297   -88.743795    288.57277    17878.418    10.472245  0.019722748 
   49900   -89.738557    1.0616525   -88.676904    264.94519    19753.406    10.472245  0.019885573 
   50000   -89.965289   0.83497971   -89.130309    208.37691    16392.523    10.472245  0.018320082 
   50100    -90.22068    1.2930039   -88.927676    322.68108    14413.715    10.472245   0.01260065 
   50200   -90.121888    1.5821592   -88.539729    394.84246     15828.48    10.472245  0.014187761 
   50300   -89.956185    1.2951497   -88.661035     323.2166    17281.149    10.472245  0.017440985 
   50400   -90.195666    1.3316244   -88.864042    332.31919     14519.78    10.472245  0.013376142 
   50500   -90.346947    1.4224771    -88.92447    354.99232    12852.725    10.472245  0.013128412 
   50600   -90.193111    1.4463746   -88.746737    360.95615    14765.264    10.472245  0.016595334 
   50700   -89.957839    1.2824276   -88.675412    320.04167    17101.413    10.472245  0.018896065 
   50800   -89.956494    1.0146745    -88.94182     253.2214     16953.03    10.472245  0.017322426 
   50900   -90.040411    1.1071684   -88.933242    276.30412     16078.33    10.472245  0.014438893 
   51000    -89.86815    1.2052642   -88.662886    300.78483     18543.21    10.472245  0.017333679 
   51100   -89.992687    1.1276259   -88.865061    281.40946    16903.412    10.472245  0.016361792 
   51200    -90.08597    0.9134302    -89.17254    227.95495    15083.868    10.472245  0.015152816 
   51300   -89.816344    1.2372845    -88.57906    308.77579    18972.513    10.472245  0.018324436 
   51400    -89.87942    1.2710479   -88.608372    317.20176    17835.687    10.472245     0.021266 
   51500   -90.017007    1.2832291   -88.733777     320.2417    16891.445    10.472245  0.018315081 
   51600   -90.073806    1.0059063     -89.0679    251.03321     15187.53    10.472245  0.016597253 
   51700   -90.390915    1.0974391   -89.293475    273.87607    11958.397    10.472245  0.011293045 
   51800   -89.843455    1.1934669   -88.649988    297.84071     18412.19    10.472245  0.020875643 
   51900   -89.862128    1.2291839   -88.632944    306.75422     18450.19    10.472245  0.018720108 
   52000   -90.261015   0.98542066   -89.275595    245.92084    13126.107    10.472245  0.013433766 
   52100   -90.109481    1.1238763   -88.985605    280.47373    15168.426    10.472245      0.01471 
   52200   -89.848649    1.1836237   -88.665025    295.38423    18455.286    10.472245  0.018378586 
   52300   -89.844988   0.88951619   -88.955471    221.98699    17830.816    10.472245  0.020298844 
   52400   -90.424184   0.89072208   -89.533462    222.28793    11178.733    10.472245  0.010003306 
   52500   -90.113551    1.0436275   -89.069923    260.44689    14971.973    10.472245  0.015717423 
   52600   -89.765202    1.2535181   -88.511684    312.82703    19901.359    10.472245  0.019908038 
   52700   -90.030346    1.0945095   -88.935837    273.14497    16127.912    10.472245  0.015276444 
   52800   -90.131024    1.3673432   -88.763681    341.23314    15836.656    10.472245  0.014699641 
   52900    -89.97751    1.6007595    -88.37675    399.48433     17399.76    10.472245   0.01832542 
   53000   -90.087747    1.4578655   -88.629881    363.82381    16225.378    10.472245   0.01430472 
   53100   -90.249826     1.117007   -89.132819    278.75942    13810.773    10.472245  0.013518902 
   53200   -90.001617    1.4059473    -88.59567    350.86714    17243.082    10.472245  0.016426997 
   53300   -90.037218    1.2887252   -88.748493    321.61329     16823.95    10.472245   0.01538739 
   53400   -90.212139   0.94959643   -89.262543    236.98057    13945.059    10.472245  0.013737106 
   53500   -89.916166    1.0058176   -88.910348    251.01109    17490.111    10.472245  0.014309378 
   53600   -89.893424    0.9763948   -88.917029    243.66835    17550.511    10.472245  0.016275531 
   53700   -89.953265    1.4456945   -88.507571    360.78642    18287.151    10.472245  0.017739839 
   53800   -89.644498    1.4014561   -88.243042    349.74633    21164.269    10.472245  0.023422923 
   53900   -90.072933    1.1184364   -88.954497    279.11614     15964.12    10.472245  0.015568367 
   54000   -90.159141     1.069255   -89.089886    266.84249    14297.533    10.472245   0.01598322 
   54100     -90.2292    1.5512288   -88.677972    387.12348    14611.976    10.472245  0.012968033 
   54200    -90.13097    1.3686528   -88.762317    341.55995     15887.46    10.472245  0.014412817 
   54300   -89.922343   0.95582183   -88.966521    238.53418    17266.443    10.472245  0.016906336 
   54400   -89.843826   0.90602329   -88.937802    226.10649    18342.146    10.472245  0.015569562 
   54500   -90.061261    1.3500944   -88.711167    336.92855    16514.554    10.472245  0.014542303 
   54600   -89.729724    1.4296471   -88.300077    356.78166    21013.493    10.472245  0.020634494 
   54700   -89.842895   0.99659483     -88.8463    248.70946     18056.69    10.472245  0.018572533 
   54800   -90.129076   0.97188491   -89.157192    242.54287    14831.671    10.472245  0.015344783 
   54900   -90.226094    1.3364519   -88.889642    333.52393    14077.323    10.472245  0.015139966 
   55000   -90.079722    1.4391373   -88.640584    359.15003     16039.47    10.472245  0.016282077 
   55100   -89.998641   0.92066711   -89.077974    229.76099    15638.016    10.472245  0.020246573 
   55200   -90.281173    1.6325259   -88.648647    407.41195    13986.769    10.472245  0.012654977 
   55300   -90.086138    1.5535487    -88.53259    387.70245    15407.906    10.472245  0.021391032 
   55400   -90.089601     1.429169   -88.660432    356.66233    15955.748    10.472245  0.017135655 
   55500   -90.101461   0.91265048    -89.18881    227.76037    14505.577    10.472245  0.017178795 
   55600    -89.82048   0.99641499   -88.824065    248.66458    18548.513    10.472245  0.020520011 
   55700   -89.618758    1.0294099   -88.589348    256.89877    20283.399    10.472245  0.024930369 
   55800   -90.118484    1.1133762   -89.005108    277.85333    15396.291    10.472245  0.014954092 
   55900   -90.099025   0.85071852   -89.248306    212.30467    14875.767    10.472245   0.01556627 
   56000   -89.726036   0.95620669   -88.769829    238.63022    19726.226    10.472245  0.019272778 
   56100   -89.886599    1.1059904   -88.780609    276.01012    17676.645    10.472245  0.018417589 
   56200   -90.204798    1.3760814   -88.828717    343.41384    14800.477    10.472245  0.014714266 
   56300   -90.026911    1.2296491   -88.797262    306.87031    16415.285    10.472245  0.018556788 
   56400   -89.874165    1.7177966   -88.156368    428.69202    19293.392    10.472245  0.019146361 
   56500   -89.918904    1.2492295   -88.669674    311.75678    17376.639    10.472245  0.024559863 
   56600   -90.290865    1.5879532   -88.702911     396.2884    14226.377    10.472245     0.013198 
   56700    -90.23624    1.1696245   -89.066615    291.89062    13355.312    10.472245   0.01645008 
   56800   -90.156871    1.3929314   -88.763939    347.61892    15056.599    10.472245  0.014744302 
   56900   -90.030801    1.1635958   -88.867205     290.3861    16008.368    10.472245  0.017489289 
   57000    -89.69638    1.4876642   -88.208715    371.26036    20809.219    10.472245  0.019089762 
   57100   -90.099748    1.2051077   -88.894641    300.74576    15491.568    10.472245  0.016093139 
   57200    -90.08951    1.2273639   -88.862146        306.3    15973.466    10.472245  0.013461215 
   57300   -89.702309   0.87711656   -88.825192    218.89255    19890.557    10.472245  0.019423064 
   57400   -89.703799   0.95472737   -88.749071    238.26104    20138.315    10.472245  0.018642107 
   57500   -89.968512   0.93749984   -89.031012    233.96175    17037.702    10.472245   0.01795351 
   57600    -89.95879    1.4961948   -88.462595    373.38924    18334.421    10.472245   0.01649302 
   57700   -89.745892    1.0441927   -88.701699    260.58795    19851.683    10.472245  0.021622154 
   57800   -90.178635   0.89598758   -89.282648    223.60199    14128.302    10.472245  0.013039401 
   57900   -90.201593    1.2579407   -88.943653    313.93075     14522.08    10.472245  0.014447585 
   58000   -90.172701    1.6263629   -88.546338    405.87389    15624.704    10.472245  0.017121443 
   58100   -90.215508    1.5218212   -88.693687    379.78455    14914.491    10.472245  0.013864842 
   58200   -90.031551   0.97894034    -89.05261    244.30361    15819.064    10.472245  0.018360233 
   58300    -90.16794    1.4071076   -88.760832    351.15671    15347.996    10.472245  0.013462171 
   58400   -90.041782    1.1965998   -88.845182    298.62255    16107.675    10.472245  0.016975588 
   58500   -89.899011    1.1702476   -88.728764    292.04611    17987.123    10.472245  0.016627715 
   58600    -89.90167   0.94030227   -88.961368    234.66113    17661.022    10.472245  0.018300865 
   58700   -90.021988    1.2469433   -88.775045    311.18623    16717.968    10.472245  0.015776444 
   58800    -90.01857    1.1503562   -88.868214    287.08202    16661.097    10.472245  0.015531846 
   58900   -89.998804    1.0317407   -88.967063    257.48043    16349.772    10.472245  0.016086421 
   59000   -89.788431    1.1392109    -88.64922    284.30062    19239.392    10.472245  0.017890374 
   59100   -89.819825    1.0866458    -88.73318    271.18251     18426.42    10.472245  0.020105418 
   59200   -90.206556     1.238691   -88.967865     309.1268    14433.286    10.472245  0.013358995 
   59300   -90.017321    1.0272705    -88.99005    256.36485    15868.383    10.472245   0.01740261 
   59400   -89.807061    1.2595933   -88.547468    314.34316    19232.817    10.472245   0.01826898 
   59500   -89.985485   0.96677856   -89.018707    241.26853    16285.426    10.472245  0.018066423 
   59600    -90.25595    1.3141916   -88.941758    327.96866    14072.616    10.472245  0.011865066 
   59700   -90.042086   0.91168131   -89.130405     227.5185    15396.443    10.472245  0.018448702 
   59800   -89.903525    1.1229598   -88.780566    280.24501    18152.279    10.472245  0.018091252 
   59900   -89.612212    1.1847701   -88.427442    295.67034     21241.68    10.472245  0.022320567 
   60000   -89.893194    1.1810088   -88.712185    294.73167    17965.569    10.472245  0.017984291 
   60100   -89.993765    1.0440532   -88.949712    260.55314    16897.041    10.472245  0.016168423 
   60200   -89.755611    1.0601166   -88.695494     264.5619     19309.22    10.472245  0.020627562 
   60300   -89.732047    1.4385891   -88.293457    359.01322    20991.737    10.472245  0.019910747 
   60400   -90.197941    1.3293309    -88.86861    331.74681    14427.559    10.472245   0.01392288 
   60500   -90.181025    1.3360682   -88.844956    333.42818    15028.942    10.472245  0.013259934 
   60600    -90.04064    1.5556103    -88.48503    388.21694    16931.138    10.472245  0.019186174 
   60700   -89.931765    1.5164234   -88.415342    378.43748    18136.021    10.472245  0.017877248 
   60800   -90.152042    1.1070736   -89.044969    276.28046    14716.074    10.472245  0.014683712 
   60900    -90.07069    1.4352943   -88.635396    358.19097    16533.427    10.472245  0.016359108 
   61000   -89.731961     1.618026   -88.113935    403.79335    20711.703    10.472245  0.020540145 
   61100   -89.975193    1.2773116   -88.697882    318.76492    17126.171    10.472245  0.017071759 
   61200   -90.206917    1.1845433   -89.022373    295.61373    14175.783    10.472245  0.013245927 
   61300   -90.098561    1.3896407   -88.708921    346.79768    16006.916    10.472245  0.014878889 
   61400   -89.800804    1.3125261   -88.488278    327.55304    18895.977    10.472245  0.018872662 
   61500   -90.048158    1.1203014   -88.927856    279.58158    16277.982    10.472245  0.014505001 
   61600   -89.995214    1.0117316   -88.983482    252.48698    16164.535    10.472245  0.016787245 
   61700   -89.969578    1.5587275    -88.41085    388.99487    18039.489    10.472245  0.016844641 
   61800   -89.836822   0.95986973   -88.876952    239.54437    18102.189    10.472245   0.02253064 
   61900   -90.099346    1.1106742   -88.988671    277.17901    15300.733    10.472245  0.014759233 
   62000   -90.036356    1.1716338   -88.864722    292.39206    16108.259    10.472245  0.016893493 
   62100   -89.914205    1.3469974   -88.567208    336.15565    18054.192    10.472245   0.01836184 
   62200   -90.099907    1.1710601   -88.928847    292.24888    15774.671    10.472245  0.014074242 
   62300   -90.263755    0.9403695   -89.323385    234.67791    13032.322    10.472245   0.01260387 
   62400   -90.012975    1.1857468   -88.827229    295.91409    17228.627    10.472245  0.013674593 
   62500   -89.730101   0.95465496   -88.775446    238.24297    19592.007    10.472245  0.021464536 
   62600   -89.722705    1.3547145   -88.367991    338.08152    20915.326    10.472245  0.016832093 
   62700   -89.841222   0.93852861   -88.902693    234.21849    18184.626    10.472245  0.018166003 
   62800   -90.046703    1.1845994   -88.862103    295.62773    16842.688    10.472245    0.0144852 
   62900   -90.048617    1.2310738   -88.817544    307.22586    16258.323    10.472245  0.016477528 
   63000    -89.98886    1.4489525   -88.539908    361.59948    17220.265    10.472245  0.018515416 
   63100   -90.107492     1.410478   -88.697014    351.99783    15752.206    10.472245  0.016134944 
   63200   -89.978906   0.99700814   -88.981898     248.8126     16440.66    10.472245  0.019337918 
   63300   -90.023157    1.3127348   -88.710422    327.60511    16869.534    10.472245  0.016089099 
   63400   -90.027034    1.0609781   -88.966056    264.77691    15843.804    10.472245  0.017416567 
   63500    -90.12943    1.1254301      -89.004    280.86149    15209.409    10.472245  0.014284377 
   63600   -89.672941    0.9882175   -88.684724    246.61882    20101.892    10.472245  0.022660215 
   63700   -89.779558    1.1803177    -88.59924     294.5592    19332.885    10.472245  0.019195935 
   63800   -89.911691   0.99230827   -88.919383    247.63971    17287.498    10.472245  0.017942004 
   63900   -90.076633    1.2165579   -88.860075    303.60327    15940.556    10.472245  0.014544232 
   64000   -90.324213    1.1236454   -89.200568    280.41611    12857.211    10.472245  0.012727238 
   64100   -89.980858    1.1841317   -88.796726    295.51101      16747.2    10.472245  0.017630383 
   64200   -89.917305    1.3375386   -88.579767    333.79513     17838.02    10.472245  0.018277854 
   64300    -90.08964    1.1524928   -88.937147    287.61523    15571.107    10.472245  0.016839363 
   64400   -90.020312    1.3922831   -88.628029    347.45713     16759.21    10.472245  0.015728208 
   64500   -89.819557    1.1048657   -88.714692    275.72945    18288.292    10.472245  0.022189091 
   64600   -90.067672    1.4920912   -88.575581    372.36517    16479.343    10.472245  0.015623215 
   64700   -90.212032    1.1697798   -89.042252    291.92936     14042.83    10.472245  0.014025701 
   64800    -90.07437    1.4280423   -88.646327    356.38117    16080.663    10.472245  0.014946072 
   64900   -89.835768    1.1923725   -88.643395    297.56758    18542.274    10.472245  0.021047695 
   65000   -90.315238    1.4712981    -88.84394    367.17605    13599.529    10.472245  0.011751975 
   65100   -90.184434    1.1475911   -89.036843    286.39196    14664.402    10.472245  0.013452343 
   65200   -89.608899    1.0253053   -88.583593    255.87443    21041.567    10.472245  0.022076016 
   65300   -89.651617   0.94189265   -88.709725    235.05802     20193.51    10.472245  0.021553199 
   65400   -90.030297    1.0596195   -88.970678    264.43785     16445.19    10.472245  0.016332791 
   65500   -89.952465    1.3517175   -88.600748     337.3336    17698.507    10.472245  0.016994488 
   65600   -89.673091    1.0392894   -88.633802    259.36428    20287.835    10.472245  0.022988292 
   65700   -89.942282    1.0383689   -88.903913    259.13457    17293.341    10.472245  0.017021907 
   65800    -90.01965    1.1712847   -88.848365    292.30493    16485.017    10.472245  0.016088101 
   65900   -89.698696    1.3900635   -88.308632    346.90319    21078.822    10.472245  0.019053071 
   66000   -90.046332    1.0671196   -88.979212    266.30957    16270.617    10.472245  0.017080332 
   66100   -89.985888    1.2275074   -88.758381    306.33582    17094.513    10.472245  0.016170307 
   66200   -89.785131    1.3369031   -88.448228    333.63653     19562.93    10.472245  0.017953592 
   66300   -90.182335    1.1359454   -89.046389    283.48569      14592.5    10.472245  0.013530307 
   66400    -90.16658    1.2791941   -88.887386    319.23473    14974.373    10.472245  0.012814187 
   66500   -89.871336    1.3493608   -88.521975    336.74546     18498.84    10.472245  0.018405532 
   66600   -89.815433    1.3486328   -88.466801     336.5638    19324.726    10.472245   0.01818023 
   66700   -90.263458     1.184176   -89.079282    295.52208    13600.717    10.472245  0.012182844 
   66800   -90.115572    1.2814183   -88.834154     319.7898    15783.683    10.472245  0.014709356 
   66900   -89.925514    1.3173085   -88.608206    328.74652    17978.769    10.472245  0.017824067 
   67000   -90.089632    1.0795039   -89.010128    269.40019    15531.281    10.472245  0.014731875 
   67100   -90.299972    1.0110037   -89.288968    252.30533    13010.281    10.472245  0.011385334 
   67200   -89.883138    1.1394478   -88.743691    284.35975    18008.125    10.472245  0.017518012 
   67300   -89.708051    1.1578091   -88.550242    288.94197    20492.199    10.472245  0.019924527 
   67400   -90.206595   0.97887138   -89.227724    244.28641     13841.71    10.472245  0.013910242 
   67500   -90.020443    1.1751827    -88.84526    293.27772    16678.332    10.472245  0.015464524 
   67600   -89.865723    1.1598578   -88.705866    289.45324     18333.22    10.472245  0.018572465 
   67700    -90.06758    1.1382306   -88.929349    284.05597    15858.569    10.472245  0.014802093 
   67800   -90.201259    1.0804467   -89.120812    269.63546    14261.178    10.472245  0.013754668 
   67900   -89.811605    1.2692896   -88.542316    316.76295    19306.485    10.472245  0.020482554 
   68000   -90.073379    1.5216217   -88.551757    379.73478      16706.2    10.472245  0.015666073 
   68100   -90.040912    1.1435608   -88.897351    285.38616    16074.608    10.472245  0.016941094 
   68200     -89.9453    1.4506519   -88.494648     362.0236    17771.657    10.472245  0.016042705 
   68300   -89.769464    1.2191786   -88.550286    304.25729    19221.447    10.472245  0.018677778 
   68400   -90.286105    1.2533713   -89.032734     312.7904    13622.395    10.472245  0.012105622 
   68500   -90.161534     1.381088   -88.780446    344.66327    15086.078    10.472245  0.015607741 
   68600   -89.905271    1.3631117   -88.542159    340.17712    18049.809    10.472245  0.018016772 
   68700    -90.16825     1.128103   -89.040147    281.52853    14762.797    10.472245  0.014202195 
   68800   -90.068682    1.4049907   -88.663691    350.62841    16320.884    10.472245  0.014906825 
   68900    -89.53171    1.2313778   -88.300332    307.30171    22394.232    10.472245  0.022443193 
   69000   -90.000463   0.97706244     -89.0234    243.83497    16495.877    10.472245  0.016045965 
   69100   -89.909654    1.1554503   -88.754204     288.3533    17971.978    10.472245  0.015426917 
   69200   -89.714679    1.0823885    -88.63229    270.12007    20834.707    10.472245  0.018334161 
   69300   -90.084529   0.95277098   -89.131758    237.77281    15565.916    10.472245  0.013064976 
   69400   -90.027553     1.214471   -88.813082    303.08248    16795.998    10.472245  0.014444974 
   69500   -89.841795    1.5191476   -88.322648    379.11734    19779.124    10.472245  0.017967446 
   69600   -90.076454    1.3326992   -88.743755     332.5874    16397.847    10.472245  0.014176052 
   69700   -90.122305    1.1258837   -88.996421    280.97469    15579.496    10.472245  0.014264771 
   69800   -89.901349     1.477834   -88.423515    368.80715    18573.912    10.472245  0.014989557 
   69900    -89.93837    1.2575401    -88.68083    313.83076    18257.372    10.472245  0.014664116 
   70000   -90.253322    1.0209882   -89.232334    254.79704    13609.749    10.472245  0.010676035 
   70100   -90.061727    1.2721837   -88.789543    317.48521    16671.182    10.472245  0.013364156 
   70200   -90.073803    1.4581979   -88.615605    363.90678    16626.022    10.472245  0.012872931 
   70300    -90.08969    1.2825538   -88.807136    320.07315    16387.753    10.472245  0.012512625 
   70400   -89.954224   0.83778746   -89.116437    209.07761    16878.815    10.472245  0.015952017 
   70500   -90.302432    1.2615189   -89.040913    314.82371    13722.322    10.472245  0.010530893 
   70600    -89.65755    1.2797969   -88.377753    319.38515    21132.264    10.472245  0.022509248 
   70700   -89.978735    1.2701718   -88.708563    316.98311    17546.221    10.472245  0.014888536 
   70800   -90.110922    1.0209138   -89.090008    254.77847    15396.103    10.472245  0.014551595 
   70900   -90.184294    1.4656117   -88.718683    365.75694    15283.755    10.472245  0.011582361 
   71000    -89.82103   0.87669789   -88.944332    218.78807     18864.08    10.472245  0.019277625 
   71100   -89.888004    1.1301253   -88.757879    282.03321     18379.74    10.472245  0.015757352 
   71200   -90.012729    1.0926918   -88.920038    272.69135    16697.389    10.472245  0.016411315 
   71300   -90.044031    1.3553195   -88.688711    338.23252    17099.061    10.472245   0.01461479 
   71400   -89.862599    1.1437536   -88.718846     285.4343    18399.667    10.472245  0.019399378 
   71500   -90.198449    1.3204131   -88.878036    329.52131     14775.86    10.472245  0.013490939 
   71600   -90.270009    1.2502509   -89.019758    312.01168    13601.555    10.472245  0.012723047 
   71700    -89.97828    1.3192524   -88.659028    329.23164    17109.242    10.472245   0.01792414 
   71800   -89.748608    1.6959264   -88.052681    423.23413    20563.644    10.472245  0.020465693 
   71900   -89.883161    1.1637639   -88.719397    290.42804    17949.492    10.472245  0.020563965 
   72000    -90.11077    1.1879838   -88.922786    296.47234    15437.053    10.472245  0.013830624 
   72100   -90.238787   0.88641407   -89.352373    221.21283    13276.313    10.472245  0.014473559 
   72200   -90.079771    1.2721374   -88.807634    317.47365    15969.016    10.472245   0.01436995 
   72300   -89.691807    1.0400907   -88.651717    259.56425    20181.819    10.472245  0.022242141 
   72400   -89.870559    1.2798088    -88.59075    319.38813    18493.527    10.472245  0.018237386 
   72500   -89.955736    1.2045752   -88.751161    300.61288    17352.248    10.472245  0.016123292 
   72600   -90.107366   0.94696513   -89.160401     236.3239    15006.428    10.472245  0.014817154 
   72700   -89.951155    1.2801917   -88.670963    319.48367    17874.248    10.472245  0.015235817 
   72800   -89.787966    1.1045967   -88.683369    275.66232    18867.307    10.472245  0.020161965 
   72900   -90.176802    1.1383601   -89.038441    284.08829    14905.261    10.472245  0.012324218 
   73000   -90.233811   0.89243126   -89.341379    222.71447    13392.319    10.472245  0.014135934 
   73100   -90.054681    1.2341102   -88.820571    307.98362    16252.731    10.472245  0.016267477 
   73200   -89.846951    1.2455769   -88.601374    310.84523    18565.802    10.472245  0.019499887 
   73300   -89.925231    1.1669856   -88.758245    291.23205    17598.604    10.472245  0.018023758 
   73400   -90.175694    1.0785387   -89.097155    269.15931    14486.924    10.472245  0.013974046 
   73500   -89.774949    1.4029424   -88.372007    350.11726    20013.666    10.472245   0.01948529 
   73600   -89.922972    1.4481884   -88.474783    361.40882    18319.118    10.472245  0.017665128 
   73700   -90.143262    1.1723305   -88.970932    292.56592    15018.188    10.472245  0.012967875 
   73800   -89.937976     1.191839   -88.746137    297.43446    17512.552    10.472245  0.017204177 
   73900   -90.025339    1.4169981   -88.608341    353.62499    16853.221    10.472245  0.015751528 
   74000   -90.074292    1.3649343   -88.709358    340.63198     16221.52    10.472245  0.014751172 
   74100    -90.27727    1.1298721   -89.147398    281.97003    13336.423    10.472245  0.012154535 
   74200   -90.317935    1.1444212   -89.173514    285.60089    12971.688    10.472245  0.011627227 
   74300   -89.822305    1.1666358   -88.655669    291.14475    18647.579    10.472245  0.019563183 
   74400   -89.790236     1.107047   -88.683189    276.27383    19265.444    10.472245  0.018673798 
   74500   -90.235888    0.9973753   -89.238513    248.90423    13495.054    10.472245  0.012563725 
   74600   -89.928614   0.97207378   -88.956541       242.59    17242.746    10.472245  0.017980772 
   74700   -89.888163    1.1783596   -88.709804    294.07053    17743.051    10.472245  0.017882737 
   74800   -89.997822   0.94709254    -89.05073     236.3557    16187.699    10.472245  0.017778395 
   74900   -90.278228    1.4172643   -88.860964    353.69141    13916.171    10.472245  0.012155038 
   75000   -89.439042    1.4659642   -87.973077    365.84492    23549.376    10.472245   0.03068906 
   75100   -89.925183    1.5209427   -88.404241     379.5653    18004.404    10.472245  0.019588232 
   75200   -90.097866    1.0443926   -89.053473    260.63782    15270.815    10.472245  0.015791918 
   75300    -90.07711    1.3323469   -88.744763    332.49948     16018.42    10.472245  0.015938461 
   75400   -89.955804     1.487938   -88.467866    371.32868    17574.485    10.472245  0.017669623 
   75500   -90.165889    1.3239953   -88.841894    330.41526     15008.16    10.472245  0.014669003 
   75600   -90.172239    1.0335674   -89.138672    257.93631    14645.732    10.472245   0.01394251 
   75700    -89.89186    1.0200577   -88.871802    254.56483    17623.542    10.472245  0.017925944 
   75800   -89.912143    1.2659567   -88.646187    315.93119    17884.501    10.472245  0.016117219 
   75900   -90.098968   0.97589026   -89.123077    243.54244    15419.881    10.472245  0.015710611 
   76000   -89.832241   0.96770869   -88.864533    241.50065    18522.499    10.472245  0.016984032 
   76100    -89.70833    1.0182161   -88.690114    254.10524    19774.637    10.472245  0.020818408 
   76200   -90.040033    1.2561113   -88.783921    313.47418    16687.585    10.472245  0.016139033 
   76300   -90.138722    1.1204371   -89.018285    279.61544    14678.042    10.472245  0.015026625 
   76400   -89.530455    1.2296587   -88.300796     306.8727    22552.888    10.472245  0.021608503 
   76500   -89.921291    1.1074391   -88.813851    276.37166    17031.953    10.472245  0.020499392 
   76600   -90.342635     1.533224   -88.809411    382.63023    13298.048    10.472245  0.012300067 
   76700   -90.221698    1.2031215   -89.018577    300.25011    13694.632    10.472245  0.016792698 
   76800    -90.10109    1.2733025   -88.827788    317.76441    15758.787    10.472245  0.016588868 
   76900   -89.923618     1.557932   -88.365686    388.79633    17923.842    10.472245  0.019278419 
   77000   -90.140167     1.333155   -88.807012    332.70116    15164.062    10.472245  0.015361212 
   77100   -90.199599    1.1360753   -89.063524     283.5181    14213.717    10.472245  0.013455346 
   77200   -89.756706    1.1329579   -88.623748    282.74012    19243.024    10.472245  0.021481296 
[...]
   81400   -89.647964    1.2741358   -88.373829    317.97238    20858.093    10.472245  0.023136929 
   81500   -89.967812    1.1566505   -88.811161    288.65284     16407.34    10.472245  0.018872484 
   81600   -90.172183    1.1931911   -88.978992    297.77186    14683.717    10.472245  0.013778839 
   81700   -89.864674    1.0292249   -88.835449     256.8526    17667.653    10.472245  0.019845475 
   81800   -89.765731    1.0366826   -88.729049    258.71374    19049.473    10.472245  0.018328819 
   81900   -90.003481   0.93851185   -89.064969    234.21431    15874.282    10.472245  0.015979034 
   82000   -90.213948    1.2598069   -88.954141    314.39646    14585.237    10.472245  0.012656004 
   82100   -89.655869    1.1963647   -88.459504    298.56388    20557.877    10.472245  0.022565896 
   82200   -89.937086    1.3045146   -88.632571    325.55368    17939.386    10.472245  0.017746793 
   82300   -90.068631    1.2097065   -88.858924    301.89345    15776.786    10.472245  0.016502853 
   82400   -90.034477    1.4517545   -88.582723    362.29876     16878.17    10.472245   0.01547867 
   82500   -89.886193    1.1659358   -88.720257    290.97007    17684.946    10.472245   0.02023354 
   82600   -90.280079    1.1651169   -89.114962    290.76569     13332.49    10.472245  0.012381022 
   82700   -90.270261    1.0483333   -89.221928    261.62127    13104.798    10.472245  0.013835641 
   82800   -89.853714    1.2753668   -88.578347    318.27957    18698.479    10.472245  0.019079067 
   82900   -89.876828    1.0167831   -88.860045    253.74763    17912.824    10.472245  0.019020639 
   83000   -90.101504    1.1302336    -88.97127    282.06023    15592.714    10.472245  0.013769422 
   83100   -90.093277    1.0866925   -89.006584    271.19416    15223.134    10.472245  0.015172654 
   83200   -89.835677    1.2096551   -88.626022     301.8806    18732.365    10.472245  0.019805686 
   83300   -89.815782    1.2074621    -88.60832    301.33335    18584.578    10.472245  0.021662384 
   83400   -90.346014    1.3418621   -89.004152    334.87409    12905.157    10.472245   0.01298811 
   83500    -90.44399    1.2411858   -89.202804     309.7494    11356.421    10.472245  0.011840719 
   83600   -90.010804    1.1661894   -88.844615    291.03334     16207.95    10.472245  0.018212695 
   83700   -89.857302    1.2092368   -88.648066    301.77623    18204.564    10.472245  0.018096115 
   83800   -90.063861   0.96331531   -89.100546    240.40424    15531.549    10.472245   0.01685544 
   83900   -90.082922    1.3260715    -88.75685     330.9334    16124.501    10.472245   0.01362401 
   84000   -89.704581    1.0450973   -88.659484     260.8137    19699.618    10.472245  0.020648346 
   84100   -89.883052   0.94157687   -88.941476    234.97921    17897.381    10.472245  0.016028773 
   84200   -89.983988   0.83335742    -89.15063    207.97205    15926.032    10.472245  0.016481157 
   84300   -89.985203    1.3542159   -88.630987     337.9571    17369.667    10.472245  0.016034669 
   84400   -89.722395    1.1496073   -88.572788    286.89513    19426.453    10.472245  0.023497224 
   84500   -89.805659    1.1832955   -88.622364    295.30235    19044.571    10.472245  0.020158312 
   84600   -90.158188    1.1301868   -89.028001    282.04856    14412.993    10.472245  0.015752201 
   84700   -90.117938    1.6066353   -88.511302    400.95071    16185.401    10.472245  0.015060319 
   84800   -89.788952    1.4669185   -88.322033    366.08308    19598.629    10.472245  0.022027468 
   84900   -89.932206    1.2741945   -88.658012    317.98702    17664.267    10.472245  0.016849644 
   85000   -89.967443   0.93210747   -89.035336    232.61604    16409.061    10.472245  0.017599324 
   85100   -90.009908    1.3373318   -88.672577    333.74353    16712.068    10.472245  0.016278782 
   85200   -90.015088    1.6661875   -88.348901    415.81249    17574.273    10.472245  0.017657576 
   85300   -89.890959    1.3182778   -88.572682    328.98841    17850.062    10.472245    0.0200159 
   85400   -90.047994     1.029235   -89.018759    256.85511    15950.184    10.472245  0.014834194 
   85500    -89.95382   0.91770545   -89.036115    229.02188    16296.019    10.472245   0.01851354 
   85600   -90.007132    1.4445203   -88.562612    360.49339    17439.257    10.472245  0.015878696 
   85700   -90.026847     1.207552   -88.819295    301.35576    16146.409    10.472245  0.017863539 
   85800   -89.970044    1.0080309   -88.962013    251.56344    16762.163    10.472245   0.01694548 
   85900   -89.963896   0.87655676   -89.087339    218.75285    16528.417    10.472245  0.017265663 
   86000   -89.953701    1.2158211    -88.73788    303.41939    16975.341    10.472245  0.018295316 
   86100   -90.171302     1.619004   -88.552298    404.03742    15665.688    10.472245  0.014213339 
   86200   -89.951908    1.2050775   -88.746831    300.73822    17028.666    10.472245  0.018205234 
   86300   -89.946428     1.183271   -88.763157    295.29622     17171.26    10.472245  0.015432693 
   86400   -90.265162   0.98074134    -89.28442    244.75307    13254.155    10.472245  0.013637038 
   86500   -90.362277    1.4285168    -88.93376    356.49959    13138.339    10.472245  0.011119937 
   86600   -90.017994    1.3808552   -88.637139    344.60518    17158.509    10.472245  0.016387577 
   86700    -90.03047    1.3053105   -88.725159    325.75231    17311.678    10.472245  0.013373717 
   86800   -90.132621   0.84569662   -89.286925    211.05141    14675.009    10.472245  0.013652455 
   86900   -90.129181    1.1687083   -88.960473    291.66196    15837.465    10.472245  0.014427952 
   87000   -89.859984    1.3840325   -88.475952    345.39812    19160.029    10.472245  0.018487548 
   87100   -89.884182    1.0294685   -88.854714    256.91338    18477.605    10.472245  0.016519236 
   87200   -89.832985   0.77006077   -89.062924    192.17579    18319.894    10.472245  0.016722276 
   87300   -89.969921     1.073498   -88.896423    267.90135     17453.13    10.472245  0.016281848 
   87400   -89.842141    1.2944885   -88.547653    323.05157    19527.005    10.472245   0.01862001 
   87500   -89.784886   0.97734597    -88.80754    243.90573    19143.995    10.472245   0.01926294 
   87600    -90.27166   0.86640887   -89.405251    216.22035    12951.452    10.472245  0.011942008 
   87700   -90.221592     1.094083   -89.127509    273.03853    14009.277    10.472245   0.01488164 
   87800    -90.15485    1.5214272   -88.633423    379.68622    15461.458    10.472245  0.016691721 
   87900   -90.098642    1.3237452   -88.774897    330.35285     15973.54    10.472245  0.016842835 
   88000   -90.084018    1.0702178   -89.013801    267.08275    15435.393    10.472245  0.015712882 
   88100   -90.183363    1.2402114   -88.943151    309.50623    14776.202    10.472245  0.014946761 
   88200   -89.862319    1.4011743   -88.461145    349.67601    19028.548    10.472245   0.02007273 
   88300   -90.036333    1.2800674   -88.756266    319.45267    17035.094    10.472245  0.014019493 
   88400   -90.072765   0.95736925   -89.115396    238.92035    15931.374    10.472245  0.013743337 
   88500   -89.815428    1.0257168   -88.789711    255.97711    19383.615    10.472245  0.017772724 
   88600   -89.790852    1.1701532   -88.620699    292.02254    19742.486    10.472245  0.018289494 
   88700   -90.352699    1.0954883   -89.257211    273.38923     12934.55    10.472245  0.009867972 
   88800   -89.764775   0.88161172   -88.883163    220.01436    19500.584    10.472245  0.018327479 
   88900   -89.865511    1.1918783   -88.673632    297.44425    18662.466    10.472245  0.016290996 
   89000   -90.202175    1.0784594   -89.123715    269.13952    14770.277    10.472245  0.013721003 
   89100    -90.08063    1.5023673   -88.578263    374.92966    16809.716    10.472245   0.01382482 
   89200    -89.74837    0.9861639   -88.762206    246.10632    19741.853    10.472245  0.020687988 
   89300   -89.890104   0.92549718   -88.964607    230.96638     17661.66    10.472245  0.018356917 
   89400   -90.120103    1.2024165   -88.917687    300.07415    15728.143    10.472245  0.015113558 
   89500   -89.994176    1.3144302   -88.679745    328.02821    16972.919    10.472245  0.017486181 
   89600   -89.503118    1.3829386   -88.120179    345.12511    23189.206    10.472245  0.023513614 
   89700   -90.125564    1.2545677   -88.870996    313.08896    15589.087    10.472245  0.015756427 
   89800   -90.250966    1.4117686   -88.839198     352.3199    14230.254    10.472245  0.012678795 
   89900    -89.92947    1.2648952   -88.664575    315.66629    18090.416    10.472245  0.016856389 
   90000   -89.864832    1.2672395   -88.597592    316.25134    18690.764    10.472245  0.016893692 
   90100   -90.132099    1.1082391    -89.02386    276.57132    15914.046    10.472245  0.013359231 
   90200   -89.940395    1.0877963   -88.852599    271.46964    17479.053    10.472245  0.015218633 
   90300   -89.918114    1.1920341    -88.72608    297.48313    18275.574    10.472245   0.01476856 
   90400   -89.951502   0.96412731   -88.987375    240.60689    17076.652    10.472245  0.017068076 
   90500   -89.814337    1.4257788   -88.388558    355.81629    19978.078    10.472245  0.017327487 
   90600   -89.672054   0.98802201   -88.684032    246.57003      19821.1    10.472245  0.024970321 
   90700   -90.279446    1.3345171   -88.944929    333.04109    14062.377    10.472245  0.011869535 
   90800   -90.026211    1.1206847   -88.905527    279.67722    16141.781    10.472245  0.017247296 
   90900   -90.133306    1.3836231   -88.749683    345.29595     15804.37    10.472245  0.014443792 
   91000   -89.939468    1.1384679   -88.801001    284.11519    17177.535    10.472245  0.018403953 
   91100   -89.916913    1.4991906   -88.417722    374.13689    18404.337    10.472245  0.016699617 
   91200    -90.22404    1.4366283   -88.787412    358.52387     14758.17    10.472245  0.014210557 
   91300   -90.168094    1.1073656   -89.060728    276.35332    14722.718    10.472245  0.014583215 
   91400   -90.008155    1.2550061   -88.753149    313.19837    17104.641    10.472245  0.014539134 
   91500   -89.694634   0.96605793   -88.728576    241.08869    20138.674    10.472245  0.022839937 
   91600   -89.826723    1.4129414   -88.413782     352.6126    19871.111    10.472245  0.017373532 
   91700   -89.924312    1.0035115   -88.920801    250.43557    17109.725    10.472245  0.021161488 
   91800   -90.122012      1.42741   -88.694602    356.22335    15980.515    10.472245  0.015084476 
   91900   -90.032139   0.96542085   -89.066718     240.9297    15597.122    10.472245  0.017410692 
   92000   -90.068937    1.1601066    -88.90883    289.51534    15753.399    10.472245  0.016045029 
   92100   -90.252469    1.4770033   -88.775465    368.59983    14084.834    10.472245  0.013913454 
   92200   -90.108365    1.1633105   -88.945055     290.3149    15247.943    10.472245  0.015901246 
   92300    -89.94456    1.3769083   -88.567652    343.62019    17941.038    10.472245  0.016865214 
   92400   -89.850561     1.012494   -88.838067    252.67723    17816.025    10.472245  0.023088386 
   92500    -90.20543    1.5722163   -88.633214    392.36111    15401.709    10.472245  0.013042405 
   92600   -89.925665   0.97557853   -88.950086    243.46464    16749.397    10.472245  0.019681222 
   92700   -90.224415     1.527471   -88.696944    381.19452    14901.783    10.472245  0.013195683 
   92800   -89.994968    1.1340665   -88.860901    283.01679    16298.377    10.472245  0.019114186 
   92900    -90.27188    1.5004202    -88.77146    374.44373    14010.088    10.472245  0.012618997 
   93000   -90.051105     1.150598   -88.900507    287.14236    15835.078    10.472245  0.017910315 
   93100   -90.073631    1.2317725   -88.841859    307.40021    16312.415    10.472245  0.015402102 
   93200    -89.98886   0.95151004    -89.03735    237.45813    16282.685    10.472245  0.017708871 
   93300   -89.878079    1.1113791     -88.7667    277.35494    18322.692    10.472245  0.017176726 
   93400   -90.001676    1.1938741   -88.807802    297.94232    17173.404    10.472245   0.01548221 
   93500   -90.011602    1.2842674   -88.727335    320.50082    17135.227    10.472245   0.01390917 
   93600    -90.04151    1.1842191   -88.857291    295.53282    17077.661    10.472245  0.013588964 
   93700   -89.644504    1.1101639    -88.53434    277.05166    20807.643    10.472245  0.018085276 
   93800   -89.970239   0.97736531   -88.992874    243.91055    17369.102    10.472245  0.015855842 
   93900   -90.326958   0.94808356   -89.378875    236.60302    12646.634    10.472245   0.01160218 
   94000   -90.180989    1.1220829   -89.058906    280.02617    14787.093    10.472245  0.013380416 
   94100    -89.95902    1.3165453   -88.642475    328.55605     18116.51    10.472245  0.016287545 
   94200   -90.005437    1.3451214   -88.660316    335.68748    17050.164    10.472245  0.015532063 
   94300    -90.12765   0.90417141   -89.223479    225.64434     15105.75    10.472245  0.015387639 
   94400   -90.023449     1.277161   -88.746288    318.72734    16529.152    10.472245  0.016316266 
   94500   -89.894018    1.4354123   -88.458606    358.22041    18747.434    10.472245  0.016929449 
   94600   -89.712525    1.0023946    -88.71013    250.15684    19855.995    10.472245  0.022120441 
   94700   -89.996158    1.0780979    -88.91806    269.04931    16578.424    10.472245   0.01583553 
   94800   -90.266283   0.98841635   -89.277866    246.66844    12737.177    10.472245  0.014693172 
   94900   -90.245565    1.2963858   -88.949179    323.52507    14100.953    10.472245  0.013644894 
   95000   -89.808812    1.0053321    -88.80348    250.88992    17948.113    10.472245  0.024067639 
   95100   -89.691704    1.2595291   -88.432175    314.32714    20023.457    10.472245  0.022059555 
   95200   -89.991074    1.0954891   -88.895585    273.38942    16384.813    10.472245   0.01949687 
   95300   -90.103185     1.402917   -88.700268    350.11091    15644.911    10.472245  0.015522603 
   95400   -90.074656   0.87946439   -89.195192    219.47847    15147.072    10.472245  0.017673333 
   95500   -90.034941    1.0776341   -88.957307    268.93355      16087.5    10.472245  0.015922997 
   95600    -89.98815    1.1882969   -88.799853    296.55049    16634.067    10.472245  0.019686451 
   95700   -89.994898    1.4346918   -88.560206    358.04059    17303.704    10.472245  0.016970665 
   95800   -90.322175     1.143163   -89.179012     285.2869    12452.207    10.472245  0.012476031 
   95900   -90.136985    1.2616206   -88.875364    314.84908    15200.114    10.472245  0.014865342 
   96000   -89.849865    1.5845654     -88.2653    395.44294    19221.677    10.472245  0.019140698 
   96100   -90.281733    1.3921012   -88.889632    347.41172     13814.56    10.472245  0.012815893 
   96200   -90.332561    1.3857854   -88.946776    345.83555    12961.877    10.472245   0.01214309 
   96300   -89.854591    1.3934063   -88.461184    347.73743    19202.445    10.472245  0.019616711 
   96400   -89.868355    1.3365856    -88.53177    333.55729    18190.215    10.472245  0.019699085 
   96500   -90.090095    1.0892571   -89.000838    271.83419     15452.28    10.472245  0.015511448 
   96600   -90.034516    1.1399452   -88.894571    284.48386     16022.24    10.472245  0.017166113 
   96700   -90.096551    1.3593094   -88.737241    339.22822    16109.894    10.472245  0.016926147 
   96800   -90.075524    1.1455406   -88.929983    285.88025    15447.094    10.472245  0.017935104 
   96900   -89.929984    1.3484167   -88.581568    336.50985    17480.006    10.472245  0.017846211 
   97000   -89.935472     1.106496   -88.828976    276.13632    16668.187    10.472245  0.021046324 
   97100   -90.150494    1.2244198   -88.926075    305.56527    14939.746    10.472245  0.015277602 
   97200   -89.553674       1.1171   -88.436574    278.78263    21188.128    10.472245  0.027977651 
   97300   -89.876585    1.3523911   -88.524194     337.5017    18059.484    10.472245  0.020188614 
   97400   -90.372148    1.1668692   -89.205279    291.20299    11955.102    10.472245   0.01269236 
   97500   -90.061631    1.2017986   -88.859833    299.91997    15624.923    10.472245  0.017236849 
   97600   -90.031016    1.1382734   -88.892742    284.06665    15825.266    10.472245  0.018111418 
   97700   -89.926797    1.3439064    -88.58289    335.38426    17196.947    10.472245  0.018846704 
   97800   -89.996426    1.2923547   -88.704072    322.51907    16408.971    10.472245  0.021168258 
   97900   -90.230199    1.4476464   -88.782552    361.27354    14198.421    10.472245  0.015657476 
   98000   -90.254498    1.3009614   -88.953537    324.66695    13443.504    10.472245  0.015610716 
   98100   -90.245598    1.3791399   -88.866458    344.17711    13961.544    10.472245  0.014309496 
   98200   -89.874358    1.0232755   -88.851083    255.36785    17557.699    10.472245   0.02070634 
   98300   -89.650951     1.331486   -88.319465    332.28465    21063.349    10.472245  0.020317186 
   98400   -90.093223     1.159077   -88.934146    289.25838    15346.749    10.472245  0.017060762 
   98500   -89.973004    1.1647889   -88.808215    290.68384     17182.81    10.472245  0.016680208 
   98600   -89.708179   0.90492698   -88.803252     225.8329    19529.211    10.472245  0.022127734 
   98700   -90.159125    1.0839912   -89.075134    270.52002    14749.429    10.472245  0.014081696 
   98800   -90.185533     1.309677   -88.875856      326.842    14764.903    10.472245  0.014536161 
   98900    -89.72544    1.2274145   -88.498025    306.31265    19843.338    10.472245  0.021794903 
   99000   -89.920574    1.1588902   -88.761684    289.21177    17694.945    10.472245  0.017974558 
   99100   -90.156456    1.0912657    -89.06519    272.33546    14264.134    10.472245  0.014778715 
   99200    -90.21997    1.4665455   -88.753424       365.99    14847.706    10.472245  0.012321275 
   99300   -89.718782    1.1774494   -88.541332    293.84339    19347.521    10.472245  0.024091161 
   99400    -89.85162    1.3791507   -88.472469     344.1798    19030.507    10.472245  0.016571265 
   99500   -90.067218   0.98797612   -89.079242    246.55858    15203.586    10.472245  0.017051644 
   99600   -90.048611    1.4401763   -88.608434    359.40932    16694.987    10.472245  0.016182769 
   99700   -89.756031    1.0099208    -88.74611    252.03507     18855.35    10.472245   0.02347284 
   99800   -90.191523    1.2511574   -88.940366    312.23791    14791.171    10.472245   0.01278559 
   99900   -89.988656    1.0119433   -88.976713     252.5398    16222.153    10.472245  0.017947885 
  100000   -90.028117    1.2821304   -88.745987    319.96751    16909.568    10.472245  0.015754775 
Loop time of 6.2991 on 1 procs for 100000 steps with 32 atoms

Performance: 1371.625 ns/day, 0.017 hours/ns, 15875.291 timesteps/s
100.2% CPU use with 1 MPI tasks x no OpenMP threads

MPI task timing breakdown:
Section |  min time  |  avg time  |  max time  |%varavg| %total
---------------------------------------------------------------
Pair    | 4.0371     | 4.0371     | 4.0371     |   0.0 | 64.09
Neigh   | 0          | 0          | 0          |   0.0 |  0.00
Comm    | 0.26737    | 0.26737    | 0.26737    |   0.0 |  4.24
Output  | 0.010287   | 0.010287   | 0.010287   |   0.0 |  0.16
Modify  | 1.9284     | 1.9284     | 1.9284     |   0.0 | 30.61
Other   |            | 0.05589    |            |       |  0.89

Nlocal:    32 ave 32 max 32 min
Histogram: 1 0 0 0 0 0 0 0 0 0
Nghost:    633 ave 633 max 633 min
Histogram: 1 0 0 0 0 0 0 0 0 0
Neighs:    1376 ave 1376 max 1376 min
Histogram: 1 0 0 0 0 0 0 0 0 0

Total # of neighbors = 1376
Ave neighs/atom = 43
Neighbor list builds = 0
Dangerous builds = 0

Total wall time: 0:00:06
