LAMMPS (3 Mar 2020)
Reading data file ...
  orthogonal box = (0 0 0) to (17.469 17.469 17.469)
  1 by 1 by 1 MPI processor grid
  reading atoms ...
  217 atoms
  read_data CPU = 0.00099011 secs
Reading potential file library.meam with DATE: 2012-06-29
Reading potential file LiSi.meam with DATE: 2020-11-07
1 atoms in group Li
216 atoms in group Si
Neighbor list info ...
  update every 1 steps, delay 10 steps, check yes
  max neighbors/atom: 2000, page size: 100000
  master list distance cutoff = 6
  ghost atom cutoff = 6
  binsize = 3, bins = 6 6 6
  2 neighbor lists, perpetual/occasional/extra = 2 0 0
  (1) pair meam/c, perpetual
      attributes: full, newton on
      pair build: full/bin/atomonly
      stencil: full/bin/3d
      bin: standard
  (2) pair meam/c, perpetual, half/full from (1)
      attributes: half, newton on
      pair build: halffull/newton
      stencil: none
      bin: none
Setting up Verlet run ...
  Unit style    : metal
  Current step  : 0
  Time step     : 0.003
Per MPI rank memory allocation (min/avg/max) = 8.895 | 8.895 | 8.895 Mbytes
Step Temp E_pair E_mol TotEng Press Volume 
       0         1600   -951.04357            0   -906.37126   -115280.58    5330.9442 
    3200    1666.0389   -947.92649            0   -901.41036    2075.2445    4615.8795 
Loop time of 2.27804 on 1 procs for 3200 steps with 217 atoms

Performance: 364.103 ns/day, 0.066 hours/ns, 1404.719 timesteps/s
100.0% CPU use with 1 MPI tasks x no OpenMP threads

MPI task timing breakdown:
Section |  min time  |  avg time  |  max time  |%varavg| %total
---------------------------------------------------------------
Pair    | 2.2036     | 2.2036     | 2.2036     |   0.0 | 96.73
Neigh   | 0.025501   | 0.025501   | 0.025501   |   0.0 |  1.12
Comm    | 0.014229   | 0.014229   | 0.014229   |   0.0 |  0.62
Output  | 2.4738e-05 | 2.4738e-05 | 2.4738e-05 |   0.0 |  0.00
Modify  | 0.029839   | 0.029839   | 0.029839   |   0.0 |  1.31
Other   |            | 0.004839   |            |       |  0.21

Nlocal:    217 ave 217 max 217 min
Histogram: 1 0 0 0 0 0 0 0 0 0
Nghost:    957 ave 957 max 957 min
Histogram: 1 0 0 0 0 0 0 0 0 0
Neighs:    4291 ave 4291 max 4291 min
Histogram: 1 0 0 0 0 0 0 0 0 0
FullNghs:  8582 ave 8582 max 8582 min
Histogram: 1 0 0 0 0 0 0 0 0 0

Total # of neighbors = 8582
Ave neighs/atom = 39.5484
Neighbor list builds = 43
Dangerous builds = 0
Setting up Verlet run ...
  Unit style    : metal
  Current step  : 3200
  Time step     : 0.003
Per MPI rank memory allocation (min/avg/max) = 9.665 | 9.665 | 9.665 Mbytes
Step PotEng KinEng TotEng Temp Press Density c_msdli[4] c_msdsi[4] 
    3200   -947.92649    46.516125   -901.41036    1666.0389    2075.2445    2.1849158            0 9.0272616e-32 
    3300    -950.8477    47.464174   -903.38353    1699.9946    13399.897    2.2167425   0.31316821   0.11552023 
    3400   -953.91928    42.215163   -911.70412     1511.994   -6691.7453    2.1780308  0.082882623   0.11122302 
    3500   -950.78869    47.580179   -903.20851    1704.1495   -16892.659    2.1408836   0.23887235   0.12108369 
    3600   -953.01171     51.21113   -901.80058     1834.197    5402.4652    2.1991258   0.20232128   0.12161065 
    3700   -949.94444    46.898189   -903.04625    1679.7231    11486.402    2.2089317  0.022730371  0.092414054 
    3800   -947.09071    42.386141   -904.70457    1518.1178   -9516.1026    2.1547469   0.33065726   0.11221497 
    3900   -951.34472    36.948552   -914.39616    1323.3631   -6441.5536    2.1747434  0.026196605   0.10874005 
    4000   -953.82171    45.605337   -908.21637    1633.4178    3992.2253    2.2040081   0.19271629   0.11707644 
    4100     -949.316    45.700366   -903.61564    1636.8214    6617.8123    2.1991354   0.25389923   0.10760877 
    4200   -946.01666    44.074679   -901.94198    1578.5952   -6137.9362    2.1610279   0.28728704   0.12122331 
    4300   -944.53521    45.812677   -898.72253    1640.8439    -5963.202    2.1550398   0.27721052   0.11049998 
    4400   -952.54823    43.843212   -908.70502    1570.3048    8966.0351    2.2107315  0.075057421   0.11269998 
    4500   -950.46799    44.354572   -906.11342    1588.6199   -332.05877    2.1866976   0.13100844   0.13130268 
    4600   -946.72068    43.930262   -902.79042    1573.4227   -4924.5561    2.1615752   0.24085331   0.11197294 
    4700   -944.14486    44.324529   -899.82033    1587.5439    1470.6195    2.1733066   0.20963353   0.12913892 
    4800   -952.48117    43.162911   -909.31826    1545.9389     6800.484    2.2095576   0.08029085   0.13680146 
    4900   -946.67758    41.743796   -904.93379    1495.1114   -1082.0384    2.1767845  0.049108639   0.12762661 
    5000   -946.63203    45.014755   -901.61728    1612.2653   -6727.4751    2.1618399  0.063093078   0.13924858 
    5100   -951.04613     46.80852   -904.23761    1676.5114    194.43011    2.1893929  0.052197284   0.12250849 
    5200   -953.11061    43.859289   -909.25132    1570.8807      7735.67    2.2114233   0.33653374   0.11712544 
    5300   -946.93938    46.207322   -900.73206    1654.9787   -4670.1224    2.1673886   0.11935521   0.13260683 
    5400   -946.77712    43.917461   -902.85965    1572.9642   -6422.8623    2.1640165   0.57669259   0.13087562 
    5500   -953.44553    45.543625   -907.90191    1631.2075    2955.3261    2.1999189  0.056967567   0.14118978 
    5600   -946.59057     46.73599   -899.85458    1673.9137     7614.454    2.1927635   0.23402147   0.14538276 
    5700   -945.71905    45.389539   -900.32951    1625.6887   -2341.8483    2.1690231   0.15650289   0.12683308 
    5800   -946.06096    42.376835   -903.68412    1517.7846   -7689.9107    2.1588727    2.9894253   0.17260523 
    5900   -944.42087    48.628022   -895.79284    1741.6794    3560.6269    2.1774914   0.52983566   0.14219137 
    6000   -945.21521    44.174767   -901.04044      1582.18    9236.4519    2.1952499    1.1903519   0.14012603 
    6100   -945.50801    40.940256   -904.56775    1466.3315   -7030.4205    2.1579827   0.66918137   0.13930491 
    6200   -943.76249    44.424492     -899.338    1591.1242   -6993.1685     2.154003   0.42821905    0.1367403 
    6300   -951.79583    48.169939   -903.62589    1725.2725    5708.0705    2.1964289  0.098133725   0.11641489 
    6400   -951.00427    44.390415   -906.61385    1589.9037    4012.0287    2.1943436   0.33931585    0.1195545 
    6500   -948.15778    46.744069   -901.41372     1674.203   -6613.5227    2.1630268   0.45154664    0.1287924 
    6600   -946.95692     45.54569   -901.41123    1631.2814    -6470.628    2.1600588   0.48269889    0.1116555 
    6700   -950.50225    41.736523   -908.76573    1494.8509     7468.103    2.2038077 0.0078534426   0.13425587 
    6800   -947.63288    46.960433   -900.67245    1681.9524    3848.8184    2.1853656   0.27965737   0.12645142 
    6900   -945.55075    43.317245    -902.2335    1551.4666   -4751.4118    2.1594948  0.066113017   0.14317646 
    7000   -951.46384    42.705559   -908.75828    1529.5582   -4508.4521    2.1756809   0.22748786    0.1231987 
    7100   -949.92775    47.008303   -902.91945    1683.6669    8677.7389     2.201011   0.14918266   0.11554218 
    7200   -946.34602    46.352354   -899.99366    1660.1732    6310.1415    2.1872861   0.19233354   0.12759481 
    7300   -947.58632    41.395238   -906.19109    1482.6273   -11789.658    2.1466367  0.088968007   0.12665476 
    7400   -947.07745    45.333549    -901.7439    1623.6833   -5238.9513    2.1610976   0.23522291   0.13874549 
    7500   -947.54602    51.539727   -896.00629    1845.9661    14136.043    2.2055839   0.13294925   0.13138999 
    7600   -947.98814    44.764994   -903.22314    1603.3197    3200.6471    2.1845309   0.37973519   0.10907058 
    7700   -947.33614     42.71049   -904.62565    1529.7348   -10825.215    2.1503566   0.15284313   0.11041887 
    7800   -942.88557    46.606421   -896.27914     1669.273   -247.44316    2.1636256  0.051442472   0.13594113 
    7900   -947.91073    45.565721   -902.34501    1631.9989    5162.1921    2.1937696   0.10467742   0.13461352 
    8000   -949.50197    44.576921   -904.92505    1596.5837   -1576.3263    2.1776485   0.24121094   0.12951501 
    8100   -945.36118    44.672015   -900.68917    1599.9896   -3942.1572    2.1637239   0.21760215   0.12442873 
    8200   -944.61084    47.655421   -896.95542    1706.8444   -141.24911    2.1723941   0.21618638   0.13655495 
    8300   -948.71784    42.180556   -906.53728    1510.7545    7939.4227    2.2003156   0.14390741    0.1199281 
    8400   -949.51317    46.249323   -903.26385     1656.483   -2949.2333    2.1708134   0.18225977   0.12350336 
    8500   -946.51952    46.010291   -900.50922    1647.9218   -6211.8002    2.1563049   0.23270151   0.12437376 
    8600    -948.6593     39.03926   -909.62004    1398.2447    6600.7656    2.1972737   0.13261961   0.11957052 
    8700   -947.70817    42.344085   -905.36409    1516.6116    5290.0105    2.1899548   0.19273714   0.11952442 
    8800   -947.84563    46.360568   -901.48506    1660.4674   -4702.6627    2.1648361  0.083370156   0.11530813 
    8900   -945.90337    41.527378   -904.37599    1487.3601   -3720.4685    2.1680268    0.2273578    0.1357686 
    9000   -950.99806    42.068185   -908.92988    1506.7298    7886.3161    2.2046361   0.21410101   0.11902168 
    9100   -946.18157    46.016956   -900.16461    1648.1605    3988.0489    2.1834673   0.20965057   0.13356719 
    9200   -943.29767     40.23976   -903.05791    1441.2423   -5660.3961    2.1515864   0.30083654   0.12397049 
    9300   -950.56331     42.87328   -907.69003    1535.5654   -5363.5649    2.1715805   0.19624107   0.12583321 
    9400   -951.29291    45.576431   -905.71648    1632.3825    14379.667    2.2216562   0.29361048   0.12847093 
    9500   -945.39645    45.712768   -899.68369    1637.2656    2164.0176    2.1784664   0.13363468     0.130123 
    9600   -948.07002    43.861896   -904.20813     1570.974    -14422.56    2.1399441   0.20617377   0.11826874 
    9700   -948.97202    45.957745   -903.01427    1646.0398    637.41226    2.1762817    0.2812847   0.11115676 
    9800   -945.94756    52.058808   -893.88875    1864.5577    4792.2574    2.1821634   0.61162675   0.12976449 
    9900    -947.7957    45.658081   -902.13761    1635.3069    2150.2612    2.1822507   0.27121504   0.12539203 
   10000   -947.12292    42.432994   -904.68992    1519.7959   -3857.2434    2.1634598   0.12750993   0.13678999 
   10100   -945.19316    47.219248   -897.97391    1691.2222   -1353.8675    2.1704375    0.1985594   0.11980697 
   10200   -947.25017    48.345502   -898.90467    1731.5606    4583.9765    2.1852279   0.25237467   0.11677316 
   10300   -948.80028    44.156921   -904.64336    1581.5408   -106.26766    2.1816557   0.40868518   0.11958519 
   10400   -945.65757    43.426844   -902.23073    1555.3921   -5144.4843    2.1659648    0.2537463   0.12796878 
   10500   -942.07575    45.967766   -896.10799    1646.3987    733.41438    2.1677527   0.25395176   0.13368663 
   10600   -949.43524    43.924481   -905.51076    1573.2156    5901.6761    2.2003822   0.16693813   0.12440929 
   10700   -948.86393    44.262731    -904.6012    1585.3305   -5311.3096      2.16635   0.10334132   0.12190366 
   10800   -947.62785    45.743531   -901.88431    1638.3674   -8863.4502    2.1582545  0.065652973   0.11573486 
   10900   -945.67144    46.568434   -899.10301    1667.9124     9243.782    2.1978936   0.11075096   0.13330739 
   11000   -951.90724    42.951706   -908.95554    1538.3743    9074.3306    2.2110255   0.17545877   0.11740673 
   11100   -947.95417    42.599713   -905.35446    1525.7672   -16897.243    2.1374198   0.10197922   0.12000488 
   11200   -945.87501    43.113672   -902.76133    1544.1754   -4933.4999    2.1623609    0.1802665   0.13420561 
   11300   -948.41826    48.365916   -900.05234    1732.2917     12967.37    2.2085822   0.25144709   0.12313569 
   11400   -947.02929    46.575873   -900.45342    1668.1789    597.34369    2.1785744    0.1331098   0.11885009 
   11500   -951.41789    42.513365   -908.90453    1522.6745    -5228.547    2.1779252   0.18351089   0.10996021 
   11600   -952.36721    47.661928   -904.70528    1707.0774   -839.89465    2.1863504   0.24619946   0.11977519 
   11700   -949.02547    47.817304   -901.20816    1712.6424    705.62319    2.1845151   0.23476907   0.12451587 
   11800   -949.81677    46.799069    -903.0177    1676.1729   -4903.6272    2.1734805   0.15390775   0.13206426 
   11900   -952.49444    42.785992   -909.70845    1532.4391   -2188.7169    2.1860062   0.18944132   0.12716788 
   12000   -946.98157    44.266678   -902.71489    1585.4719    2007.6371    2.1845907   0.14083991   0.12834615 
   12100   -946.11553    44.614492   -901.50104    1597.9293    1565.9758    2.1824184   0.13574988   0.13196161 
   12200   -948.73292    39.353188   -909.37973    1409.4885   -2033.2133    2.1808838   0.12299907   0.12620569 
   12300   -946.60791    41.610468   -904.99744    1490.3361   -2635.1517    2.1743107   0.98115789   0.14008619 
   12400   -947.13064     46.57571   -900.55493     1668.173    7043.4575    2.1954361   0.26833343   0.13269547 
   12500    -948.1975    43.198939   -904.99856    1547.2294    345.61117    2.1872651   0.24122668   0.13898387 
   12600   -950.35115     40.28832   -910.06283    1442.9815   -10232.946    2.1646892  0.074963988    0.1256805 
   12700   -944.78032    43.977219    -900.8031    1575.1045   -1968.2982    2.1688328   0.33627749   0.12995332 
   12800   -947.42187    46.590599   -900.83127    1668.7063    16812.207     2.216962   0.11789046   0.13479795 
   12900   -949.74552    44.579075   -905.16645    1596.6608    1661.8947    2.1837794   0.34104026    0.1323879 
   13000   -944.01431    46.488398   -897.52591    1665.0458   -12656.046    2.1401832  0.073336908   0.14857452 
   13100   -947.58575    48.823491   -898.76226    1748.6804   -2563.0521    2.1743487  0.089797988   0.15061532 
   13200   -948.43242    45.209353   -903.22307    1619.2351    7343.8153    2.1987435   0.17604244   0.14108171 
   13300   -945.16042    41.662742   -903.49768    1492.2083      2041.26    2.1823169   0.18615521   0.13580393 
   13400   -943.35695    48.781589   -894.57536    1747.1796   -6187.1444    2.1550487   0.12431667   0.15753425 
   13500   -946.11092    43.077624   -903.03329    1542.8843    3016.6393     2.187445   0.14663548   0.13937744 
   13600   -947.42312     43.41423   -904.00889    1554.9403    1143.3871    2.1836758   0.46797825    0.1546984 
   13700    -947.7184    47.148785   -900.56961    1688.6985   -1781.7247    2.1737056   0.16334831   0.12984387 
   13800   -944.15297    49.825584   -894.32738    1784.5717   -1064.3279    2.1666828   0.21282316   0.15616915 
   13900   -946.21481    41.608357   -904.60645    1490.2605    6777.9221    2.1980678   0.21314207   0.14847289 
   14000   -947.35847    43.724062    -903.6344    1566.0373   -758.96384    2.1752638   0.13865018    0.1440798 
   14100   -949.72301    48.075686   -901.64733    1721.8967   -6606.9902    2.1643519   0.15147411   0.13216533 
   14200   -950.07423     48.61854   -901.45569    1741.3398    1339.1843    2.1885065   0.18819531   0.13603505 
   14300   -952.13468    42.112919   -910.02176     1508.332    10773.573    2.2200842  0.047265319   0.13592095 
   14400   -948.64883    44.265994   -904.38284    1585.4474   -7621.9235    2.1621203   0.23603352   0.12845329 
   14500   -944.56179    42.105673   -902.45611    1508.0725   -12840.548    2.1434807   0.19518508   0.14067723 
   14600    -947.7621    47.992653   -899.76944    1718.9228    12754.504    2.2086264    0.1740893   0.13438297 
   14700   -953.25362    44.140073   -909.11354    1580.9373    14700.997    2.2290895  0.063529914   0.12947515 
   14800   -948.16758     41.61196   -906.55562    1490.3895   -12531.177    2.1505202   0.30401715   0.12660116 
   14900   -946.70431    44.064631   -902.63968    1578.2353   -6020.4977    2.1636357   0.85824983   0.14329058 
   15000   -943.29545    44.498426   -898.79703    1593.7722    6442.6429    2.1909515    2.1959727   0.14987226 
   15100   -950.71902    47.419828    -903.2992    1698.4063    -847.6179    2.1864909   0.80533687   0.14230832 
   15200   -950.05049      42.0229   -908.02759    1505.1079   -4352.7584    2.1770816   0.26908349   0.15319813 
   15300   -944.00843    41.608574   -902.39985    1490.2682    2641.7407    2.1822826   0.16731047   0.14925023 
   15400   -948.16381    47.753225   -900.41058    1710.3473    4910.0798    2.1927474   0.14694659   0.11863165 
   15500   -951.78608    42.152275   -909.63381    1509.7416    -1664.767    2.1909241  0.089545178   0.12298076 
   15600   -947.42181    43.388039   -904.03378    1554.0022   -8085.8815    2.1638192  0.075168254   0.14251919 
   15700   -950.21947     49.27322   -900.94625     1764.788    190.98347    2.1865957   0.43652929   0.12714331 
   15800   -951.63827    45.886784   -905.75149    1643.4982    6629.5181    2.2074486   0.11281132    0.1375057 
   15900   -953.47495    44.134038   -909.34091    1580.7212   -3181.5788    2.1866134  0.089939968   0.13197533 
   16000   -947.23524    46.723464   -900.51178     1673.465   -11344.876    2.1535487   0.04984679   0.12704206 
   16100   -950.33241     47.12731    -903.2051    1687.9293    1211.5312    2.1926666   0.29109304   0.15326146 
   16200    -951.8683    46.431994    -905.4363    1663.0256    10523.505    2.2168415  0.094160036   0.13070157 
   16300   -946.18082    50.633673   -895.54715    1813.5145   -6534.9557     2.157078    0.2325688   0.12744435 
   16400   -948.43125    46.597211   -901.83404    1668.9431   -6965.7186    2.1644085   0.24167776   0.12539759 
   16500   -944.82525    40.631761   -904.19349    1455.2823    5912.5046    2.1976138   0.16125194    0.1386286 
   16600   -945.11032     44.81984   -900.29048    1605.2841    7222.0865    2.1976492  0.040921511   0.15099393 
   16700   -947.14607    50.520526   -896.62554     1809.462   -7635.9056    2.1575869    0.2442116   0.13166313 
   16800   -950.48105    45.352378   -905.12867    1624.3577   -5253.1095    2.1790923   0.15926582   0.14202308 
   16900   -946.34737    43.976817   -902.37055    1575.0901    5420.5369    2.1929846   0.23509695   0.14960946 
   17000   -943.47861    47.116461   -896.36215    1687.5408     613.4289    2.1762089   0.19431541   0.14852355 
   17100   -950.52438    45.055105   -905.46928    1613.7105     -2749.31    2.1802841  0.098119012   0.14377816 
   17200   -950.81405    46.450299   -904.36376    1663.6813   -5352.5282    2.1736968   0.23289894   0.13583218 
   17300   -944.52401    45.101519   -899.42249    1615.3728      2293.12    2.1840968  0.022685202   0.14414757 
   17400   -948.19418    42.195676    -905.9985    1511.2961    1777.2206    2.1909297   0.15268261   0.13800941 
   17500   -948.60332    41.814644   -906.78867    1497.6489   -3557.9309     2.175977   0.12979576    0.1267504 
   17600   -946.49722    45.654665   -900.84255    1635.1845   -1833.2793    2.1728217   0.10859134   0.12520564 
   17700   -950.80615    47.118787   -903.68736    1687.6241    1332.1009    2.1921906  0.053877509   0.13040516 
   17800   -948.60788    39.855717   -908.75217    1427.4872    5166.6566    2.1992162   0.41670447   0.15612119 
   17900   -943.76211    43.092386   -900.66973     1543.413   -5686.3859    2.1618454  0.013047749   0.14635278 
   18000   -944.51568    41.818549   -902.69713    1497.7888   -3924.4207    2.1702783   0.29376785   0.14010064 
   18100   -951.44447    43.588909   -907.85557    1561.1966    9992.8066    2.2149733   0.19072035   0.13858134 
   18200   -947.89486    49.209312   -898.68555    1762.4991    4210.7108    2.1899992   0.27325723   0.13054462 
   18300   -944.96461    43.671145   -901.29346     1564.142   -9123.9231    2.1526012   0.31020435   0.14644062 
   18400   -948.56722    42.877151   -905.69007    1535.7041   -4663.7438    2.1717065   0.22598042    0.1208683 
   18500   -947.20565    44.139905   -903.06575    1580.9313    14220.556    2.2164554  0.020470172    0.1243226 
   18600   -941.75959    44.707433   -897.05216    1601.2581    5147.1757    2.1816879   0.10677098   0.13604382 
   18700   -949.84998    45.426956   -904.42303    1627.0288   -12589.732    2.1519546   0.14355975   0.12007785 
   18800   -948.08991    44.745087   -903.34483    1602.6067   -1550.7546    2.1784732   0.35922142    0.1359681 
   18900    -944.8056    50.137191   -894.66841    1795.7324     6017.125    2.1875777   0.19177443   0.13765825 
   19000   -947.02473    45.023768   -902.00097    1612.5881    638.42345    2.1795122   0.22494296   0.11661797 
   19100   -948.75618    43.867407   -904.88877    1571.1714   -6696.8092     2.164755   0.17514779   0.12222892 
   19200   -944.23945    45.728252   -898.51119    1637.8201   -564.88526    2.1722047   0.38163333   0.13419773 
   19300   -947.08057    46.591404   -900.48917    1668.7351    3156.6054    2.1871069   0.22979901   0.13956999 
   19400    -951.9061    46.195904    -905.7102    1654.5697   -419.48562     2.187631   0.12595018   0.11873921 
   19500   -947.30219    45.745667   -901.55652    1638.4439   -3195.0973    2.1735869   0.36086983   0.13280782 
   19600    -944.3166    44.728673   -899.58793    1602.0188   -2937.0784    2.1707526   0.51445925   0.13838427 
   19700   -948.29378    39.494229   -908.79955    1414.5401    6763.9428    2.2031432   0.57713442   0.13701276 
   19800   -946.72981    43.636385   -903.09343    1562.8971    862.08531    2.1823693   0.47004131   0.13628648 
   19900   -944.87672    43.938805   -900.93792    1573.7286   -4673.3101    2.1623957   0.21119583   0.13724176 
   20000   -949.22213    40.377066   -908.84506    1446.1601    233.16248    2.1862332   0.12301057   0.12145988 
   20100   -949.11329    44.111911   -905.00138    1579.9287    6499.0744    2.2018223   0.42849912   0.13119505 
   20200   -945.28109     45.12379    -900.1573    1616.1705    2396.9195    2.1820486  0.078799813   0.13633073 
   20300   -948.05411    42.179319   -905.87479    1510.7102   -11868.795    2.1509908   0.30773761   0.13818098 
   20400   -947.72176    42.237338   -905.48443    1512.7883   -212.98703     2.175538   0.46684649   0.14793224 
   20500   -946.21539    48.771359   -897.44403    1746.8132    11350.808    2.2011459   0.12960945   0.13118855 
   20600   -950.20083    47.194849   -903.00598    1690.3484   -719.84539    2.1800452   0.14410441   0.12010397 
   20700   -949.13007    42.854927   -906.27514    1534.9081   -10520.354    2.1551337   0.30568146    0.1180638 
   20800   -945.09344    46.950895   -898.14255    1681.6108    1039.4189    2.1779206    0.1958128   0.12653292 
   20900   -943.73888    44.327283    -899.4116    1587.6425    12404.276    2.2021854   0.17022168   0.15115727 
   21000    -951.7035    46.687604   -905.01589    1672.1807   -4406.9058    2.1734653   0.20536816   0.12917294 
   21100   -948.83398    47.997041   -900.83694      1719.08   -7724.5077    2.1583688  0.022517958   0.12556218 
   21200   -945.04847     49.60406   -895.44441    1776.6375    699.30518    2.1744879   0.20305042     0.143695 
   21300   -949.74584    44.902652   -904.84319    1608.2502    7487.2534    2.2029735   0.28183507   0.13569999 
   21400   -948.60896    45.538646   -903.07031    1631.0292   -3256.7146    2.1727748   0.22674552    0.1415698 
   21500   -943.90782    45.198465   -898.70936    1618.8451   -5379.8514    2.1569856   0.24286885    0.1479682 
   21600   -950.42163    42.111231    -908.3104    1508.2716    4888.2689     2.200333  0.076765905   0.13294255 
   21700    -949.5275    44.736065   -904.79144    1602.2836    593.83275    2.1880757   0.10143188   0.12166921 
   21800   -944.43053    43.589105   -900.84142    1561.2037   -2557.8337    2.1691442  0.091096924    0.1412808 
   21900   -947.26505    42.337579   -904.92747    1516.3785   -2433.6983    2.1773253  0.076405616   0.14134901 
   22000   -949.81193    41.882319   -907.92961    1500.0728    4226.8772    2.1964661  0.030560989   0.12412236 
   22100   -950.36326    49.713699   -900.64956    1780.5644     35.06747    2.1810814      0.40063   0.12230513 
   22200   -945.92093    43.859636    -902.0613    1570.8931   -1681.0806    2.1710263   0.14990188   0.13433662 
   22300   -951.92194    42.374061   -909.54788    1517.6852   -927.42231    2.1892135  0.091667645   0.12473765 
   22400   -944.27561    42.949727   -901.32589    1538.3035    3224.9034    2.1814939   0.16462936   0.14589177 
   22500   -947.23198    45.659296   -901.57268    1635.3504    1952.2902    2.1839396   0.06273088    0.1323495 
   22600   -950.37714    41.999426   -908.37771    1504.2671   -1518.4493    2.1808608  0.062755474    0.1288577 
   22700   -946.58784    45.992558   -900.59529    1647.2866   -10308.217    2.1509508    0.1570368   0.12907999 
   22800   -944.84917    44.722189   -900.12698    1601.7866    10085.417    2.2012002   0.20450665   0.13385212 
   22900   -949.66715    45.567795   -904.09935    1632.0732    8970.6314    2.2069264   0.30824707   0.12872073 
   23000   -948.21442    44.981519    -903.2329    1611.0749   -12775.589    2.1476846   0.43812416    0.1302415 
   23100   -943.39283    46.476127    -896.9167    1664.6063   -11314.309    2.1427474   0.31914761   0.13219933 
   23200   -950.37382    47.055364   -903.31845    1685.3525    10446.502    2.2107854     0.182234   0.13678553 
   23300   -948.29132     44.30327   -903.98805    1586.7825     7443.696    2.2007112   0.18187698   0.12581583 
   23400   -943.27951    45.829746   -897.44977    1641.4553   -8913.2027    2.1456709   0.24204722    0.1393713 
   23500    -946.5449    42.531819   -904.01308    1523.3355   -5031.1364     2.168016  0.097772608   0.12772003 
   23600   -947.43542    42.631837   -904.80358    1526.9178    9153.6422     2.202339   0.02793035   0.13254728 
   23700   -948.64203    48.501985   -900.14005    1737.1652    3782.8975    2.1877748  0.053899582    0.1214113 
   23800   -943.72732    41.551859   -902.17546    1488.2369   -5799.2004     2.157767   0.16584343   0.12451352 
   23900   -949.20846    40.910667    -908.2978    1465.2717   -162.59204    2.1815617   0.11838676    0.1207982 
   24000   -949.45319    48.730405   -900.72278    1745.3464    4672.9346    2.1948801   0.12612491   0.12258047 
   24100   -946.26786    43.759536   -902.50832    1567.3079    1880.2056    2.1833953  0.089983732   0.13629604 
   24200   -950.60175    40.761571   -909.84018    1459.9317   -5324.2874    2.1737734  0.079113186   0.12480178 
   24300   -943.37958    41.560629   -901.81895     1488.551   -777.13853    2.1687615   0.52717196     0.120528 
   24400   -945.85326    45.038704   -900.81455     1613.123    9298.1277    2.1967844   0.33319363   0.13670053 
   24500   -950.27478    42.746365   -907.52842    1531.0198    3250.1166    2.1924503  0.035630364    0.1134601 
   24600   -944.51842    44.932333   -899.58609    1609.3132   -7296.5573    2.1516722   0.20761524   0.12672178 
   24700   -949.64706    49.075383   -900.57167    1757.7022   -2010.1919      2.17404  0.078208981   0.12392815 
   24800   -949.25088    44.347822   -904.90306    1588.3782    8254.3239    2.2039212   0.20655476   0.11736086 
   24900   -945.14603    43.826094   -901.31994    1569.6917    3321.4767    2.1797994   0.23719419   0.12568164 
   25000   -941.61595    43.548604   -898.06734    1559.7531   -13008.734     2.127824   0.28058371   0.13412863 
   25100    -950.7777    44.253563   -906.52414    1585.0021   -2989.0194    2.1785763   0.18172847   0.12796285 
   25200   -947.61694    46.022513   -901.59443    1648.3595    24785.622    2.2387311  0.033618003   0.14620964 
   25300   -945.88955    45.795952    -900.0936    1640.2449   -600.86418    2.1751938   0.12212563   0.13256923 
   25400   -946.91283    45.859259   -901.05357    1642.5123    -16208.01    2.1364215   0.10731726   0.12686094 
   25500   -952.07104    44.503683   -907.56736    1593.9605    642.88743    2.1933978   0.27868664   0.11690958 
   25600    -946.4382    45.740505   -900.69769     1638.259    8866.8371    2.2022745  0.083507591   0.13106921 
   25700   -946.78768    44.032381    -902.7553    1577.0802   -2991.1393    2.1724256   0.16272496   0.13119942 
   25800   -954.40502    43.793578   -910.61144    1568.5271   -10024.301    2.1707949   0.24581219   0.12255678 
   25900   -948.85501    46.153122   -902.70189    1653.0375    1380.4811    2.1837497   0.14859809   0.13398104 
   26000   -949.09496    48.143817   -900.95114    1724.3369    4810.7837    2.1965248   0.16953473   0.12760134 
   26100   -949.99311    42.128547   -907.86456    1508.8918    -2496.678    2.1804018   0.37566868   0.13112064 
   26200   -949.32433    44.649484   -904.67485    1599.1826   -7334.5065    2.1648551   0.20373098   0.13119244 
   26300   -947.08255    46.870675   -900.21188    1678.7376    2724.5054    2.1857775   0.13169667    0.1399592 
   26400   -946.40413    42.414732    -903.9894    1519.1419    4628.5892    2.1959737   0.34285295   0.13942027 
   26500   -951.27886    42.978866   -908.29999    1539.3471   -3885.3418     2.177972   0.36487705   0.13082775 
   26600    -942.0327    43.540418   -898.49228    1559.4599   -4001.0667    2.1590421   0.13919913   0.13278061 
   26700   -947.92617    46.968934   -900.95724    1682.2569    6336.9564     2.198416  0.013916594   0.14397468 
   26800   -947.93344    43.681459   -904.25198    1564.5114    5413.1968    2.1966449 0.0042093915    0.1271747 
   26900   -943.32416    42.725791   -900.59837    1530.2829   -7316.6979    2.1536433   0.28044024   0.13882856 
   27000   -944.60158    47.709523   -896.89205    1708.7821   -6412.8825    2.1516242   0.24639782   0.12603699 
   27100   -949.11674    45.772942    -903.3438    1639.4208    10487.284    2.2088125   0.34204558   0.13310988 
   27200   -950.54196    46.892261    -903.6497    1679.5107    4884.8887    2.1992223  0.055894391   0.13146173 
   27300   -944.14779    47.731508   -896.41628    1709.5695   -12924.328    2.1370759    0.1034271   0.14615278 
   27400   -946.73787    44.135732   -902.60214    1580.7819   -6178.3925    2.1613542  0.065250442   0.14206023 
   27500   -947.67869    43.770383   -903.90831    1567.6964    10715.303    2.2081635   0.10668062   0.11720323 
   27600   -942.17517    40.817624   -901.35754    1461.9393    6976.8681     2.187187   0.16512281   0.14230748 
   27700   -944.39763    46.108038   -898.28959    1651.4227   -6165.1085    2.1575172   0.19375815   0.13032521 
   27800   -950.50251    42.359236   -908.14328    1517.1542    1278.1267    2.1914091    0.1020777    0.1208673 
   27900   -946.63657    42.976816   -903.65975    1539.2737    1374.2466    2.1851142   0.11180179   0.13197889 
   28000   -944.67172    44.140669   -900.53105    1580.9587    -468.8205    2.1712517   0.14099094   0.11661085 
   28100    -948.8922    40.824245   -908.06796    1462.1764   -44.054343    2.1814275   0.30820617    0.1199412 
   28200   -951.93786    45.443941   -906.49392    1627.6371   -1746.6751    2.1848018   0.26119247   0.13097529 
   28300   -946.07799     45.20822   -900.86977    1619.1945    2916.6473    2.1841332  0.088258069   0.13313594 
   28400   -945.90562    41.580858   -904.32476    1489.2755   -1807.4526    2.1775894   0.31782079   0.14719076 
   28500   -952.77124    42.272892   -910.49835    1514.0617   -5538.6753    2.1815758   0.23741895   0.13336366 
   28600   -944.48178    42.973565   -901.50821    1539.1572    318.60846    2.1774767   0.48037238   0.12979282 
   28700   -946.12434    44.134518   -901.98982    1580.7384    4195.4693    2.1894349   0.24142008   0.14781847 
   28800   -950.23074     41.82552   -908.40522    1498.0384   -1148.8428    2.1862138   0.25490717   0.13689959 
   28900   -950.08066    45.941944   -904.13872    1645.4738   -5017.3552    2.1739118  0.047520181   0.14181437 
   29000   -945.39544    44.713061   -900.68238    1601.4597    1197.7142    2.1841531    0.2514741   0.13814117 
   29100   -946.27324    42.444779   -903.82846    1520.2181    2633.1639    2.1885362  0.097201532    0.1346049 
   29200   -951.27935    43.321917   -907.95744     1551.634   -4513.4652    2.1786874  0.073864435   0.13179664 
   29300   -945.53857     43.04391   -902.49466    1541.6768    478.59201    2.1815624   0.32564941   0.14572947 
   29400   -944.84981    45.064857   -899.78495    1614.0598    5769.6965    2.1947546  0.062266684   0.15952163 
   29500   -946.86328    44.120173   -902.74311    1580.2246   -2869.9014    2.1763393  0.021118467   0.15177429 
   29600   -948.03308     42.54955   -905.48353    1523.9706   -9372.9595    2.1633962   0.26092965   0.13878351 
   29700   -951.58438    42.167481    -909.4169    1510.2863    1929.2965     2.201039   0.27424621   0.13397895 
   29800    -952.8974    35.391119   -917.50628    1267.5815    13166.318    2.2316998     0.251473   0.13334049 
   29900   -949.03127    40.226395   -908.80487    1440.7636   -7183.9796     2.169098   0.33046118   0.13939569 
   30000   -947.59557    41.328921   -906.26665    1480.2521   -5510.0411    2.1701808  0.076593243   0.12096599 
   30100   -946.69566     43.45682   -903.23884    1556.4657    9531.1829    2.2041669  0.055110572   0.13490658 
   30200    -947.1191    46.296996   -900.82211    1658.1905    4587.0816    2.1902116   0.10113617   0.14248384 
   30300   -944.82742    48.093713   -896.73371    1722.5424   -9710.9278    2.1521086   0.32866505   0.15982417 
   30400   -947.81642    41.110254   -906.70616    1472.4202   -3294.5572    2.1790219  0.046086057   0.16135341 
   30500   -949.74124    44.871743   -904.86949    1607.1431    2307.1875    2.1924546   0.26491568   0.12826515 
   30600   -948.16092    46.574246   -901.58667    1668.1206    2435.4094    2.1871901  0.092698659   0.12823839 
   30700   -948.34724    47.680785   -900.66645    1707.7528   -3148.3534    2.1724218   0.27499704   0.13454953 
   30800   -950.30619    40.340125   -909.96607     1444.837     1334.044    2.1941501   0.11354291   0.12430685 
   30900   -946.37269     42.46138   -903.91131    1520.8126    1108.1661    2.1850134  0.013278486   0.13527332 
   31000   -943.97438     42.70154   -901.27284    1529.4143    1834.2626    2.1796398   0.12990723   0.12429484 
   31100    -950.1121    42.623219   -907.48889    1526.6091   -1407.8445    2.1843668  0.087392754   0.11673508 
   31200   -949.95812     42.53869   -907.41943    1523.5816    616.29407    2.1910362  0.049234946   0.13478511 
   31300   -945.46908    44.286611   -901.18247    1586.1858    42.914328    2.1806281    0.2001175   0.14569941 
   31400   -949.46087    45.707102   -903.75377    1637.0626   -2034.2294    2.1788156   0.19018636   0.14527206 
   31500   -953.19589    42.994952   -910.20094    1539.9232    -1187.788    2.1910479  0.046107339   0.12260059 
   31600   -949.07792    48.097485   -900.98044    1722.6775   -3812.0359    2.1766458   0.53336864   0.13449732 
   31700    -948.6662    46.868576   -901.79762    1678.6624    2012.3887    2.1860623   0.24090715   0.12755208 
   31800   -948.22316    41.933468   -906.28969    1501.9048    567.68278    2.1882468   0.10532829   0.12763276 
   31900   -948.58152    43.670685   -904.91083    1564.1256   -1441.1781    2.1818927  0.015985246   0.12520357 
   32000   -946.79438    47.952468   -898.84191    1717.4835   -2525.3242    2.1722285   0.17855636   0.12766342 
   32100   -948.12915    44.816877   -903.31227     1605.178    269.61509    2.1827711  0.087057667   0.13359445 
   32200   -949.80079    45.237796     -904.563    1620.2538    4895.3093    2.1959938  0.039662028   0.13280111 
   32300   -943.31828    48.592713   -894.72557    1740.4148    -2169.318    2.1638773   0.14043725   0.15318314 
   32400   -944.08735    42.759783   -901.32757    1531.5004    -1577.867    2.1744289   0.31018705   0.14569612 
   32500   -947.62556    43.302474   -904.32309    1550.9376   -187.25211    2.1859932   0.20457165   0.13941475 
   32600   -943.01887    42.583615   -900.43525    1525.1907    6801.6875    2.1873209   0.32872018   0.12748951 
   32700   -944.50937    48.867674   -895.64169    1750.2629   -3009.9923    2.1602365   0.38536157   0.12991844 
   32800   -948.10834    43.345106   -904.76324    1552.4645   -4570.8046    2.1751913 0.0021414534   0.14915244 
   32900   -944.37881    42.243624   -902.13519    1513.0134     6008.639     2.189944   0.27004765   0.15833446 
   33000   -940.96163      45.7469   -895.21473    1638.4881    5116.8908    2.1772525    11.311196   0.15557752 
   33100   -947.57709    45.066442   -902.51065    1614.1165    -6619.111    2.1639358    5.9083604   0.14148757 
   33200   -945.19831    41.196698   -904.00161    1475.5163   -4894.4309    2.1669795    5.7914396   0.14589127 
   33300   -945.08445    45.864176   -899.22027    1642.6885      7409.81    2.1881972    5.9855523   0.15609115 
   33400   -947.62569    45.220874   -902.40481    1619.6477    2571.8211    2.1846965    4.8850748   0.15060374 
   33500   -947.87558    40.763055   -907.11253    1459.9848   -6420.8255    2.1625395    6.2982968   0.14518681 
   33600   -948.31639    46.623542   -901.69284    1669.8862   -482.40245    2.1751687    5.9732247    0.1355508 
   33700   -946.66435    48.343588   -898.32076     1731.492    8790.1761    2.1983947    10.754115    0.1411962 
   33800   -950.36135    44.905152    -905.4562    1608.3397   -3728.0323    2.1713403    8.5487514   0.12604418 
   33900   -948.25628    42.323232   -905.93305    1515.8647   -11259.963     2.149172    12.113142   0.11553188 
   34000   -946.78733    46.748508   -900.03882     1674.362    3236.0161    2.1812899    10.280906   0.12970383 
   34100   -949.30245    46.609004   -902.69344    1669.3655    9173.2357     2.200402    14.385545   0.10788094 
   34200   -946.52757    37.233103   -909.29447    1333.5547    180.13702    2.1783626    13.012241   0.12838739 
   34300   -948.98659    47.879092    -901.1075    1714.8554   -9037.1112    2.1548852    13.861604   0.12075221 
   34400   -949.80463    48.121128    -901.6835    1723.5243    1235.2091    2.1834868    14.190809    0.1069765 
   34500   -950.20365    42.275594   -907.92806    1514.1585    5782.6199    2.1979716    13.131261   0.12157203 
   34600   -944.34012    44.971506   -899.36862    1610.7162    -2233.381    2.1666083    14.213181   0.11806433 
   34700   -946.63798    44.595604   -902.04238    1597.2528   -2124.1274    2.1719134    14.382736   0.12811945 
   34800   -949.12469      42.4253   -906.69939    1519.5204    2897.2534    2.1875778    14.205663   0.11885574 
   34900   -943.97183    45.766181   -898.20565    1639.1786     873.3691    2.1716625    13.595867   0.12323121 
   35000   -945.22265    43.822269   -901.40038    1569.5547    326.19841    2.1728705    13.369488   0.12185335 
   35100    -950.3974    44.095856   -906.30155    1579.3536   -2052.3336    2.1784802     15.27809   0.11057993 
   35200   -945.38975    46.688158    -898.7016    1672.2005   -991.67253     2.172102    13.881635   0.11470151 
   35300   -945.00352    44.274847   -900.72867    1585.7644    4348.4671    2.1830421    12.324258   0.12593181 
   35400   -950.14118    44.016498   -906.12468    1576.5113   -1374.8901    2.1777167    13.597403   0.11367028 
   35500    -947.1463    47.245648   -899.90065    1692.1678   -4060.0792    2.1638562    11.884308   0.11209466 
   35600   -942.92394    43.575197   -899.34874    1560.7055    4371.3143      2.17857     13.63997   0.12442514 
   35700   -953.10421    46.761765   -906.34245    1674.8368    4182.0776    2.1973969    14.776477   0.11485201 
   35800   -946.37217    45.446623   -900.92555    1627.7332   -1814.6616    2.1687274    13.050008   0.11501898 
   35900   -947.08678    46.512635   -900.57415    1665.9139   -7753.3565    2.1583267    14.015614   0.12264053 
   36000    -951.8927    43.824529   -908.06817    1569.6357    5809.5071    2.2006166    12.528829   0.11385786 
   36100   -947.72127     47.33707    -900.3842    1695.4422    5994.6609    2.1919317     14.44802   0.11600544 
   36200    -947.8154    45.965641   -901.84976    1646.3226   -6346.3989    2.1601637    14.655358   0.11157102 
   36300   -949.13694    40.272396   -908.86455    1442.4112    -4686.198    2.1686307    13.484812   0.12573912 
   36400   -947.77764    45.386656   -902.39098    1625.5854    7923.0306    2.1948047     15.36475   0.13449776 
   36500   -949.66407    49.846227   -899.81784    1785.3111    6777.1742    2.1964045    13.180797   0.12953976 
   36600   -947.45161    40.478756   -906.97285    1449.8023   -4795.1041    2.1670543    13.306099   0.11866686 
   36700   -947.22797    45.427997   -901.79997    1627.0661   -9137.6708    2.1569265    13.170119   0.11640473 
   36800   -945.59426    47.360741   -898.23352      1696.29    7381.4366     2.191071    14.015956   0.12188615 
   36900   -950.52707    45.807952   -904.71912    1640.6747     4048.437    2.1977929    12.208047   0.12106677 
   37000   -947.33723    44.232783   -903.10445    1584.2579    -4975.056    2.1694061    13.053151     0.131301 
   37100    -944.2122    47.229969   -896.98223    1691.6062   -6314.3149    2.1587909    13.993752   0.13017925 
   37200    -949.1291    44.075171   -905.05393    1578.6128    4575.1556    2.1953716     14.15015   0.11350358 
   37300   -947.47769    44.552409   -902.92528    1595.7057    4095.4126    2.1919735    15.894466   0.12510987 
   37400   -942.90521    45.659491   -897.24572    1635.3574   -3446.3897    2.1622911    12.940631   0.13786941 
   37500   -949.55665    42.905841   -906.65081    1536.7316     -672.865    2.1851957    13.524597   0.13945918 
   37600    -951.1263    47.301129   -903.82517    1694.1549   -34.332182     2.184218    14.170143   0.13338351 
   37700    -946.8297    47.899282   -898.93042    1715.5786    203.31203    2.1776301    14.139157   0.12262941 
   37800   -949.01188    41.647032   -907.36484    1491.6457   -320.27091    2.1855712    14.244719   0.12940321 
   37900   -950.59791    45.378416    -905.2195    1625.2903   -4397.5723    2.1764856    14.812222   0.11329482 
   38000   -942.08802    42.329242   -899.75878    1516.0799    4081.4746    2.1789553    15.333482   0.13611974 
   38100   -947.83628    41.492878   -906.34341    1486.1244    5169.9223    2.1939734    13.939862   0.12711898 
   38200    -951.6532    45.306794    -906.3464    1622.7251   -2309.8232    2.1810828    13.725391   0.11112494 
   38300   -947.68217    47.407477   -900.27469    1697.9639   -7063.5464    2.1632519    13.215928    0.1302859 
   38400   -951.69203      46.5777   -905.11433    1668.2443    1100.4494    2.1913107    13.760356   0.12566238 
   38500   -949.58298    42.967438   -906.61554    1538.9378    9036.3989    2.2082862    15.345982    0.1274201 
   38600   -943.37045    44.912917   -898.45753    1608.6178   -3253.0112     2.158393    15.020899   0.13665822 
   38700   -949.05029    44.354195    -904.6961    1588.6064   -9585.9531     2.160548    14.686335   0.11820929 
   38800   -947.61519    43.377075   -904.23812    1553.6095    6677.6866    2.1982518    14.082686   0.12719311 
   38900   -946.49438    50.510081    -895.9843    1809.0879    6096.3832    2.1885623     11.50092   0.14318258 
   39000   -947.49599    43.851397    -903.6446     1570.598   -4769.1221    2.1710669    13.632935     0.125205 
   39100   -947.76829    42.659478   -905.10882    1527.9078   -8070.8586    2.1634974    15.585212   0.13791082 
   39200   -944.24337    47.368124   -896.87524    1696.5544    4094.7828    2.1829403    15.908939   0.13014806 
   39300   -946.58973    43.190414   -903.39932     1546.924    10524.307    2.2021545    15.752284   0.13154603 
   39400   -950.37665    44.508791   -905.86786    1594.1435   -6981.2985     2.169769    17.540459   0.13012596 
   39500   -943.53704    44.098728   -899.43832    1579.4565   -4509.7234    2.1591182     16.60773   0.14122127 
   39600   -945.88841    41.979004    -903.9094    1503.5357    6921.5586    2.1966977      14.2378   0.14544394 
   39700   -951.24451    44.633885   -906.61062    1598.6239    6525.2657     2.201685    13.842082   0.13160703 
   39800   -945.99361    45.458878   -900.53473    1628.1721   -3892.5802    2.1625914    13.412576   0.13526458 
   39900   -946.79533    44.560033    -902.2353    1595.9788   -4836.5112    2.1678344     12.49837   0.14143203 
   40000   -948.23089    40.492998   -907.73789    1450.3123    7550.7666    2.2050379    14.758793   0.13012918 
   40100   -944.27149    44.833666   -899.43783    1605.7793    3471.8887    2.1835248    16.169738   0.12887259 
   40200   -945.19778    42.445837   -902.75194     1520.256   -817.97824     2.173048    15.354961   0.13814822 
   40300   -949.67798    41.717913   -907.96006    1494.1844    -1439.019    2.1877919    13.158944   0.12410663 
   40400   -945.24023    46.494363   -898.74587    1665.2595     53.71235    2.1769448    14.204009   0.13846198 
   40500   -946.04074    44.129787   -901.91095    1580.5689    2324.7073    2.1863009    13.905227   0.14162952 
   40600   -948.85917     42.23123   -906.62794    1512.5695   -718.95859    2.1864613    14.657492   0.13461661 
   40700   -946.06014    48.086098   -897.97404    1722.2697   -4708.1683    2.1666925    12.366801   0.16201455 
   40800   -945.00412    43.982468   -901.02165    1575.2925    5015.0997    2.1904348    13.452251   0.13973475 
   40900    -951.2669    45.978628   -905.28827    1646.7877    1465.6282    2.1904044    12.385994   0.12131139 
   41000   -945.10136     45.82556    -899.2758    1641.3054   -3542.7315    2.1673049    16.556181   0.13076658 
   41100   -947.31542    48.471001   -898.84442    1736.0555    -4453.751    2.1680287    14.805963    0.1371875 
   41200   -946.66587    41.179627   -905.48624    1474.9049    7257.6953     2.201133    14.870224   0.14372456 
   41300   -945.14224    44.533588   -900.60866    1595.0316     5397.176    2.1898188    14.122669   0.13337912 
   41400   -941.79773    42.430312   -899.36742    1519.6999    -6010.247     2.151884    12.329604   0.14428361 
   41500    -947.6343    39.299325   -908.33498    1407.5593   -1363.1369    2.1800472     10.04401   0.13062413 
   41600   -948.32904    46.584154   -901.74489    1668.4755    12122.066    2.2126996    15.568797   0.14784132 
   41700   -946.72566    45.801986   -900.92368     1640.461    2140.3613    2.1874112    12.208609   0.14299746 
   41800   -945.21113    36.652687   -908.55845    1312.7663   -11286.441    2.1522939    15.130389   0.10932433 
   41900   -947.98232    42.909777   -905.07254    1536.8726   -3849.2471    2.1738662    13.489948   0.12057645 
   42000   -943.66553    44.472147   -899.19338     1592.831    11629.931    2.2048985    14.446934   0.13014716 
   42100   -948.88219    43.338426   -905.54377    1552.2253    139.72965    2.1879443    14.410204   0.13673329 
   42200    -948.6532    42.907544   -905.74566    1536.7926   -6210.1285    2.1664022    13.416596   0.13120783 
   42300   -944.71552    46.234836   -898.48068    1655.9642   -2249.5482    2.1677583    13.772304   0.12827884 
   42400   -947.91995    44.303948     -903.616    1586.8067    3749.0886    2.1935937    14.186898      0.12915 
   42500   -950.66389     44.43223   -906.23166    1591.4013    -899.6724    2.1897334    13.500455   0.11233342 
   42600   -945.47412    48.661855   -896.81226    1742.8912   -5352.7571    2.1599469    15.662482   0.13907847 
   42700   -948.89066    45.563327   -903.32733    1631.9131     16.68715    2.1827623     14.51064   0.13401142 
   42800   -947.76615    42.933169   -904.83298    1537.7104     5212.174    2.1944604    14.445574   0.11984601 
   42900   -942.96637    46.079061   -896.88731    1650.3848   -2513.5173    2.1671535    15.417698    0.1466586 
   43000   -948.33272    45.268063   -903.06465    1621.3379   -2759.2167    2.1724347    13.674251   0.12176689 
   43100   -948.23996    43.409178   -904.83078    1554.7593    1343.8139    2.1845523    15.709467   0.12416415 
   43200   -944.52082    46.017825     -898.503    1648.1916    3876.5966    2.1824173    15.665548   0.16248008 
   43300   -944.55794     41.42475   -903.13319    1483.6843    1810.9731    2.1797591    14.842101   0.13139713 
   43400   -951.68493    45.083132    -906.6018    1614.7143    -9479.772    2.1677148    14.626123   0.11678961 
   43500   -943.12051    42.345156   -900.77535    1516.6499    3687.5237    2.1820848    13.305715   0.13112151 
   43600   -945.60476    42.730693   -902.87407    1530.4584    8903.0201    2.2018567     15.00455   0.13078293 
   43700   -950.69444    41.701138   -908.99331    1493.5835   -1858.3645    2.1846401    13.711157   0.13920909 
   43800   -947.19515     45.14916   -902.04599    1617.0792   -9194.8522    2.1541724    14.678444   0.13111274 
   43900   -946.57331    45.794616   -900.77869    1640.1971    1695.6693    2.1824935    12.401225   0.12615193 
   44000   -949.21167    40.916997   -908.29467    1465.4985    10599.936    2.2121948    12.292373   0.12723641 
   44100   -948.96335    47.938352     -901.025    1716.9779   -5024.1072     2.165767    13.866914   0.13892385 
   44200   -948.35629    47.098536   -901.25775    1686.8988   -8897.9068    2.1570352     16.25735   0.13393025 
   44300   -948.47601    42.611333   -905.86468    1526.1834    4123.6862    2.1932102    14.367906   0.13772742 
   44400   -949.11118    42.759854   -906.35133    1531.5029    9385.6774    2.2077236    14.670947   0.11068709 
   44500   -943.03457    44.326992   -898.70758    1587.6321   -5456.9184    2.1544842    12.215142     0.113767 
   44600   -949.60127    44.838286   -904.76298    1605.9448   -11797.997    2.1583621    14.814312   0.14013862 
   44700    -948.7518     44.86664   -903.88516    1606.9603    7561.3961    2.1995553    14.915101   0.12905533 
   44800   -944.27531    49.154966   -895.12035    1760.5526    4311.9181    2.1820856    13.322018   0.13541473 
   44900   -945.16065    42.150435   -903.01021    1509.6757   -2658.7576     2.168509    13.265227   0.13101635 
   45000   -948.22538    43.481834   -904.74354    1557.3616   -5306.2358    2.1709438    12.724175   0.12800831 
   45100    -945.5216    48.638365   -896.88323    1742.0498    3407.1654    2.1796675    14.737619   0.14384811 
   45200   -947.54301    46.051267   -901.49175    1649.3894    1018.7786    2.1803474     14.25655   0.13235739 
   45300   -949.70394    44.263559   -905.44038    1585.3602   -3502.9885    2.1769835    14.911934   0.12055097 
   45400   -945.75749    46.041467   -899.71602    1649.0384    33.605916     2.175168    14.482487   0.12755798 
   45500   -949.87881    49.993677   -899.88513    1790.5922   -288.33392    2.1772521    14.055108   0.11009397 
   45600   -949.00896    42.182127   -906.82683    1510.8108    2288.2002    2.1882773    14.306589   0.12634015 
   45700   -947.74115    45.874384   -901.86677    1643.0541    97.209421    2.1778567    14.207651   0.14034094 
   45800    -946.3957    46.038295   -900.35741    1648.9248   -1055.4289    2.1724266    12.251803   0.12777358 
   45900   -950.77531    41.419095   -909.35621    1483.4818    2773.3539    2.1965178    12.454859   0.12758541 
   46000   -946.62149    43.873782   -902.74771    1571.3998    -861.0734    2.1767589    13.709173   0.13700836 
   46100   -947.60259    46.294279   -901.30832    1658.0932   -3399.5492    2.1672501    10.882994   0.12777734 
   46200   -952.93821      44.3972   -908.54101    1590.1467    383.02816    2.1911816    17.321093   0.11056579 
   46300   -947.04443    42.511845   -904.53259    1522.6201       5194.3    2.1937864     15.49395   0.13087579 
   46400   -942.90512    42.634603   -900.27052    1527.0169   -744.37508    2.1677582    8.3140603   0.12522098 
   46500   -950.74649     46.21539    -904.5311    1655.2677   -7093.1509    2.1657703    14.264488   0.12432776 
   46600   -951.01999    43.214048   -907.80595    1547.7705    3191.6426    2.1983179    14.900874   0.12732086 
   46700   -944.02941    45.533406     -898.496    1630.8415    6184.7512    2.1892468    12.468685    0.1480186 
   46800   -946.50169     43.75229    -902.7494    1567.0484   -1422.8414    2.1712595    13.042961   0.13706121 
   46900   -947.42531    40.446629   -906.97868    1448.6516   -4293.9249     2.171416    12.603462   0.14306792 
   47000   -944.23257    44.564642   -899.66793    1596.1439    5775.9962    2.1896048    11.911848   0.15606906 
   47100   -946.91296    47.580904   -899.33206    1704.1754    8394.1567    2.1959766    14.119102   0.13464704 
   47200    -946.2219    41.104902     -905.117    1472.2285   -3924.3381    2.1653959    14.877659   0.12755206 
   47300   -943.92924    42.581049   -901.34819    1525.0988   -5270.1911    2.1584923    14.775407   0.13205097 
   47400   -945.47972    50.057192   -895.42253    1792.8671    4954.9806    2.1846781    14.114716   0.14101139 
   47500   -947.82662    44.503515   -903.32311    1593.9545    9802.1361    2.2017938    11.671244   0.13332664 
   47600   -947.20368    43.169233   -904.03445    1546.1654    -6140.653    2.1612762    12.378169   0.13586239 
   47700   -942.24863    45.297376   -896.95126    1622.3877   -7920.7641    2.1528334    13.705617   0.15463959 
   47800   -949.16715    43.411965   -905.75519    1554.8592    11226.264    2.2106663    13.889755   0.14017121 
   47900   -949.04344    44.212225   -904.83122    1583.5216    2467.1455    2.1905768    14.275948   0.13629001 
   48000   -949.09177    48.121259   -900.97051     1723.529   -8734.7514    2.1560319    13.228684   0.13479354 
   48100    -947.0475    47.585499     -899.462      1704.34   -2034.3809    2.1695948    13.676673   0.12694955 
   48200   -950.58029    42.626272   -907.95401    1526.7185    8731.8751    2.2087748    15.895605   0.12951245 
   48300   -949.18209    46.856078   -902.32601    1678.2148   -975.09492    2.1783207     13.16561   0.13081105 
   48400   -945.37062     44.23912    -901.1315    1584.4849   -2400.5413    2.1678393    13.770771   0.13176849 
   48500   -951.69054    42.218941    -909.4716    1512.1294    2038.6324    2.1930392    13.078983   0.12960971 
   48600   -948.27551    45.692495   -902.58302    1636.5395    1722.3654    2.1842172    12.098224   0.13377746 
   48700   -948.55725    47.337193   -901.22006    1695.4466   -1406.5533    2.1775349    15.125977   0.14277078 
   48800   -949.66526    42.114108   -907.55115    1508.3746    -2566.155    2.1780484    13.358308   0.13419059 
   48900   -949.72789    45.810955   -903.91694    1640.7823   -327.12505    2.1824211    12.073685    0.1397187 
   49000   -947.59921    48.074734   -899.52447    1721.8626    2570.8003    2.1813731    14.502963   0.13391706 
   49100   -946.47796    41.220653   -905.25731    1476.3743   -3210.4953    2.1736287    13.030994   0.12733648 
   49200   -945.58174    41.848353   -903.73339    1498.8563   -2488.6223    2.1717219     14.97813   0.14296325 
   49300   -944.64901    47.835297   -896.81371    1713.2869    1616.6597    2.1750008    14.663667   0.13589765 
   49400   -948.39997    44.567918   -903.83206    1596.2612    5559.1275    2.1959072    15.231081   0.14080338 
   49500   -946.64534    41.854099   -904.79124    1499.0621   -1719.2851    2.1751126    13.175543   0.14067827 
   49600   -943.69824    47.160392   -896.53785    1689.1142   -7495.0406    2.1495906    14.232213   0.15461908 
   49700   -948.86218    43.747189     -905.115    1566.8657     5850.671    2.1999715    16.277343   0.14334906 
   49800   -947.83958    43.793543   -904.04604    1568.5259    9028.9675    2.2005826    12.616647   0.14629342 
   49900   -944.45339    44.732418   -899.72097     1602.153   -7169.8348    2.1526771    15.940532   0.13626295 
   50000   -947.50442    47.920277   -899.58414    1716.3306   -11274.371    2.1514151    14.966808   0.14043483 
   50100   -954.99582    48.646699   -906.34912    1742.3484    9687.5852    2.2182933     15.61137   0.13000489 
   50200   -947.09104    46.434028   -900.65701    1663.0985    7169.9884    2.1968182    13.669806   0.13262401 
   50300    -946.8859    44.753593   -902.13231    1602.9114   -10493.363    2.1492195    12.647492   0.15020839 
   50400   -951.92687    42.112763   -909.81411    1508.3264   -5199.6704    2.1785164    14.465303   0.13027861 
   50500   -945.92732    44.139611   -901.78771    1580.9208    7503.4887    2.1926402    13.399005   0.13621212 
   50600    -947.2481    45.987313   -901.26079    1647.0988    3718.9005    2.1867426    13.978227   0.13919073 
   50700   -947.43189    39.341235   -908.09066    1409.0603   -3127.8895    2.1728194    14.645529   0.14333374 
   50800   -948.65653    46.754208   -901.90232    1674.5662   -1730.5613    2.1716904    14.418934   0.13802695 
   50900   -947.87203    48.037438   -899.83459    1720.5268    4722.7283    2.1896665    15.334839   0.13468953 
   51000   -950.31511    44.558038   -905.75707    1595.9073   -913.48615    2.1846285    14.163995    0.1458531 
   51100    -944.6395    43.902189   -900.73732    1572.4172   -3558.8066     2.163504    14.135049   0.13257225 
   51200   -940.06385    41.790108   -898.27374    1496.7701    1220.2221    2.1677492      13.4706    0.1432702 
   51300   -945.78595    41.085561   -904.70039    1471.5358    6060.1395    2.1916772    12.982005    0.1482008 
   51400   -949.19391    47.134769   -902.05914    1688.1965    1148.4521    2.1837403    12.987776   0.13160801 
   51500    -945.5619    48.472844   -897.08905    1736.1215   -8347.9646     2.153713    11.980694   0.14647712 
   51600   -949.55905    43.197812   -906.36124     1547.189   -260.48829    2.1821926     14.89971   0.13104556 
   51700   -946.75219    44.299318   -902.45287    1586.6409    11970.397    2.2062868    15.722557   0.14517418 
   51800   -944.21152    45.744637   -898.46688     1638.407    287.52313    2.1702398    11.316417   0.13845572 
   51900   -948.28828    44.754851   -903.53343    1602.9564   -18173.467    2.1317957    14.849169   0.13020287 
   52000   -952.03153     45.80478   -906.22675    1640.5611    631.84926    2.1856709    13.119434   0.11887317 
   52100   -946.88794    47.599269   -899.28867    1704.8332    16567.852     2.215618    13.500521   0.14006193 
   52200   -947.34575    43.714192   -903.63155    1565.6838   -3186.2095    2.1742107    13.667798   0.14043549 
   52300   -949.33321    39.188219   -910.14499    1403.5799   -8951.1786    2.1647928    12.796143   0.13697266 
   52400   -949.10632    47.280485   -901.82583    1693.4155   -1272.2831    2.1773737    15.115068    0.1326795 
   52500   -947.77696     46.56759   -901.20937    1667.8822    7560.9668    2.1977669    15.926919   0.13388253 
   52600   -949.19551    40.973495   -908.22202     1467.522    1392.9635    2.1869553    12.128862   0.11200979 
   52700   -945.46489    44.100022   -901.36486    1579.5028    -3909.451    2.1606036    11.956579   0.12915056 
   52800   -944.88425    44.534933   -900.34932    1595.0798     2581.307    2.1791469    14.276869   0.13741389 
   52900   -946.92393    41.982644   -904.94128    1503.6661    6223.3728    2.1923563     14.20443   0.12100797 
   53000   -947.39754    43.352891   -904.04465    1552.7433   -894.80314    2.1755755    14.892458   0.13051961 
   53100   -946.33993    49.107704   -897.23222    1758.8599   -10215.644    2.1480053    16.324308   0.13547916 
   53200   -946.40391    42.117697   -904.28622    1508.5032    2034.4375    2.1802088     12.49991   0.14005088 
   53300   -946.76023    43.383389   -903.37684    1553.8357    10573.924    2.2017953    14.474683   0.15116828 
   53400   -942.42128    46.988741   -895.43254    1682.9663    -3347.632    2.1581217    13.532992   0.13747466 
   53500   -946.92953    44.284008   -902.64552    1586.0926    -9402.754    2.1533825    14.147982   0.13671464 
   53600   -948.30724    44.095219   -904.21202    1579.3309      2369.28    2.1863009    14.366296   0.11714095 
   53700    -946.9868    47.607962   -899.37883    1705.1446     12812.81    2.2113748    14.467363   0.13582612 
   53800   -945.35632    44.606403   -900.74992    1597.6396   -7416.9428    2.1595484    13.848168   0.14838845 
   53900    -949.1181    40.860953   -908.25715    1463.4912   -14039.545    2.1507751    14.972118   0.12644375 
   54000   -947.34859    44.263994   -903.08459    1585.3757    8058.5297    2.1981161    15.012492   0.12983949 
   54100   -945.54817    45.907112   -899.64106    1644.2263    9621.6401    2.2003968     13.63018   0.14468243 
   54200   -946.84732     42.52008   -904.32724    1522.9151   -5979.9422    2.1623525     13.31953   0.13490696 
   54300   -950.79378    43.048326   -907.74545    1541.8349   -5151.9285    2.1747829    11.762969   0.15113747 
   54400    -945.0602    44.202125   -900.85808    1583.1598    6215.6332    2.1929465    15.819564   0.13851382 
   54500   -946.48723     43.93109   -902.55614    1573.4523    3365.3905    2.1880577    14.685583   0.14206648 
   54600   -950.84267    40.586351   -910.25632    1453.6559    -2946.333    2.1826035    12.947733   0.14250153 
   54700   -944.33055    42.198356    -902.1322    1511.3921    -1986.196    2.1697556    13.049755   0.13248311 
   54800   -945.76008    44.389416   -901.37066    1589.8679    4547.5824    2.1875539    14.115638   0.14750583 
   54900   -953.00349    44.747186    -908.2563    1602.6819    1698.7132    2.1975774    13.701319     0.130112 
   55000   -945.96083    44.406974   -901.55386    1590.4968   -4674.4727    2.1663132    16.174954   0.13408609 
   55100   -946.46482    45.854672   -900.61015    1642.3481   -615.91992    2.1740953    15.317014   0.14512982 
   55200   -950.13738    45.432048   -904.70533    1627.2112    4499.4491    2.1922154    14.822927   0.14173887 
   55300   -948.07857    42.542537   -905.53603    1523.7194      1132.09    2.1832591    12.583533   0.15602892 
   55400   -948.10376    50.812831   -897.29093    1819.9313   -10719.329    2.1487899    13.440553    0.1487078 
   55500   -949.52219    45.329991    -904.1922    1623.5559   -61.040406    2.1831154     12.89285    0.1452364 
   55600   -952.38517    49.032516   -903.35265    1756.1669    10270.901    2.2132193     12.82453   0.14638452 
   55700   -945.07098    49.088017   -895.98296    1758.1547    -5666.013    2.1600163      15.1667   0.15363951 
   55800   -941.76956    39.931113   -901.83845    1430.1876   -10980.287    2.1419503    14.483733   0.14781915 
   55900   -945.79724    41.392872   -904.40437    1482.5426    4256.6531    2.1852857    13.152934   0.13835158 
   56000    -945.8613    46.310139   -899.55116    1658.6612    12561.595    2.2075691    14.206838   0.14380637 
   56100   -943.31406    43.655517   -899.65855    1563.5823    -3985.291    2.1628918    14.075707   0.15418975 
   56200   -949.94417    42.169634   -907.77453    1510.3633   -6839.2684     2.167081    15.736099   0.14609097 
   56300   -947.27046    44.918545   -902.35191    1608.8194    4799.1962      2.18967    12.327897   0.15168588 
   56400   -943.71676    43.913177   -899.80358    1572.8107     6816.163    2.1861645    13.311912   0.14188757 
   56500   -948.79647    39.772245   -909.02423    1424.4976    -1773.581     2.179808     15.03127   0.13643365 
   56600   -946.46434    41.330994   -905.13335    1480.3263   -4452.1976     2.170282    11.953302   0.14810051 
   56700   -948.37744    47.972115   -900.40532    1718.1872    2428.4531    2.1869082    14.358799   0.13161725 
   56800   -947.39374    40.937632   -906.45611    1466.2375    3234.3826    2.1910923     14.51416   0.13957541 
   56900   -949.64729    41.934336   -907.71295    1501.9358   -3252.1517    2.1765206    14.673836   0.12065068 
   57000    -947.0975    46.563906    -900.5336    1667.7502   -4594.1081    2.1669839    15.122307   0.12618011 
   57100    -948.0005    44.462308   -903.53819    1592.4786    2477.2067    2.1856537    14.106285   0.13512029 
   57200    -949.5661    40.956607    -908.6095    1466.9171    2767.6997    2.1938613    14.298162   0.13279831 
   57300    -941.0461     42.24385   -898.80225    1513.0215   -1462.9151    2.1607277    12.141627   0.14661951 
   57400    -945.1824     43.64205   -901.54036       1563.1    3612.0385    2.1795561    13.536142   0.13460749 
   57500   -949.49362    44.405497   -905.08813    1590.4439    4542.8791    2.1986656     12.94272   0.13056045 
   57600   -947.43754    44.316201   -903.12133    1587.2456   -3195.5104    2.1712508    14.028942   0.13324271 
   57700   -942.98758    45.112311   -897.87527    1615.7594   -12950.014    2.1341545    14.191636   0.13813729 
   57800   -948.46597    44.402957   -904.06302    1590.3529    4802.0942    2.1895552    15.534369   0.13281913 
   57900   -947.67208    44.498269   -903.17381    1593.7666     15841.04    2.2176021    14.572768   0.14129246 
   58000   -941.64157     45.50156   -896.14001    1629.7009   -2919.9774    2.1574054    14.717441   0.12862222 
   58100   -948.21621    46.699902   -901.51631    1672.6211   -12235.667    2.1466017    15.797532   0.12806113 
   58200   -947.48453    43.037527     -904.447    1541.4482    2750.1513    2.1889615     13.81007   0.13772531 
   58300   -949.32057    49.245513   -900.07506    1763.7957    9229.7194    2.2047293    11.429745   0.14111874 
   58400   -947.20465    48.681038   -898.52361    1743.5782   -7386.8077    2.1606952    12.778506    0.1371062 
   58500   -950.33948    42.824585   -907.51489    1533.8213   -4153.6428    2.1748724    14.829004   0.12220729 
   58600    -950.5448    47.288549   -903.25625    1693.7043    2589.9929    2.1907441    14.132222   0.13151951 
   58700   -949.47084    49.659129   -899.81171    1778.6099    689.08169    2.1823656    13.864553   0.12632549 
   58800   -949.84057    44.582292   -905.25828     1596.776   -5632.4188    2.1643002    15.606699   0.12831444 
   58900   -950.17177    42.632069    -907.5397    1526.9261   -4846.0184    2.1764377    13.552453   0.13533916 
   59000   -944.15157    43.141791   -901.00978    1545.1825    10311.704    2.1939879    13.999531   0.12680096 
   59100   -950.93861    47.766861   -903.17175    1710.8357    772.35643    2.1830345    13.834043   0.11648984 
   59200   -952.23851    41.329962   -910.90855    1480.2894   -6901.8114    2.1738038     15.93511   0.13451611 
   59300   -945.34807    42.576792   -902.77128    1524.9463   -571.52771     2.168457    14.852154   0.13391055 
   59400   -946.71468    45.435927   -901.27876    1627.3501    8295.2444    2.1949955    14.708748   0.13134047 
   59500   -951.47408    43.554627   -907.91945    1559.9688    2564.6178    2.1921043    13.266202   0.13233403 
   59600   -948.67611    45.003402   -903.67271    1611.8586   -13043.672    2.1463762    13.259895   0.12559916 
   59700   -948.67847    48.033954   -900.64452     1720.402   -3759.0493    2.1686298    12.927451   0.14107634 
   59800   -948.81406    46.880282   -901.93378    1679.0817    19599.685    2.2272054    15.602948   0.12924695 
   59900   -953.53455    46.837027   -906.69752    1677.5324   -1869.2157    2.1858472    14.517231   0.12616395 
   60000   -944.71184    47.268305   -897.44353    1692.9793   -19087.234    2.1199347    14.395199   0.14401687 
   60100   -946.71946    45.214884   -901.50458    1619.4332    440.69697    2.1792974    14.176153   0.12291643 
   60200   -948.11095    44.165462   -903.94549    1581.8467    10652.539    2.2078936    14.207104    0.1297127 
   60300   -947.97827    47.124425   -900.85385     1687.826   -1159.9425    2.1730211    17.110023   0.13113939 
   60400   -943.34605    46.091902   -897.25415    1650.8448     -8334.26    2.1473372    15.559016   0.13257995 
   60500   -948.57879    42.161735   -906.41705    1510.0804     5016.741    2.1960357    14.054095   0.14101387 
   60600   -949.20709    47.425203   -901.78188    1698.5988    6057.2625     2.197483     14.43297   0.13724892 
   60700   -947.30221    46.855119   -900.44709    1678.1805   -5084.0789    2.1650712    13.227994   0.13565263 
   60800   -950.23147    40.703193   -909.52828    1457.8408   -3036.5914    2.1777066    14.495053     0.127311 
   60900   -949.47081    45.800663   -903.67014    1640.4136    2698.6283    2.1886783    14.711816   0.11937369 
   61000   -944.70425    44.618114   -900.08614     1598.059    6040.7802    2.1881347    14.271984   0.13044861 
   61100   -949.02233    41.534951   -907.48738    1487.6313   -2843.3794    2.1738863    13.728446   0.11966389 
   61200   -951.00941    45.714605    -905.2948    1637.3314   -7546.4174    2.1672335    14.666217   0.12991004 
   61300   -948.78073     48.98578   -899.79495     1754.493    5111.5467    2.1930306    16.008843   0.14314971 
   61400   -946.61072    42.278399   -904.33232    1514.2589    8232.8572    2.1981327    12.821324   0.13486667 
   61500   -949.60921     41.04042   -908.56879     1469.919   -9321.9588    2.1624227    13.872458   0.14427009 
   61600   -943.87454    44.788776   -899.08577    1604.1715   -8682.6899    2.1474461    12.315531   0.13633806 
   61700   -947.34729    45.752812   -901.59447    1638.6998    15110.928    2.2152952    15.187582   0.13710737 
   61800   -948.15363     43.22495   -904.92868     1548.161     10676.19    2.2061391    13.870024   0.12063631 
   61900   -943.64784    45.408066   -898.23977    1626.3522    -13035.59     2.137844    15.205439   0.12727806 
   62000   -944.78952    45.320027   -899.46949     1623.199   -5275.7999    2.1577788     12.61431   0.12479757 
   62100   -946.53424    42.371517   -904.16272    1517.5941    9034.2386    2.1995925    13.870744   0.12726158 
   62200   -949.45364    47.487448   -901.96619    1700.8282    1125.5439    2.1853292    12.460575    0.1369781 
   62300   -943.59044    47.482986   -896.10745    1700.6684   -5039.5077    2.1504386    14.614973    0.1218712 
   62400   -947.91915    41.824483   -906.09466    1498.0013     2832.933    2.1855907    13.297495    0.1199873 
   62500   -949.55823    46.397627    -903.1606    1661.7947    3228.3748    2.1937241    10.555867   0.13873982 
   62600   -942.96062    43.940154   -899.02047     1573.777   -427.41443    2.1695231    13.841792   0.13629578 
   62700   -947.36316     44.29621   -903.06695    1586.5296   -6531.5429    2.1621222    13.749943   0.13750505 
   62800   -950.72893    44.214647   -906.51429    1583.6083    3055.9715    2.1916981    13.931716   0.11871994 
   62900   -943.03133    42.002285   -901.02904    1504.3695    11440.996    2.2019356    14.531349    0.1220495 
   63000   -946.41491    43.531992   -902.88292    1559.1581   -4762.4892    2.1694868    13.300048   0.12116009 
   63100   -951.28252    40.305276   -910.97725    1443.5888   -7307.0479    2.1720819    12.685513   0.11863496 
   63200   -947.35063    44.036015   -903.31462    1577.2103    3364.2735    2.1874164    13.563574   0.14006354 
   63300   -948.79435    47.808538   -900.98581    1712.3285    5856.1648    2.1967816    13.998241   0.12066396 
   63400   -950.47997     42.70115   -907.77882    1529.4003   -6553.2705    2.1729113    15.048166   0.12038022 
   63500   -945.41265    39.042656   -906.36999    1398.3663   -6728.9966    2.1604267     13.81328   0.12946313 
   63600    -944.6282    44.125761   -900.50243    1580.4247    8451.3013    2.1916776    12.794071   0.13657718 
   63700    -950.5379     47.79026   -902.74764    1711.6738    6795.1274    2.1998791    12.088759   0.12414501 
   63800   -952.84667    44.653685   -908.19298     1599.333   -12740.298     2.157004    13.883821   0.11428702 
   63900   -940.53634    40.648149   -899.88819    1455.8693   -7679.6617    2.1421993    13.760658   0.13008086 
   64000   -950.06108    50.889073     -899.172    1822.6621    17448.196    2.2220237    13.398434   0.12366094 
   64100   -947.39516    44.366726   -903.02843    1589.0552    6348.0995    2.1950251    11.944245   0.13069331 
   64200   -948.78275    43.817276   -904.96547    1569.3759   -11219.668    2.1514168    15.211743    0.1222025 
   64300   -950.07785    39.598472   -910.47938    1418.2737    -3034.872    2.1797159    15.565457   0.11741018 
   64400   -951.56648    40.937992   -910.62849    1466.2504    9511.7421    2.2140972    15.212576   0.11886273 
   64500   -948.19421    43.901224   -904.29299    1572.3826    2508.4505    2.1849221    13.652003   0.12326464 
   64600   -950.45052    47.641125   -902.80939    1706.3323    -10779.08    2.1540689    11.688598   0.11621841 
   64700   -945.69215    45.861445   -899.83071    1642.5906   -1620.6688    2.1688246    13.079621    0.1207583 
   64800   -950.01459    40.448467   -909.56612    1448.7174    8907.2647    2.2076309    14.124312   0.12570043 
   64900   -949.34767    43.386576   -905.96109    1553.9498   -5207.1947    2.1708271    13.550349   0.12625481 
   65000   -943.03881    40.743975   -902.29484    1459.3014   -5084.0477    2.1585794    14.344699   0.13672042 
   65100   -948.34214    47.785255   -900.55689    1711.4945    3645.9625    2.1845659    15.259896   0.12577979 
   65200   -950.58448    40.671091   -909.91339     1456.691    7728.2562    2.2045903    13.098715    0.1212191 
   65300   -946.66869    42.383529   -904.28516    1518.0243   -7505.0882    2.1588046    14.847326   0.12259153 
   65400   -947.38764    45.647462   -901.74017    1634.9265   -5009.5682    2.1646662    13.755067   0.11288358 
   65500   -947.89218    43.636311   -904.25587    1562.8944    8526.2468    2.2015725    12.352676   0.13795623 
   65600   -952.34291    41.692361   -910.65055    1493.2692    5999.8076    2.2042731    14.516482   0.12435698 
   65700   -949.70839    47.967577   -901.74081    1718.0247   -13489.168     2.147828    11.201729   0.12090233 
   65800   -944.99994    42.422163   -902.57777     1519.408   -2814.3844    2.1665915    14.543594   0.13001918 
   65900    -948.5502    42.228273   -906.32192    1512.4636    8810.1707    2.2062375     14.58837   0.12837428 
   66000   -949.26087     42.65262   -906.60825    1527.6622    3122.5465    2.1884932    16.340429   0.13204574 
   66100   -946.29728    47.410313   -898.88697    1698.0655   -7573.6229    2.1533418    15.509785   0.12742674 
   66200   -948.10113    45.579788   -902.52135    1632.5027   -1473.2082    2.1755266    15.003242   0.12999305 
   66300   -949.48747    45.175546   -904.31193    1618.0242    3917.8046    2.1916939    13.871946   0.12567511 
   66400   -946.54467    49.322782   -897.22188    1766.5632   -804.74395    2.1756079    12.898768   0.12359852 
   66500   -945.58763    47.275227   -898.31241    1693.2272   -3828.7542    2.1618753    13.031481   0.13241486 
   66600   -947.74306    43.567987   -904.17507    1560.4473   -4196.1497    2.1706331    14.047495   0.14255851 
   66700    -946.8493    44.052211   -902.79709    1577.7904    5012.5997    2.1913767    14.483522   0.12573672 
   66800   -939.98775    46.266619   -893.72113    1657.1025    2589.6197    2.1689352    13.774544   0.14241128 
   66900    -948.5809     46.22434   -902.35656    1655.5882   -5954.5162    2.1677973    13.840958   0.14820574 
   67000   -950.78603    46.616193   -904.16984     1669.623   -6284.7978    2.1682143    13.230512   0.12229068 
   67100   -947.64461    48.329314    -899.3153    1730.9808     4879.234    2.1871659     14.93308   0.13680075 
   67200   -942.50062    47.177961   -895.32266    1689.7435     4863.542    2.1784281    13.844768   0.15553463 
   67300   -946.68513    41.646834    -905.0383    1491.6386    -5475.144    2.1656487    12.985165   0.12494146 
   67400   -946.29519    42.652002   -903.64318    1527.6401   -3263.0852    2.1690622    14.601296    0.1300024 
   67500   -945.45381    46.026677   -899.42713    1648.5087    7779.7189     2.197151    14.140128   0.14321987 
   67600   -946.61985     40.50152   -906.11834    1450.6176    5501.2651    2.1911792    15.510207    0.1304932 
   67700   -947.43022    40.241188   -907.18903    1441.2934    -11313.51    2.1497939    14.126507   0.12621646 
   67800   -949.05059    46.438659   -902.61193    1663.2644   -1350.8588    2.1750183     15.82147   0.12474376 
   67900   -948.10177    47.522034   -900.57974    1702.0669    12840.473    2.2069726    14.306076   0.11494644 
   68000   -951.38534    41.884883   -909.50046    1500.1646   -905.34082    2.1834563    14.348413   0.12156739 
   68100   -948.03658    43.088979    -904.9476     1543.291   -12386.104    2.1491877    14.843091   0.12933974 
   68200   -945.20286    44.012686   -901.19018    1576.3748    2158.3237    2.1793173    12.691167   0.13739876 
   68300   -943.97957    39.863502   -904.11607    1427.7661    8297.3234    2.1957053    14.262971   0.13643009 
   68400   -948.95787    37.714976   -911.24289    1350.8137    112.91073    2.1842464    13.838093   0.11664423 
   68500   -945.39085    42.597129   -902.79372    1525.6747   -3916.0437    2.1634195    14.565378   0.12699998 
   68600   -952.91928    50.977091   -901.94219    1825.8145   -969.41886    2.1847894    14.301017   0.12377376 
   68700   -951.59231    47.444767   -904.14754    1699.2995    868.71293    2.1868832    16.191684   0.11818587 
   68800   -953.40155     43.22793   -910.17362    1548.2677   -5996.1272     2.173607    13.184362   0.11150999 
   68900   -949.81923    40.695243   -909.12399     1457.556    331.77491    2.1849532    14.020494   0.12556781 
   69000   -945.35588    42.276822   -903.07906    1514.2025    7758.7357    2.1920064    13.096157   0.12088996 
   69100   -949.44636    46.845611   -902.60075    1677.8399   -3651.8406    2.1723412    12.485898   0.11559652 
   69200   -950.32477    47.032678   -903.29209      1684.54   -8771.2655    2.1602536    13.955482   0.13173519 
   69300   -950.71291    38.675821   -912.03709    1385.2277    9090.9448    2.2105404    13.016939    0.1180478 
   69400    -947.1582    43.360022   -903.79818    1552.9987    6636.1949    2.1937519    13.134437   0.12199287 
   69500   -945.99785    43.592811   -902.40504    1561.3364   -6833.4847    2.1555172    12.886847    0.1290643 
   69600   -949.17694    46.659775   -902.51716    1671.1839   -8402.8208    2.1558444    13.599441   0.13230631 
   69700    -952.6842    41.777785   -910.90641    1496.3288     19146.23    2.2354121    14.793852   0.12332739 
   69800   -944.54771    41.109948   -903.43776    1472.4093     8204.299    2.1937504    15.134529   0.12917785 
   69900   -945.50906    42.894251   -902.61481    1536.3165   -13809.971    2.1403116    14.872589   0.13539972 
   70000   -951.55625    48.705505   -902.85074    1744.4545   -5267.6614    2.1695942    14.008898   0.11586521 
   70100   -952.28141    42.559707   -909.72171    1524.3343    10338.123    2.2144772    12.354041   0.11884472 
   70200   -949.31064    42.725841    -906.5848    1530.2847    3615.0586    2.1930377    15.945254   0.12571499 
   70300   -945.91043     43.35434   -902.55609    1552.7952   -3832.8063    2.1657264     12.11712   0.13455969 
   70400   -949.24599    46.303423   -902.94257    1658.4207   -4053.0189    2.1746285    14.614545   0.12487231 
   70500   -952.08516     45.28052   -906.80464     1621.784    3258.4292    2.1984815    12.871142   0.13430848 
   70600   -954.21596     42.81046    -911.4055    1533.3154    3180.4641    2.2045782    14.976541   0.12358992 
   70700    -950.5321    47.115361   -903.41674    1687.5014   -6871.4542    2.1697801    13.220595   0.13021848 
   70800   -949.18575    46.706382   -902.47937    1672.8532   -5321.7779    2.1705213     11.78518   0.13130102 
   70900   -949.50373    46.220477   -903.28326    1655.4499     5789.765    2.1959566    13.632851   0.12213202 
[...]
   86800   -949.28693    45.539713   -903.74722    1631.0674    1224.6749    2.1835342    52.086023   0.13381933 
   86900   -946.52608    46.312466   -900.21361    1658.7446    10334.826    2.2009769    51.391669   0.13688934 
   87000   -947.48448    41.250829   -906.23365    1477.4551    -3044.899    2.1735897    51.404489   0.12806085 
   87100   -948.07202    40.156208   -907.91581    1438.2497    -8172.387    2.1617599    51.381083   0.13808833 
   87200   -947.88527    46.327786   -901.55749    1659.2933    4829.6952     2.189123    48.949222    0.1237435 
   87300   -949.20224    46.852269   -902.34997    1678.0784    7977.5148    2.1993889    50.831668   0.12540332 
   87400   -952.28715    42.056721   -910.23042    1506.3192   -5341.5161    2.1775181    47.357128   0.13979993 
   87500   -945.94348    43.045899   -902.89759     1541.748   -5527.2059    2.1609181    50.940779    0.1416962 
   87600   -945.79781    44.699935   -901.09788    1600.9896    5434.0819    2.1877221    45.635431   0.14397596 
   87700   -950.47096    44.923269   -905.54769    1608.9886    2875.8089    2.1899842    47.742395   0.13260947 
   87800   -946.80254    39.012998   -907.78954    1397.3041   -566.40464    2.1774519    51.381622    0.1283395 
   87900     -944.371    45.508458   -898.86255    1629.9479   -4808.4848    2.1587463     52.98908   0.14155155 
   88000   -946.96328    44.411199   -902.55208    1590.6481    3469.3806    2.1865271    52.042611   0.14446387 
   88100   -949.46854    46.365395   -903.10315    1660.6403     3432.606    2.1882412    47.639291   0.13909944 
   88200   -940.71519    45.939453   -894.77574    1645.3846   -5446.3351    2.1493129    42.923799   0.16094306 
   88300   -948.10911    44.755579   -903.35353    1602.9825   -2893.3415    2.1720566    38.597199   0.15621476 
   88400    -949.8839    47.143104    -902.7408     1688.495    1151.8613     2.181459    46.176958   0.14484503 
   88500   -945.26292    47.215543   -898.04738    1691.0895     573.6107     2.176666    40.667051   0.17777843 
   88600    -946.1093    50.330397    -895.7789    1802.6523   -4858.4963    2.1539072    44.757451   0.15780518 
   88700   -949.45673    44.420557   -905.03617    1590.9833    4922.0447    2.1913374    40.063037    0.1564288 
   88800    -947.7606    45.734709   -902.02589    1638.0514    8708.5736    2.1993604    45.014815   0.17126378 
   88900    -946.4171    45.224837   -901.19226    1619.7896   -6893.8022    2.1599805    48.465083   0.16129144 
   89000   -942.32302    49.764881   -892.55814    1782.3976   -8568.8355    2.1415143    40.134984   0.17700105 
   89100   -948.92554    51.982293   -896.94325    1861.8172    5123.8546     2.190234    43.915945   0.16117786 
   89200   -945.65309    45.803975   -899.84912    1640.5323     5267.692     2.188343    43.933083   0.15346074 
   89300   -945.54291    43.589706    -901.9532    1561.2252   -6988.0272    2.1594417    43.934048   0.17494651 
   89400   -948.21115    43.502844   -904.70831    1558.1141   -2012.7489    2.1731572    41.889677   0.16500873 
   89500   -951.64169    42.175595   -909.46609    1510.5769    11327.231    2.2153023    38.776297   0.15233671 
   89600   -943.71772     43.75629   -899.96143    1567.1916      1980.39    2.1761448    43.134116   0.15187109 
   89700   -947.25001    45.521938   -901.72808    1630.4307   -10484.602    2.1547983    49.284829   0.15908851 
   89800   -946.98021    43.162676   -903.81753    1545.9305    1716.1341    2.1820986    42.376246    0.1618831 
   89900   -952.45601     41.43307   -911.02294    1483.9823    11357.108    2.2193166    42.985538   0.15608932 
   90000    -950.7497    48.667933   -902.08176    1743.1089   -7960.6981    2.1645269     45.25793   0.14546625 
   90100   -943.96872    42.968841   -900.99988     1538.988   -9121.6782    2.1475342    38.996665   0.15227587 
   90200   -947.55971    45.595739   -901.96397     1633.074    12795.478    2.2092272     43.47068   0.14880108 
   90300   -950.53568     46.09683   -904.43886    1651.0213    20243.784    2.2341531    42.351061   0.16126113 
   90400   -938.70938    45.689209   -893.02017    1636.4218   -14666.723    2.1158149    42.495618   0.15938187 
   90500   -946.65883    46.795365   -899.86347    1676.0403    -10296.02    2.1492986    40.163958   0.17823423 
   90600   -948.70441    46.777795   -901.92661     1675.411     8154.939    2.2026534    43.154954   0.14770952 
   90700   -947.80948    44.974474   -902.83501    1610.8226    4883.9141    2.1946654    42.625049   0.15484055 
   90800     -942.151    49.551455   -892.59955    1774.7534   -8906.2784    2.1440959    38.725307    0.1620915 
   90900   -944.83547    45.533151   -899.30232    1630.8324    -1791.137    2.1657499    43.373975   0.14175684 
   91000   -946.29352    44.422812   -901.87071     1591.064    4281.4021    2.1846258    31.689143   0.15582198 
   91100   -948.82901    44.597566   -904.23144    1597.3231    2743.3347    2.1850623    29.160619   0.11459256 
   91200   -952.07313    40.441003   -911.63212    1448.4501   -2877.2232    2.1835983    27.294906   0.13106978 
   91300   -947.52887    42.850118   -904.67876    1534.7358   -2715.8447    2.1747161    29.732079   0.14090264 
   91400   -951.24379    49.060111   -902.18367    1757.1553      3657.19    2.1951997    27.309655   0.13487552 
   91500   -948.21024    44.702827   -903.50742    1601.0931    1883.8536    2.1844899     31.46988   0.14762539 
   91600    -949.4643    44.012208   -905.45209    1576.3577   -8880.2436    2.1609624    33.154177   0.13960445 
   91700   -952.34264    39.292959   -913.04968    1407.3313    5481.0703    2.2035187      33.2385   0.13326371 
   91800   -949.23134    44.099046    -905.1323    1579.4679    9360.5705    2.2058508    30.625864   0.13212168 
   91900   -944.95282     42.39138   -902.56144    1518.3055    -3495.961    2.1656164    31.602407   0.14210819 
   92000   -945.56171    43.347249   -902.21446    1552.5412   -11278.346    2.1490247    30.196854   0.14692583 
   92100   -952.30271    40.881781   -911.42093    1464.2371    7681.0408    2.2099786    30.660756   0.14622886 
   92200   -948.77509    44.268067   -904.50702    1585.5216     8236.545    2.2067668    28.306542   0.13522577 
   92300   -945.02976    42.830642   -902.19912    1534.0383   -5203.6486    2.1606443    28.490044   0.14398774 
   92400   -947.35422    43.684326    -903.6699    1564.6141   -10149.422    2.1544291      29.6555   0.14331901 
   92500   -955.19844    44.268197   -910.93024    1585.5263    5386.7536    2.2099538    28.483695   0.12449812 
   92600   -949.47915    47.168197   -902.31096    1689.3938     3574.005    2.1923915    30.858649   0.13562307 
   92700    -948.8874    46.488235   -902.39917      1665.04   -5724.2537    2.1646963    31.480087   0.12923816 
   92800   -949.56838    45.541401   -904.02698    1631.1278   -5334.2575      2.17201     30.77011   0.13326091 
   92900   -949.97722    38.907145   -911.07007    1393.5128    3300.3145    2.1958064    28.406973   0.12903445 
   93000   -947.37589    41.419455   -905.95643    1483.4947    4350.5465    2.1881845    29.935614   0.12514073 
   93100   -947.85547    45.178167   -902.67731    1618.1181    669.48544    2.1788405    28.664455   0.12053595 
   93200   -948.42314    45.371148   -903.05199      1625.03   -1356.1794    2.1746027    29.934417   0.12716934 
   93300   -950.52423    44.583513   -905.94071    1596.8197   -815.26457    2.1816469    27.713311   0.12441692 
   93400   -954.49355    43.032663   -911.46089    1541.2739    1425.0738    2.1998137    30.563199   0.13838352 
   93500   -947.24795    43.627517   -903.62043    1562.5795    986.50218    2.1820036    30.581437   0.14063061 
   93600   -948.20188    45.862947   -902.33893    1642.6444    -5941.955     2.166081    33.437937   0.11823137 
   93700   -947.84298    45.006842   -902.83614    1611.9819    436.97948    2.1793208     31.99485   0.13507673 
   93800   -953.42923    42.664592   -910.76463     1528.091    10008.267    2.2175184    28.697485   0.12501473 
   93900   -951.02157     48.19038   -902.83119    1726.0047   -5450.5028    2.1714671    31.128893    0.1343689 
   94000   -946.70145    44.143619   -902.55783    1581.0644   -9518.7232    2.1515488    27.999176    0.1368138 
   94100   -953.43167    49.071902   -904.35976    1757.5776    1249.7874    2.1895535    27.648677   0.12657598 
   94200   -954.25138    43.093746   -911.15763    1543.4617     12568.23    2.2244891    30.917926   0.12105727 
   94300    -947.1415    45.251821   -901.88967    1620.7561   -9993.5461    2.1524401    30.572596   0.14486216 
   94400   -946.91447     44.06619   -902.84828    1578.2911   -9334.9948    2.1530445     28.12293   0.14236325 
   94500   -948.04331    44.383083   -903.66022    1589.6411    7758.6927    2.1995693    31.346415   0.13766959 
   94600   -952.85786    43.186786   -909.67107    1546.7941     2819.851    2.1980448    26.153639   0.13054909 
   94700   -958.21775    47.260682   -910.95707    1692.7062   -7148.3385    2.1809295    28.783299   0.11286555 
   94800   -949.83924    44.802441    -905.0368     1604.661   -3078.8984    2.1763947    26.933262   0.13853153 
   94900   -947.61188    45.450421   -902.16146    1627.8692    2962.7776    2.1825108    29.195994   0.14478823 
   95000   -946.92612    45.136785   -901.78934     1616.636    955.23077    2.1772004    28.533833   0.13690531 
   95100   -951.99698    40.765775   -911.23121    1460.0822   -96.353318    2.1883607    27.652635   0.12529773 
   95200    -950.3356    45.034781   -905.30082    1612.9825   -4234.8364    2.1713664    28.059344   0.13225139 
   95300    -947.3235    45.630637   -901.69286    1634.3239    2515.7234    2.1818807    33.108424   0.15168176 
   95400   -945.84423    41.326945   -904.51729    1480.1813    3345.6855    2.1867126    29.693093   0.14528942 
   95500    -951.1606    39.891174   -911.26943    1428.7572   -131.61861    2.1858725    28.629831   0.12955695 
   95600   -949.40295     46.60479   -902.79816    1669.2146   -4882.4368    2.1657191     28.81625   0.12473546 
   95700   -947.91077    45.947058   -901.96371     1645.657    4253.9746    2.1883924    28.782017   0.12008609 
   95800   -950.02499    42.564828   -907.46016    1524.5178    5925.1713    2.2001724    31.153546   0.13112188 
   95900   -952.60574    42.505369   -910.10038    1522.3882    -7189.986    2.1768638    26.526731   0.13366383 
   96000   -948.97411    46.883113     -902.091    1679.1831   -9593.9749    2.1551469    29.294862   0.13923441 
   96100   -947.18657    44.479497   -902.70707    1593.0943    6173.0817    2.1928475     30.54715    0.1425084 
   96200   -948.66606    44.302554   -904.36351    1586.7568    10046.065    2.2063863    32.094215   0.13884341 
   96300   -945.01986    51.279411   -893.74045    1836.6425   -9507.5335    2.1419977    30.090253   0.14836008 
   96400   -945.54475    45.536974   -900.00778    1630.9693   -4456.1466    2.1609711     29.83076    0.1363928 
   96500    -948.9835    45.755765   -903.22773    1638.8056    6337.9536    2.1974215     24.40633   0.13527556 
   96600   -948.33122    44.824516    -903.5067    1605.4516    5719.1365    2.1927864    31.920101   0.12750509 
   96700   -943.01975      48.9889   -894.03085    1754.6047   -6672.0058    2.1457557    27.538321   0.12842861 
   96800    -947.9259    45.170411   -902.75549    1617.8403   -1198.0641    2.1773358    29.372297   0.12551391 
   96900   -946.13904    42.555061   -903.58398     1524.168    8128.1916    2.1994305     30.00174   0.14770569 
   97000   -948.68772    47.485263   -901.20246    1700.7499   -443.30926    2.1789342    29.257566    0.1326244 
   97100   -944.50284    50.306766   -894.19608    1801.8059   -12043.015    2.1393864       29.293   0.14217172 
   97200   -949.60301    44.532124   -905.07089    1594.9792     4973.968     2.194992    29.157229    0.1294718 
   97300   -948.17376    45.248348   -902.92541    1620.6317     14184.96    2.2157265    27.874964   0.13234682 
   97400   -945.71668    43.691771   -902.02491    1564.8808   -7947.9627    2.1543068    31.036061   0.14163047 
   97500    -944.8058    47.798568   -897.00723    1711.9714   -17336.261    2.1250463    28.653084     0.134534 
   97600   -952.26457    44.660566     -907.604    1599.5795     13039.02    2.2206534    26.099943    0.1227136 
   97700   -946.64045     43.54362   -903.09683    1559.5746     10413.88    2.2022527    31.397733   0.13918641 
   97800   -948.16777    46.555534   -901.61223    1667.4504     -8680.71    2.1574064    32.040783   0.12179818 
   97900   -950.73001    43.370822   -907.35919    1553.3855   -7543.9742    2.1682743    31.154952   0.11891553 
   98000   -947.52791    40.273087   -907.25483    1442.4359    8472.6322    2.2020363    29.943026   0.14044202 
   98100   -947.35771    46.809327   -900.54839    1676.5404    5389.7676    2.1881378    33.201854   0.11454295 
   98200   -947.07304    42.849396   -904.22364      1534.71   -6216.3308    2.1632227    31.605856   0.13909964 
   98300   -950.44452    40.715587   -909.72893    1458.2847   -4342.5237    2.1790402    31.283073   0.11942145 
   98400    -946.1011    45.400178   -900.70092    1626.0697    6809.9611    2.1888436    29.728042   0.12607138 
   98500   -948.45926    47.115287   -901.34397    1687.4987    4294.8364      2.18979    31.791775   0.12335272 
   98600   -952.17484    45.860179   -906.31466    1642.5453   -8342.9393    2.1676859    28.702948    0.1250829 
   98700   -947.31129    45.902539   -901.40875    1644.0625   -5357.0417    2.1653737    30.870849   0.12512982 
   98800    -947.7649    49.551341   -898.21356    1774.7493    3336.8394    2.1852091    34.276037   0.13381865 
   98900   -947.80485    43.989558   -903.81529    1575.5464    3289.6102    2.1847552    33.988286   0.12245401 
   99000   -948.71391     44.71437   -903.99954    1601.5066   -9365.9238    2.1591505    29.648701   0.13654873 
   99100   -942.98694    47.155464   -895.83148    1688.9377   -4747.2953    2.1550255    29.603952   0.14063955 
   99200   -951.86822    47.878534   -903.98968    1714.8355    12249.812    2.2162004     30.28012   0.11355824 
   99300   -948.39657    44.436786   -903.95979    1591.5645    3687.3108    2.1910645    31.047907   0.12850949 
   99400   -947.38851    47.649967   -899.73854     1706.649   -20123.949    2.1290583    30.049854   0.14005859 
   99500   -944.17686    44.094128   -900.08274    1579.2918   -2681.7982    2.1664976    29.727403   0.12925203 
   99600    -952.4661    46.385518   -906.08059     1661.361    15515.576    2.2288558    30.795002   0.12538265 
   99700   -947.26366    45.789751   -901.47391    1640.0228    2385.9818    2.1826547    30.659264   0.12587797 
   99800   -946.82128    45.768882    -901.0524    1639.2754   -9377.5898    2.1531949    32.650441    0.1171227 
   99900   -952.14224    42.586575   -909.55566    1525.2967   -606.10492    2.1899324    32.683896    0.1270997 
  100000   -944.48329    42.559238   -901.92405    1524.3176    7552.5981    2.1897137    32.905135   0.14191859 
  100100   -943.86916    42.457639   -901.41152    1520.6787    937.33749    2.1768926    28.842467   0.13375849 
  100200   -950.49584     42.06675   -908.42909    1506.6784   -4375.2738     2.174493    27.484911    0.1300241 
  100300   -947.65747    44.188606   -903.46886    1582.6756    618.15266    2.1796798    32.256899   0.11590631 
  100400   -947.85881    48.009738   -899.84907    1719.5347    5199.1201    2.1884311    29.798976   0.11625748 
  100500   -948.90678     42.87371   -906.03307    1535.5808   -2894.1385    2.1768105    31.080237   0.13334896 
  100600   -944.80757    43.385179   -901.42239    1553.8998   -5176.6544    2.1620932    27.859371   0.13690483 
  100700   -941.99696    43.677229   -898.31974    1564.3599    5590.2525    2.1810688    30.513274   0.14303675 
  100800   -950.61914    46.205558   -904.41358    1654.9155    5025.9851    2.1970763    30.105028   0.12028916 
  100900   -950.20938    46.343121   -903.86626    1659.8425    -4906.846    2.1700545    29.332725   0.11709766 
  101000   -939.60492     42.75734   -896.84758    1531.4129   -8267.1315    2.1446182     29.30535   0.15337013 
  101100   -949.06627    43.652599   -905.41367    1563.4778    7412.2003     2.203388    28.866514   0.13729013 
  101200   -949.39677    46.306385   -903.09039    1658.5268    11391.522    2.2107626     28.57062   0.12727892 
  101300   -945.06535    46.137108   -898.92824    1652.4639   -8676.4992    2.1490047    29.434183   0.13224842 
  101400   -944.77539    40.961038   -903.81435    1467.0759   -9858.3745    2.1487389    31.801055   0.11743823 
  101500   -949.05731    43.407404   -905.64991    1554.6958    8114.8793    2.2058613    27.347516   0.13164119 
  101600   -953.57074    53.723966   -899.84678    1924.1976    3734.9823    2.1959274    30.271779   0.12174307 
  101700   -948.99677    45.660423   -903.33634    1635.3907   -7079.6951    2.1606868    27.061748   0.11406511 
  101800   -949.65279    41.050821   -908.60197    1470.2915   -3125.2092     2.177214    32.184105   0.11952901 
  101900   -946.29545    46.293367   -900.00208    1658.0605    3735.1216     2.180538    30.113974     0.121715 
  102000   -948.33773    45.644421   -902.69331    1634.8176    2490.1829    2.1872872    28.652632   0.13726171 
  102100    -948.2358    39.792264   -908.44354    1425.2146    245.88551     2.182208    27.752623   0.13440494 
  102200   -944.71647    45.123762   -899.59271    1616.1695   -4334.6771    2.1628647    25.182917   0.12770403 
  102300   -946.09751    44.288843   -901.80867    1586.2658    5311.1842    2.1902151    29.974642   0.12710729 
  102400   -949.74615    43.341485   -906.40466    1552.3348    3956.0219    2.1944592    30.997318   0.12912703 
  102500   -943.62406    45.731234   -897.89282     1637.927   -5434.8887    2.1575378    27.009971   0.12415016 
  102600   -950.40884    48.596562   -901.81228    1740.5526   -4066.0059    2.1722219    29.575089   0.12989803 
  102700   -945.81902    40.665081   -905.15394    1456.4757     8071.411    2.1954889    28.273222   0.12910667 
  102800   -942.82933    44.606399   -898.22293    1597.6394    5487.2887    2.1792862    24.812544    0.1356664 
  102900   -944.41972    44.119214    -900.3005    1580.1902   -4521.7925    2.1608142    30.703389   0.13399352 
  103000   -948.14004    41.851302   -906.28874    1498.9619    -5959.084    2.1720186    27.888042   0.13036236 
  103100   -947.33718    47.594891   -899.74229    1704.6764    8656.9251     2.200724    26.293921   0.12155032 
  103200   -948.75048     48.29919   -900.45129    1729.9018    4384.1119    2.1923605    29.239746   0.12302845 
Loop time of 70.9373 on 1 procs for 100000 steps with 217 atoms

Performance: 365.393 ns/day, 0.066 hours/ns, 1409.695 timesteps/s
100.0% CPU use with 1 MPI tasks x no OpenMP threads

MPI task timing breakdown:
Section |  min time  |  avg time  |  max time  |%varavg| %total
---------------------------------------------------------------
Pair    | 68.639     | 68.639     | 68.639     |   0.0 | 96.76
Neigh   | 0.73479    | 0.73479    | 0.73479    |   0.0 |  1.04
Comm    | 0.44289    | 0.44289    | 0.44289    |   0.0 |  0.62
Output  | 0.03459    | 0.03459    | 0.03459    |   0.0 |  0.05
Modify  | 0.93179    | 0.93179    | 0.93179    |   0.0 |  1.31
Other   |            | 0.1543     |            |       |  0.22

Nlocal:    217 ave 217 max 217 min
Histogram: 1 0 0 0 0 0 0 0 0 0
Nghost:    953 ave 953 max 953 min
Histogram: 1 0 0 0 0 0 0 0 0 0
Neighs:    4109 ave 4109 max 4109 min
Histogram: 1 0 0 0 0 0 0 0 0 0
FullNghs:  8218 ave 8218 max 8218 min
Histogram: 1 0 0 0 0 0 0 0 0 0

Total # of neighbors = 8218
Ave neighs/atom = 37.871
Neighbor list builds = 1243
Dangerous builds = 5
Total wall time: 0:01:13
