LAMMPS (3 Mar 2020)

    # ---------- Initialize simulation ---------------------
    units metal
    atom_style atomic
    dimension  3
    boundary   p p p
    read_data /home/modeler/RemLabs/Lab4/ProblemEC1_v1_size_4/temp_2200/lammps.data
  orthogonal box = (0 0 0) to (16.36 16.36 16.36)
  1 by 1 by 1 MPI processor grid
  reading atoms ...
  256 atoms
  read_data CPU = 0.00106079 secs

    pair_style eam
    pair_coeff * * /usr/share/lammps-stable/potentials/Ag_u3.eam
Reading potential file /usr/share/lammps-stable/potentials/Ag_u3.eam with DATE: 2007-06-11

    velocity  all create 2200 87287 dist gaussian

    # ---------- Describe computed properties------------------
    compute msdall all msd
    thermo_style custom step pe ke etotal temp press density c_msdall[4]
    thermo 100

    # ---------- Specify ensemble  ---------------------
    #fix  1 all nve
    #fix  1 all nvt temp 2200 2200 0.25
    fix 1 all npt temp 2200 2200 0.25 tchain 2 iso 1.0 1.0 1.0 pchain 2

    # --------- Compute RDF ---------------
    compute rdfall all rdf 100 1 1
    fix 2 all ave/time 1 2500 2500 c_rdfall[*] file /home/modeler/RemLabs/Lab4/ProblemEC1_v1_size_4/temp_2200/lammps.rdf mode vector

    # --------- Run -------------
    timestep 0.005
    run 10000
Neighbor list info ...
  update every 1 steps, delay 10 steps, check yes
  max neighbors/atom: 2000, page size: 100000
  master list distance cutoff = 7.55
  ghost atom cutoff = 7.55
  binsize = 3.775, bins = 5 5 5
  2 neighbor lists, perpetual/occasional/extra = 1 1 0
  (1) pair eam, perpetual
      attributes: half, newton on
      pair build: half/bin/atomonly/newton
      stencil: half/bin/3d/newton
      bin: standard
  (2) compute rdf, occasional, copy from (1)
      attributes: half, newton on
      pair build: copy
      stencil: none
      bin: none
Per MPI rank memory allocation (min/avg/max) = 3.744 | 3.744 | 3.744 Mbytes
Step PotEng KinEng TotEng Temp Press Density c_msdall[4] 
       0       -729.6    72.514941   -657.08506         2200    17688.674    10.472245            0 
     100   -690.87257    38.202594   -652.66997    1159.0123    18399.028    9.9609972   0.12338855 
     200   -684.73747    38.147865   -646.58961    1157.3519    5001.3505     9.708124    0.1921756 
     300   -681.80405    41.287465   -640.51659    1252.6029   -5495.2606    9.5420444   0.23953955 
     400   -676.71679    42.206724   -634.51006    1280.4919    -5680.209    9.4264376   0.25567411 
     500   -670.05724    41.419969   -628.63727    1256.6228   -1943.3588    9.3624824   0.29183891 
     600   -668.16191    45.342342   -622.81957    1375.6221   -8900.7413    9.2272858   0.35557184 
     700   -663.27694    46.310982   -616.96595    1405.0092   -1847.4332    9.2171394   0.41442654 
     800   -660.68709    49.841574   -610.84551    1512.1223    1932.2436    9.2055685   0.47172845 
     900   -652.06384    47.104249   -604.95959    1429.0758    5538.2875    9.0802855   0.57993788 
    1000   -652.14479    53.650647   -598.49415    1627.6842    1707.5758    9.0257564   0.70403449 
    1100   -639.46657     47.66525   -591.80132    1446.0958    3612.3353    8.7939612    1.2412467 
    1200   -632.70973    47.706269   -585.00346    1447.3402    1358.1741    8.5638073    1.9922066 
    1300   -629.35399     51.36813   -577.98586    1558.4359    4567.2414    8.5255861    3.0393834 
    1400   -621.87293    50.640953   -571.23198    1536.3744    565.40314      8.24931    4.9140914 
    1500   -618.64597    54.062264    -564.5837    1640.1721    1553.5751    8.2075255    7.3678559 
    1600   -614.50086    56.198056   -558.30281    1704.9689   -5543.1961    8.0886223    9.5627586 
    1700   -611.16848    59.223164   -551.94532    1796.7464   -5108.6249     7.927663    11.650959 
    1800   -608.81953    64.324682   -544.49485    1951.5192   -4912.1777     7.846167    13.145144 
    1900   -599.02098    60.600999   -538.41998     1838.548   -1755.0179     7.713113     15.97174 
    2000    -597.7504    64.887103    -532.8633    1968.5823    2171.7481    7.7034608    19.190094 
    2100   -597.79234    72.569958   -525.22238    2201.6691    297.95669    7.6564264    22.521221 
    2200   -589.93704    69.628618   -520.30842    2112.4331   -7735.3296    7.4098848    26.552449 
    2300   -587.86344    69.701662   -518.16177    2114.6491   -3939.5623    7.4580795    30.348334 
    2400   -584.41828    71.260348   -513.15793    2161.9374    -7308.572    7.2917892    33.907141 
    2500   -584.19696    79.251913   -504.94505    2404.3901    1.9596394     7.286392    37.684451 
    2600   -583.50392    73.977583   -509.52634    2244.3745   -5204.3651    7.1182773    43.313505 
    2700   -581.34996    69.072807   -512.27715    2095.5705    2140.4163    7.2076566    45.442522 
    2800   -583.95593    77.802548   -506.15339    2360.4184    6705.3049    7.4186043    47.609101 
    2900   -583.91704    70.326032   -513.59101    2133.5916    498.25948    7.3584761    53.365413 
    3000   -589.56659    71.831688    -517.7349    2179.2711    592.18867    7.4539712    55.147072 
    3100   -584.88168    73.696293   -511.18539    2235.8405   -5694.1589    7.2968853    59.504344 
    3200   -594.66863     73.06311   -521.60552    2216.6307    4567.1437    7.5231584    60.883096 
    3300   -586.74147     64.42487    -522.3166    1954.5588   -2484.8288    7.4629263    64.312825 
    3400   -586.92122    69.927016    -516.9942     2121.486   -869.66132    7.3627065    69.220353 
    3500   -586.17219    78.047977   -508.12422    2367.8644    135.80415    7.3659402    72.607758 
    3600   -586.17052    69.420871   -516.74965    2106.1303   -3667.3633    7.2958559    76.864863 
    3700   -585.70142    70.693868   -515.00756    2144.7512    2612.3965     7.441687    78.401886 
    3800   -577.78202    77.037696   -500.74433    2337.2139   -222.75451    7.1243119     85.32479 
    3900   -583.47544    72.957151   -510.51829     2213.416   -3029.7183    7.1704542    87.805525 
    4000   -581.72761    73.383876   -508.34373    2226.3622    5908.1101    7.3167232    90.980003 
    4100   -583.31168    68.479274    -514.8324    2077.5636   -3453.8234    7.2275937    95.316359 
    4200     -588.254    73.397952   -514.85605    2226.7893    9438.2865    7.6036293    97.134321 
    4300   -588.95573    72.961956   -515.99378    2213.5618   -1406.6175    7.4131143    102.34724 
    4400   -595.39116    75.010526   -520.38064    2275.7125    2703.1563     7.604625    108.01978 
    4500   -580.25793    73.690712   -506.56721    2235.6712    -2478.391    7.1710959    115.15586 
    4600   -581.90204    65.610167   -516.29187     1990.519     8657.097    7.4214166    115.21863 
    4700   -578.16855    66.481529   -511.68702    2016.9549   -3094.3753    7.1827956     124.2691 
    4800   -576.37774    67.634999   -508.74274    2051.9495   -8488.4485     7.086854    129.14407 
    4900   -582.72421    77.717896   -505.00632    2357.8502    9415.6181    7.3993219    128.90168 
    5000   -585.85256    75.164105   -510.68846    2280.3718      2121.21    7.4083805    132.10499 
    5100   -582.29972    68.906424    -513.3933    2090.5227    2673.9319    7.3579645    137.31929 
    5200   -573.82167    74.406536   -499.41513    2257.3883   -929.48764    7.1370079    144.17804 
    5300    -582.6751    76.787189   -505.88791    2329.6139   -5977.2169    7.1039305    147.81096 
    5400   -580.14877     69.20475   -510.94402    2099.5735    6471.0858    7.1827424    150.68269 
    5500   -582.02903    72.689463   -509.33957    2205.2948    9357.0148    7.3362179    153.05186 
    5600   -591.66605    68.952859   -522.71319    2091.9315     2344.369    7.5197125     153.8996 
    5700   -593.30913    75.291102   -518.01803    2284.2248   -3710.5297    7.5030413    158.59733 
    5800   -579.13668     70.66662   -508.47006    2143.9246   -6565.2497    7.1189935    173.02784 
    5900    -586.1086    80.485494    -505.6231    2441.8152   -2627.7439    7.4107861     173.3107 
    6000   -579.43971    67.995033   -511.44467    2062.8724   -8403.8217    7.0292705    185.73456 
    6100   -582.75083    77.039307   -505.71152    2337.2628   -4863.9781    7.2298077    185.50701 
    6200   -586.80249    69.546965   -517.25553    2109.9558   -8052.7672    7.3511151    190.24906 
    6300   -594.40302    72.128909   -522.27411    2188.2883    1702.3157    7.5692349    191.96078 
    6400   -591.51416    76.882041   -514.63212    2332.4916   -2826.8061    7.3119454     198.5207 
    6500   -583.49063    75.435911   -508.05472    2288.6181    95.587841    7.2404319    206.57657 
    6600    -583.9047    69.001359   -514.90334    2093.4029   -8713.8341    7.2973342    213.81249 
    6700    -587.3852    75.595027   -511.79018    2293.4454    1383.3707    7.4289498    212.62928 
    6800    -576.5971    75.709215   -500.88788    2296.9097     11756.66    7.2850662    217.52735 
    6900   -580.17453    67.774442   -512.40008      2056.18    4664.9336    7.1175211    221.79751 
    7000   -582.98309    69.270495    -513.7126    2101.5681    -2124.666    7.1599786    227.47345 
    7100    -584.0685    78.134783   -505.93372     2370.498   -5836.4869    7.2829776    230.25565 
    7200   -587.27385    67.679921   -519.59393    2053.3124    4826.0266    7.3928406    234.56486 
    7300   -578.18435     68.60073   -509.58362    2081.2484   -1751.3604    7.2862081    240.98366 
    7400   -586.70696    71.299575   -515.40739    2163.1275   -2745.1206    7.3775043    244.37784 
    7500   -588.52007    75.808472    -512.7116     2299.921    3741.1574    7.4930155    244.76447 
    7600   -588.65832    67.054688   -521.60363    2034.3437   -9856.3688    7.2958392    253.97462 
    7700   -585.65264    73.974705   -511.67793    2244.2871     1569.759     7.541686    252.38438 
    7800   -587.23086    67.174551   -520.05631    2037.9802    894.99331    7.3478624    260.26629 
    7900   -583.99475    73.680823   -510.31392    2235.3712    4135.2503      7.41497    264.50849 
    8000   -584.10109    73.297352   -510.80374    2223.7372    711.31841    7.3727977    269.24592 
    8100   -586.40614    67.411633   -518.99451    2045.1729   -3852.2889    7.2836397    271.68231 
    8200   -579.87358    72.515465   -507.35812    2200.0159    646.54804    7.2956682    276.39837 
    8300   -581.54222     70.35846   -511.18376    2134.5754    1970.4756    7.1571438     282.0536 
    8400   -580.41106    74.683803   -505.72726    2265.8002    500.52154    7.2404982    283.09177 
    8500   -583.33175    72.863484   -510.46827    2210.5743   -545.15879    7.2166227    287.04455 
    8600   -584.34813    68.404389   -515.94374    2075.2917    8687.2469    7.3676355    286.79735 
    8700   -583.77735    79.990876   -503.78647    2426.8092   -1030.5904    7.1763313    294.74294 
    8800   -577.70126    68.919426   -508.78183    2090.9172    631.05994    7.0767821    302.99924 
    8900   -578.78238    76.332543   -502.44984    2315.8206    3932.5787    7.2325654    301.37102 
    9000   -572.86388    74.384033   -498.47985    2256.7056    1164.0253    7.0069499    311.08339 
    9100   -585.19587    75.233176    -509.9627    2282.4674    2631.2514    7.3264025    304.97955 
    9200   -584.00165    67.990194   -516.01145    2062.7256    3866.5791    7.2994135    312.02235 
    9300   -579.78298    75.797559   -503.98542      2299.59     861.2234    7.0382146    326.18589 
    9400   -580.38335    73.744589   -506.63876    2237.3058    -6281.618    7.0380344    329.14167 
    9500   -577.73733    73.410931    -504.3264     2227.183     8320.775    7.2895136    326.78113 
    9600   -582.10308    65.153439   -516.94965    1976.6625    1130.9204    7.3223602    326.67165 
    9700    -583.3424    71.227026   -512.11538    2160.9265    8637.6776    7.4248685     327.7288 
    9800   -578.55677    76.887575   -501.66919    2332.6595   -412.80013    7.2078546    339.72384 
    9900   -584.04055    69.863883   -514.17667    2119.5707   -5727.8422    7.2444824    343.66148 
   10000   -585.59307    72.401072     -513.192    2196.5454   -4497.4247    7.2971114    349.29888 
Loop time of 5.62499 on 1 procs for 10000 steps with 256 atoms

Performance: 768.002 ns/day, 0.031 hours/ns, 1777.781 timesteps/s
100.2% CPU use with 1 MPI tasks x no OpenMP threads

MPI task timing breakdown:
Section |  min time  |  avg time  |  max time  |%varavg| %total
---------------------------------------------------------------
Pair    | 3.2664     | 3.2664     | 3.2664     |   0.0 | 58.07
Neigh   | 0.34666    | 0.34666    | 0.34666    |   0.0 |  6.16
Comm    | 0.078309   | 0.078309   | 0.078309   |   0.0 |  1.39
Output  | 0.0028841  | 0.0028841  | 0.0028841  |   0.0 |  0.05
Modify  | 1.9166     | 1.9166     | 1.9166     |   0.0 | 34.07
Other   |            | 0.01414    |            |       |  0.25

Nlocal:    256 ave 256 max 256 min
Histogram: 1 0 0 0 0 0 0 0 0 0
Nghost:    1283 ave 1283 max 1283 min
Histogram: 1 0 0 0 0 0 0 0 0 0
Neighs:    9215 ave 9215 max 9215 min
Histogram: 1 0 0 0 0 0 0 0 0 0

Total # of neighbors = 9215
Ave neighs/atom = 35.9961
Neighbor list builds = 699
Dangerous builds = 7
    
Total wall time: 0:00:05
