LAMMPS (3 Mar 2020)

    # ---------- Initialize simulation ---------------------
    units metal
    atom_style atomic
    dimension  3
    boundary   p p p
    read_data /home/modeler/RemLabs/Lab4/Problem2A_size_7/temp_600/lammps.data
  orthogonal box = (0 0 0) to (28.63 28.63 28.63)
  1 by 1 by 1 MPI processor grid
  reading atoms ...
  1372 atoms
  read_data CPU = 0.00184105 secs

    pair_style eam
    pair_coeff * * /usr/share/lammps-stable/potentials/Ag_u3.eam
Reading potential file /usr/share/lammps-stable/potentials/Ag_u3.eam with DATE: 2007-06-11

    velocity  all create 600 87287 dist gaussian

    # ---------- Describe computed properties------------------
    compute msdall all msd
    thermo_style custom step pe ke etotal temp press density c_msdall[4]
    thermo 100

    # ---------- Specify ensemble  ---------------------
    #fix  1 all nve
    fix  1 all nvt temp 600 600 0.05

    # --------- Compute RDF ---------------
    compute rdfall all rdf 100 1 1
    fix 2 all ave/time 1 2500 2500 c_rdfall[*] file /home/modeler/RemLabs/Lab4/Problem2A_size_7/temp_600/lammps.rdf mode vector

    # --------- Run -------------
    timestep 0.001
    run 10000
Neighbor list info ...
  update every 1 steps, delay 10 steps, check yes
  max neighbors/atom: 2000, page size: 100000
  master list distance cutoff = 7.55
  ghost atom cutoff = 7.55
  binsize = 3.775, bins = 8 8 8
  2 neighbor lists, perpetual/occasional/extra = 1 1 0
  (1) pair eam, perpetual
      attributes: half, newton on
      pair build: half/bin/atomonly/newton
      stencil: half/bin/3d/newton
      bin: standard
  (2) compute rdf, occasional, copy from (1)
      attributes: half, newton on
      pair build: copy
      stencil: none
      bin: none
Per MPI rank memory allocation (min/avg/max) = 3.83 | 3.83 | 3.83 Mbytes
Step PotEng KinEng TotEng Temp Press Density c_msdall[4] 
       0      -3910.2     106.3294   -3803.8706          600    4839.5299    10.472245            0 
     100   -3846.4014    58.596351    -3787.805    330.64996    19707.877    10.472245  0.033660081 
     200   -3841.1496    93.548809   -3747.6007    527.88117    23103.686    10.472245  0.036245469 
     300   -3815.9283    109.92581   -3706.0025    620.29401    30634.649    10.472245   0.04887982 
     400   -3802.1032    118.93495   -3683.1682    671.13116    34859.431    10.472245  0.055090042 
     500   -3806.7329    112.18373   -3694.5492    633.03511    33285.903    10.472245  0.053841401 
     600   -3812.8269    107.55852   -3705.2684    606.93577    31547.881    10.472245  0.047444262 
     700   -3808.8177    111.07482   -3697.7429    626.77767    32876.842    10.472245  0.044777847 
     800   -3806.3624    113.02955   -3693.3329    637.80794    33592.541    10.472245  0.044869329 
     900   -3806.5962    101.70451   -3704.8917    573.90251    32755.086    10.472245  0.050187045 
    1000   -3803.6694    112.77821   -3690.8912    636.38963    34529.601    10.472245  0.048702204 
    1100   -3801.5711    99.220309   -3702.3508    559.88455    34200.825    10.472245  0.052614734 
    1200   -3805.7892    105.39212   -3700.3971    594.71108    33434.398    10.472245   0.05403238 
    1300   -3800.3284    107.27771   -3693.0507    605.35121    34847.511    10.472245  0.057307465 
    1400   -3801.9791    110.12447   -3691.8546    621.41502    34765.746    10.472245  0.051631529 
    1500   -3809.8634    104.01105   -3705.8523    586.91793    32192.176    10.472245  0.046670869 
    1600   -3808.1306    108.31293   -3699.8177     611.1928    33100.823    10.472245  0.045150869 
    1700   -3799.5877    104.37918   -3695.2085    588.99523    35096.284    10.472245  0.048471277 
    1800   -3803.7742    106.29966   -3697.4745    599.83222     34199.13    10.472245  0.048251914 
    1900   -3807.0203    103.78377   -3703.2365    585.63545    33024.152    10.472245  0.049185448 
    2000   -3801.8662    107.13618     -3694.73    604.55258    34738.416    10.472245  0.050708652 
    2100   -3801.5733    103.22246   -3698.3508    582.46806    34458.598    10.472245  0.052165044 
    2200   -3806.0405     104.6657   -3701.3748    590.61204     33415.43    10.472245  0.051783971 
    2300   -3802.6157    107.38419   -3695.2315    605.95204    34498.585    10.472245  0.050846471 
    2400   -3801.8758     106.9004   -3694.9754    603.22207    34782.348    10.472245  0.046548087 
    2500    -3807.128    103.81437   -3703.3136    585.80813     33197.32    10.472245  0.043215131 
    2600   -3805.1354    106.92554   -3698.2098    603.36396    33667.111    10.472245  0.045833349 
    2700   -3802.2017     103.1873   -3699.0144    582.26965    34365.702    10.472245  0.052206626 
    2800   -3808.3985    109.79242   -3698.6061    619.54131    33012.624    10.472245   0.05104238 
    2900   -3803.5397    102.72494   -3700.8147    579.66064    33980.722    10.472245  0.054810544 
    3000   -3799.6276    107.81987   -3691.8078    608.41054    35279.588    10.472245  0.051553118 
    3100   -3804.5704    105.72451   -3698.8459    596.58671    34083.801    10.472245  0.045255811 
    3200   -3805.8742    104.96336   -3700.9108    592.29167    33565.897    10.472245  0.043827512 
    3300   -3802.4121    106.41242   -3695.9997    600.46851    34488.242    10.472245  0.044881555 
    3400   -3801.7834    103.94272   -3697.8407    586.53234    34537.267    10.472245  0.048591774 
    3500   -3807.5837    108.88389   -3698.6998    614.41461    33174.086    10.472245   0.04853215 
    3600   -3803.5393    104.75989   -3698.7794    591.14351    34001.716    10.472245  0.051910326 
    3700   -3804.3244    109.35395   -3694.9705    617.06709    33967.152    10.472245  0.052810785 
    3800   -3808.9941    110.66591   -3698.3282    624.47024    32886.138    10.472245  0.047604483 
    3900   -3808.9155    104.58823   -3704.3273     590.1749    32402.759    10.472245  0.044462931 
    4000   -3806.6586    109.46626   -3697.1924    617.70084    33482.551    10.472245  0.043787633 
    4100   -3805.2571    106.75369   -3698.5034    602.39425    33502.568    10.472245  0.045481128 
    4200   -3806.5675    106.78148   -3699.7861    602.55102    33345.628    10.472245  0.046450069 
    4300    -3802.189      103.583    -3698.606    584.50254    34394.539    10.472245  0.049941027 
    4400   -3803.5701    110.49262   -3693.0774    623.49243    34276.057    10.472245  0.049532023 
    4500   -3804.6391    106.07636   -3698.5627    598.57217    33971.239    10.472245  0.049387474 
    4600   -3804.5166    108.83202   -3695.6845    614.12192    34070.203    10.472245  0.046815269 
    4700   -3807.3781     103.7433   -3703.6348    585.40709    33008.936    10.472245  0.044659448 
    4800   -3807.9336    108.38199   -3699.5516    611.58246    33123.198    10.472245  0.042808743 
    4900   -3805.2216    107.34173   -3697.8799    605.71245    33732.432    10.472245  0.045117389 
    5000   -3805.2417    105.71569    -3699.526    596.53697    33718.189    10.472245  0.047222856 
    5100   -3805.3268    108.19228   -3697.1346    610.51195    33708.147    10.472245   0.05008723 
    5200   -3799.1214    106.55474   -3692.5666    601.27158    35260.348    10.472245  0.054439426 
    5300   -3800.4687    108.50165   -3691.9671    612.25767    35085.882    10.472245  0.052586259 
    5400   -3803.2937    104.44376   -3698.8499    589.35965    34203.904    10.472245  0.049193164 
    5500   -3804.9726    103.74787   -3701.2247    585.43285    33691.632    10.472245  0.046085874 
    5600   -3806.9627    103.01516   -3703.9475    581.29829    33109.137    10.472245  0.045052908 
    5700   -3808.6725    112.51344   -3696.1591     634.8956    32985.295    10.472245   0.04299015 
    5800   -3806.5769    106.54256   -3700.0343    601.20287      33323.2    10.472245  0.046950011 
    5900   -3802.8739     106.2089    -3696.665    599.32006     34222.97    10.472245  0.050897014 
    6000   -3799.2208    109.12664   -3690.0942     615.7844    35250.586    10.472245  0.052537341 
    6100   -3805.2938    106.77936   -3698.5145     602.5391    33751.086    10.472245  0.048274047 
    6200   -3809.6164    106.22404   -3703.3923    599.40549     32335.46    10.472245  0.043787202 
    6300   -3807.5741    108.11423   -3699.4599    610.07152    33108.874    10.472245  0.043853466 
    6400   -3805.4179    109.66595    -3695.752    618.82764    33740.688    10.472245  0.044462544 
    6500   -3807.3362    107.15914    -3700.177    604.68209    33125.051    10.472245  0.044998575 
    6600   -3807.9184    104.01189   -3703.9065     586.9227    32877.026    10.472245   0.04584771 
    6700   -3802.3055    104.97699   -3697.3285    592.36862    34321.287    10.472245  0.048796304 
    6800   -3803.6263     106.4139   -3697.2124    600.47685    34147.856    10.472245  0.051415259 
    6900    -3806.108    108.98533   -3697.1227      614.987    33542.037    10.472245  0.050709326 
    7000    -3805.372    109.20956   -3696.1625     616.2523     33833.76    10.472245  0.046841837 
    7100     -3807.39    105.21511   -3702.1749    593.71227    33128.572    10.472245  0.043676838 
    7200   -3804.3186    104.93371   -3699.3849    592.12435    33874.883    10.472245   0.04465703 
    7300   -3804.0742    108.19611   -3695.8781    610.53359    34114.599    10.472245   0.04474603 
    7400   -3804.5905    105.62864   -3698.9618    596.04572    33818.676    10.472245  0.045138562 
    7500   -3806.9429    106.82598    -3700.117    602.80215    33231.611    10.472245  0.046119618 
    7600   -3804.9521     109.5439   -3695.4082    618.13894    33865.448    10.472245  0.048997977 
    7700   -3803.4477    108.77142   -3694.6762    613.77997    34279.053    10.472245  0.048908002 
    7800    -3808.152    106.39056   -3701.7615    600.34517    33047.384    10.472245  0.046575274 
    7900   -3805.0962    104.65216    -3700.444    590.53563    33599.413    10.472245  0.047554349 
    8000   -3804.1506    109.07275   -3695.0778    615.48034    34058.687    10.472245  0.046077213 
    8100   -3806.5108    105.19622   -3701.3145    593.60568    33398.196    10.472245  0.044709844 
    8200   -3807.4474    107.72943    -3699.718     607.9002    33283.772    10.472245  0.042800146 
    8300   -3803.2553    104.02938   -3699.2259     587.0214    34294.896    10.472245   0.04622784 
    8400   -3802.6764    107.20504   -3695.4714    604.94113    34449.105    10.472245   0.04767437 
    8500   -3804.4917    100.34797   -3704.1438    566.24774    33663.765    10.472245  0.048477715 
    8600   -3803.9182    102.76895   -3701.1492    579.90898    34034.494    10.472245  0.046290338 
    8700   -3803.1092    105.52714    -3697.582    595.47301    34175.739    10.472245  0.046499303 
    8800   -3803.5324     113.4826   -3690.0498    640.36442    34727.203    10.472245  0.044005462 
    8900   -3801.6666    104.04398   -3697.6226    587.10376    34624.512    10.472245  0.044885845 
    9000   -3804.3772    102.30441   -3702.0728    577.28764    33862.263    10.472245  0.044459534 
    9100    -3805.736    107.70797    -3698.028    607.77906    33725.736    10.472245  0.044931396 
    9200   -3796.9062    107.88561   -3689.0206    608.78148    36137.252    10.472245  0.049100179 
    9300   -3803.0404    107.01222   -3696.0282    603.85306    34443.733    10.472245  0.048084458 
    9400   -3802.6529     103.6368   -3699.0161    584.80612    34283.428    10.472245  0.047089686 
    9500   -3802.9905    104.64999   -3698.3405    590.52336    34371.052    10.472245  0.044488796 
    9600   -3804.2589    99.445569   -3704.8133    561.15565    33699.981    10.472245  0.044886546 
    9700   -3803.6326    105.81697   -3697.8157    597.10846    34243.468    10.472245  0.044580545 
    9800   -3804.2398    106.02236   -3698.2175    598.26743    34113.823    10.472245  0.046037935 
    9900   -3805.6837    103.97262    -3701.711     586.7011    33594.609    10.472245  0.046421311 
   10000   -3801.2504    104.19383   -3697.0566    587.94932    34749.318    10.472245  0.047999626 
Loop time of 24.4328 on 1 procs for 10000 steps with 1372 atoms

Performance: 35.362 ns/day, 0.679 hours/ns, 409.286 timesteps/s
100.0% CPU use with 1 MPI tasks x no OpenMP threads

MPI task timing breakdown:
Section |  min time  |  avg time  |  max time  |%varavg| %total
---------------------------------------------------------------
Pair    | 16.702     | 16.702     | 16.702     |   0.0 | 68.36
Neigh   | 0          | 0          | 0          |   0.0 |  0.00
Comm    | 0.16399    | 0.16399    | 0.16399    |   0.0 |  0.67
Output  | 0.0049166  | 0.0049166  | 0.0049166  |   0.0 |  0.02
Modify  | 7.4878     | 7.4878     | 7.4878     |   0.0 | 30.65
Other   |            | 0.07364    |            |       |  0.30

Nlocal:    1372 ave 1372 max 1372 min
Histogram: 1 0 0 0 0 0 0 0 0 0
Nghost:    3258 ave 3258 max 3258 min
Histogram: 1 0 0 0 0 0 0 0 0 0
Neighs:    58996 ave 58996 max 58996 min
Histogram: 1 0 0 0 0 0 0 0 0 0

Total # of neighbors = 58996
Ave neighs/atom = 43
Neighbor list builds = 0
Dangerous builds = 0
    
Total wall time: 0:00:24
