LAMMPS (3 Mar 2020)

# ---------- 1. Initialize simulation ----------
units metal
atom_style atomic
dimension 3
boundary p p p
read_data /home/modeler/RemLabs/Project/Si_3x3x3_supercell_MD/1800/20201204-034102/lammps.data
  orthogonal box = (0 0 0) to (17.469 17.469 17.469)
  1 by 1 by 1 MPI processor grid
  reading atoms ...
  217 atoms
  read_data CPU = 0.00104007 secs

pair_style meam/c
pair_coeff * * library.meam Li Si LiSi.meam Li Si
Reading potential file library.meam with DATE: 2012-06-29
Reading potential file LiSi.meam with DATE: 2020-11-07

group Li type 1
1 atoms in group Li

velocity all create 1800 3320 dist gaussian

# ---------- 2. Describe computed properties----------
compute msdli Li msd
thermo_style custom step pe ke etotal temp press density c_msdli[4]
thermo 100

# ---------- 3. Specify ensemble  ----------
#fix 1 all nve
fix 1 all nvt temp 1800 1800 0.025
#fix 1 all npt temp 1800 1800 0.025 tchain 2 iso 1.0 1.0 1.0 pchain 2

# ---------- 4. Run -------------
timestep 0.0005
run 2000
Neighbor list info ...
  update every 1 steps, delay 10 steps, check yes
  max neighbors/atom: 2000, page size: 100000
  master list distance cutoff = 6
  ghost atom cutoff = 6
  binsize = 3, bins = 6 6 6
  2 neighbor lists, perpetual/occasional/extra = 2 0 0
  (1) pair meam/c, perpetual
      attributes: full, newton on
      pair build: full/bin/atomonly
      stencil: full/bin/3d
      bin: standard
  (2) pair meam/c, perpetual, half/full from (1)
      attributes: half, newton on
      pair build: halffull/newton
      stencil: none
      bin: none
Per MPI rank memory allocation (min/avg/max) = 9.266 | 9.266 | 9.266 Mbytes
Step PotEng KinEng TotEng Temp Press Density c_msdli[4] 
       0   -951.06911    50.256344   -900.81276         1800    -114182.3    1.8918427            0 
     100    -914.4565    27.022325   -887.43417    967.84168   -82423.869    1.8918427   0.13684878 
     200   -912.77345    51.286623   -861.48683    1836.9008   -70394.684    1.8918427  0.089895256 
     300   -897.64358    50.415956   -847.22762    1805.7167   -58782.012    1.8918427   0.50375986 
     400   -904.23226    52.534384   -851.69787    1881.5911   -64744.447    1.8918427   0.45521412 
     500   -909.62932    51.581329   -858.04799    1847.4561   -70309.466    1.8918427   0.19197894 
     600   -903.04318    48.772259   -854.27092    1746.8454   -62598.712    1.8918427   0.50812641 
     700   -902.46963    47.733942   -854.73569    1709.6567   -61852.385    1.8918427   0.33980304 
     800   -901.00606    54.495487   -846.51057    1951.8307   -60684.075    1.8918427   0.23603783 
     900   -906.13462    47.896979   -858.23764    1715.4961   -64933.843    1.8918427   0.11248362 
    1000   -902.99054    50.365312   -852.62523    1803.9028   -63719.258    1.8918427   0.24530573 
    1100   -904.42976    52.447646   -851.98211    1878.4845   -61837.131    1.8918427   0.26959801 
    1200   -907.33973    49.614092   -857.72564    1776.9968    -66344.21    1.8918427  0.016642311 
    1300   -904.58557    53.750973   -850.83459    1925.1649   -65320.717    1.8918427   0.32340406 
    1400   -901.18257    48.299658   -852.88291    1729.9186   -60076.692    1.8918427   0.32592256 
    1500   -904.97261    43.619538   -861.35307    1562.2937   -67499.903    1.8918427  0.069174222 
    1600   -913.50516    52.747062   -860.75809    1889.2085   -72913.921    1.8918427   0.19142934 
    1700   -902.45533    50.193201   -852.26212    1797.7384   -65238.808    1.8918427   0.13929836 
    1800   -906.19843     53.08127   -853.11715    1901.1786   -64913.306    1.8918427   0.13708288 
    1900   -904.72632    51.511024   -853.21529    1844.9381   -65356.601    1.8918427   0.44675551 
    2000   -903.85066    48.340785   -855.50987    1731.3916   -63408.817    1.8918427   0.30432895 
Loop time of 1.07447 on 1 procs for 2000 steps with 217 atoms

Performance: 80.412 ns/day, 0.298 hours/ns, 1861.388 timesteps/s
100.0% CPU use with 1 MPI tasks x no OpenMP threads

MPI task timing breakdown:
Section |  min time  |  avg time  |  max time  |%varavg| %total
---------------------------------------------------------------
Pair    | 1.0486     | 1.0486     | 1.0486     |   0.0 | 97.60
Neigh   | 0.0060871  | 0.0060871  | 0.0060871  |   0.0 |  0.57
Comm    | 0.0083092  | 0.0083092  | 0.0083092  |   0.0 |  0.77
Output  | 0.0005612  | 0.0005612  | 0.0005612  |   0.0 |  0.05
Modify  | 0.0083077  | 0.0083077  | 0.0083077  |   0.0 |  0.77
Other   |            | 0.002574   |            |       |  0.24

Nlocal:    217 ave 217 max 217 min
Histogram: 1 0 0 0 0 0 0 0 0 0
Nghost:    920 ave 920 max 920 min
Histogram: 1 0 0 0 0 0 0 0 0 0
Neighs:    3615 ave 3615 max 3615 min
Histogram: 1 0 0 0 0 0 0 0 0 0
FullNghs:  7230 ave 7230 max 7230 min
Histogram: 1 0 0 0 0 0 0 0 0 0

Total # of neighbors = 7230
Ave neighs/atom = 33.318
Neighbor list builds = 11
Dangerous builds = 0
Total wall time: 0:00:01
