LAMMPS (3 Mar 2020)

# ---------- 1. Initialize simulation ----------
units metal
atom_style atomic
dimension 3
boundary p p p
read_data /home/modeler/RemLabs/Project/arrhenius_4/T1700.0/n3_T1700.0_timestep3.000000e-03_eqsteps3200_time600_rseed3335/20201205-141451/lammps.data
  orthogonal box = (0 0 0) to (17.469 17.469 17.469)
  1 by 1 by 1 MPI processor grid
  reading atoms ...
  217 atoms
  read_data CPU = 0.00102894 secs

pair_style meam/c
pair_coeff * * library.meam Li Si LiSi.meam Li Si
Reading potential file library.meam with DATE: 2012-06-29
Reading potential file LiSi.meam with DATE: 2020-11-07

group Li type 1
1 atoms in group Li
group Si type 2
216 atoms in group Si

velocity all create 1700.0 3335 dist gaussian

# ---------- 2. Specify equilibration ensemble  ----------
fix 1 all npt temp 1700.0 1700.0 0.15 tchain 2 iso 1.0 1.0 1.0 pchain 2
# fix 1 all nvt temp 1700.0 1700.0 0.15

# ---------- 3. Run equilibration -------------
timestep 0.003
run 3200
Neighbor list info ...
  update every 1 steps, delay 10 steps, check yes
  max neighbors/atom: 2000, page size: 100000
  master list distance cutoff = 6
  ghost atom cutoff = 6
  binsize = 3, bins = 6 6 6
  2 neighbor lists, perpetual/occasional/extra = 2 0 0
  (1) pair meam/c, perpetual
      attributes: full, newton on
      pair build: full/bin/atomonly
      stencil: full/bin/3d
      bin: standard
  (2) pair meam/c, perpetual, half/full from (1)
      attributes: half, newton on
      pair build: halffull/newton
      stencil: none
      bin: none
Per MPI rank memory allocation (min/avg/max) = 8.895 | 8.895 | 8.895 Mbytes
Step Temp E_pair E_mol TotEng Press Volume 
       0         1700   -951.04357            0   -903.57924   -114721.17    5330.9442 
    3200    1684.8472     -945.263            0   -898.22175   -10089.751         4699 
Loop time of 2.27498 on 1 procs for 3200 steps with 217 atoms

Performance: 364.592 ns/day, 0.066 hours/ns, 1406.604 timesteps/s
100.0% CPU use with 1 MPI tasks x no OpenMP threads

MPI task timing breakdown:
Section |  min time  |  avg time  |  max time  |%varavg| %total
---------------------------------------------------------------
Pair    | 2.1897     | 2.1897     | 2.1897     |   0.0 | 96.25
Neigh   | 0.036238   | 0.036238   | 0.036238   |   0.0 |  1.59
Comm    | 0.014531   | 0.014531   | 0.014531   |   0.0 |  0.64
Output  | 2.704e-05  | 2.704e-05  | 2.704e-05  |   0.0 |  0.00
Modify  | 0.02971    | 0.02971    | 0.02971    |   0.0 |  1.31
Other   |            | 0.004792   |            |       |  0.21

Nlocal:    217 ave 217 max 217 min
Histogram: 1 0 0 0 0 0 0 0 0 0
Nghost:    957 ave 957 max 957 min
Histogram: 1 0 0 0 0 0 0 0 0 0
Neighs:    4209 ave 4209 max 4209 min
Histogram: 1 0 0 0 0 0 0 0 0 0
FullNghs:  8418 ave 8418 max 8418 min
Histogram: 1 0 0 0 0 0 0 0 0 0

Total # of neighbors = 8418
Ave neighs/atom = 38.7926
Neighbor list builds = 61
Dangerous builds = 0

# ---------- 4. Describe computed properties----------
compute msdli Li msd
compute msdsi Si msd
thermo_style custom step pe ke etotal temp press density c_msdli[4] c_msdsi[4]
thermo 100

# ---------- 3. Run production -------------
timestep 0.003
run 200000
Per MPI rank memory allocation (min/avg/max) = 9.664 | 9.664 | 9.664 Mbytes
Step PotEng KinEng TotEng Temp Press Density c_msdli[4] c_msdsi[4] 
    3200     -945.263    47.041256   -898.22175    1684.8472   -10089.751    2.1462669            0 1.0052998e-31 
    3300   -944.66918    46.824781    -897.8444    1677.0939    5693.1222    2.1908087  0.014213268   0.12108623 
    3400    -940.3437     52.51962   -887.82408    1881.0623    3561.5729    2.1670643   0.33093732   0.10730573 
    3500   -945.08299    48.930964   -896.15202    1752.5297   -6770.3426    2.1542265    1.0369541   0.12391536 
    3600   -945.43445    47.059264   -898.37519    1685.4922   -3677.0147    2.1687818   0.84048176   0.15599211 
    3700   -940.86705    48.067509   -892.79954    1721.6039    9311.4395    2.1865607   0.76940986   0.12489738 
    3800   -939.78006     48.68093   -891.09913    1743.5744    -2500.323     2.154015   0.45933103   0.14030064 
    3900   -941.63898    42.259347   -899.37963    1513.5766   -5139.1446    2.1575513   0.58873507   0.12956459 
    4000    -943.9774    48.349579   -895.62782    1731.7066    7208.9519    2.1861897   0.28513725   0.10995164 
    4100   -940.65964     50.34228   -890.31736    1803.0779    3928.8669    2.1700894   0.18384209   0.10709983 
    4200   -941.45389    49.754858   -891.69904    1782.0386   -11717.139    2.1332937    5.7296208   0.13518225 
    4300   -945.46649    47.029688    -898.4368    1684.4329    -1156.129    2.1717361   0.55254947   0.13310067 
    4400   -939.68221    45.764248   -893.91796    1639.1094    10646.629      2.19329   0.73831695   0.17250135 
    4500   -943.34853    48.292836    -895.0557    1729.6742   -2444.8851    2.1628039   0.49630682   0.14598485 
    4600   -946.27944    41.673634   -904.60581    1492.5985   -8498.5255    2.1566897   0.18199559   0.13680192 
    4700   -943.69886    45.492335   -898.20653    1629.3705    1944.8715    2.1780647   0.50851202   0.13065099 
    4800   -940.84847    47.330825   -893.51764    1695.2185    10155.693    2.1879575   0.16700671   0.14340958 
    4900   -942.45121    41.840763   -900.61045    1498.5844   -4476.7749    2.1590935   0.33394267   0.12873107 
    5000   -948.54184    48.120955   -900.42088    1723.5181   -8725.5962    2.1560544  0.085616176   0.11336596 
    5100   -942.50216    49.582889   -892.91927    1775.8793    8624.4321    2.1842245   0.51675758   0.11735573 
    5200   -942.23098    45.111583   -897.11939    1615.7333    2891.9156    2.1735646   0.75929459   0.12404778 
    5300   -946.55932    44.079102   -902.48022    1578.7536   -9027.1002    2.1554817   0.28907155   0.12204171 
    5400   -946.60594    51.199101   -895.40683    1833.7661    323.44895    2.1727328   0.32628074   0.10982321 
    5500   -946.72668    53.274864   -893.45182    1908.1124    7003.4391    2.1887526     0.342616   0.14293729 
    5600   -943.85568    45.128725   -898.72695    1616.3473   -6365.6438    2.1510224   0.35211435    0.1138228 
    5700   -943.53443    47.987968   -895.54646     1718.755   -5044.6555    2.1474282   0.37031155   0.12736264 
    5800   -942.10514    53.582998   -888.52214    1919.1487    3505.9096    2.1708529   0.57179798   0.13681435 
    5900   -943.53116    47.376383   -896.15478    1696.8502     2898.964    2.1758344   0.34681252   0.12944131 
    6000   -947.65287    49.034602   -898.61827    1756.2416   -9022.4506    2.1516399   0.19017459    0.1248425 
    6100   -937.68493    47.033505   -890.65143    1684.5696    3108.2513    2.1606088   0.78846717    0.1334179 
    6200    -942.2866    49.071882   -893.21472    1757.5769    7896.2209    2.1803069   0.37906208   0.12978949 
    6300   -945.81721    47.165319   -898.65189    1689.2907   -5178.1993    2.1585172   0.33518065   0.11865439 
    6400   -943.11499    46.830308   -896.28468    1677.2918     -2944.04     2.159299    0.8129434   0.12804312 
    6500   -940.68693    51.760961   -888.92597    1853.8899    10359.179    2.1809902   0.20961123   0.13144763 
    6600   -942.45018    45.855987   -896.59419    1642.3951   -906.99585    2.1673537   0.43256079   0.14243849 
    6700   -944.01943    44.893846   -899.12559    1607.9348   -13261.697    2.1388029  0.048319434   0.13048618 
    6800   -941.45725    47.390542   -894.06671    1697.3574     7424.343    2.1839233   0.68218667   0.16154015 
    6900   -939.84795    48.885541   -890.96241    1750.9028    9271.4252    2.1881665   0.43573094   0.16263186 
    7000    -934.6943    51.234031   -883.46027    1835.0172   -9157.8305     2.127424   0.10811421   0.14718437 
    7100   -943.04059    47.438359   -895.60223      1699.07    865.66722    2.1733688   0.43247516   0.13763882 
    7200   -942.54431    46.435945   -896.10837    1663.1672    4745.3511     2.179824   0.64416093   0.15675532 
    7300   -945.48248    48.569403   -896.91308    1739.5799   -2595.1758    2.1688301   0.31909664   0.12885709 
    7400   -940.51736    44.786312   -895.73105    1604.0833    403.77497    2.1686054    0.5766308    0.1461176 
    7500   -934.04944    48.758224   -885.29121    1746.3428   -699.27076    2.1486009    0.3794603   0.14387863 
    7600   -944.25469    49.989495    -894.2652    1790.4424    5456.8778     2.178984   0.41141098   0.13299497 
    7700   -943.82436    46.722075   -897.10229    1673.4153   -500.63668    2.1694857   0.20338959    0.1347597 
    7800   -944.34843    46.869282   -897.47914    1678.6877   -4035.2568    2.1590794   0.50527632   0.12863487 
    7900   -940.30993    53.505256   -886.80468    1916.3642    2564.2627    2.1616466   0.27891954   0.13303492 
    8000   -942.56378    49.454956   -893.10882    1771.2972    5902.8428    2.1813277   0.84503565   0.12482901 
    8100   -946.24895     48.46547   -897.78348    1735.8574   -9398.4584    2.1491386   0.48793063   0.12027927 
    8200   -942.54702    46.826411   -895.72061    1677.1522   -2081.4361    2.1591046   0.49781174   0.12843427 
    8300   -935.35618    49.074347   -886.28183    1757.6651    15660.469    2.1890704   0.28659275   0.14071512 
    8400   -944.13604    49.815262   -894.32077     1784.202   -2120.7908    2.1663484   0.40715996   0.12788467 
    8500   -942.99788    44.515644   -898.48224    1594.3889   -16006.409      2.13144   0.62781998   0.12786007 
    8600   -940.10371    45.848051   -894.25566    1642.1109    9399.1257    2.1834637   0.37826418   0.13759995 
    8700   -942.11341     49.48616   -892.62725    1772.4148    6754.9823    2.1864596   0.73760777   0.14657416 
    8800   -948.41268    45.536328   -902.87635    1630.9461   -5880.8976    2.1708513   0.32150252    0.1503444 
    8900   -945.32916    46.373278   -898.95588    1660.9227   -3922.8929    2.1638366   0.47611058   0.12721145 
    9000   -945.50904    50.656713   -894.85233    1814.3397    1832.9683    2.1762116   0.47940875   0.12633297 
    9100    -943.9616    46.185749   -897.77586     1654.206    2053.5225    2.1743068   0.80265831     0.111371 
    9200   -947.77459    43.708677   -904.06591    1565.4863    -1742.321    2.1784021   0.20997387   0.11184504 
    9300   -942.09842    45.925989   -896.17243    1644.9024     880.6773    2.1663577   0.41157331    0.1136562 
    9400    -944.6515    49.634434   -895.01706    1777.7254     3995.945    2.1752387   0.55271104   0.11222367 
    9500   -945.54698    42.082987   -903.46399      1507.26     1882.463    2.1809029   0.22127753   0.13486424 
    9600   -943.00175    45.610395   -897.39135    1633.5989     -2921.53    2.1621788   0.32549909   0.12304715 
    9700   -943.74664    49.323418   -894.42322    1766.5859    3817.1443    2.1770961   0.66582106   0.13901379 
    9800   -946.07338    46.772055   -899.30133    1675.2054    902.63718    2.1800492   0.57939326    0.1351319 
    9900    -944.3183    43.518084   -900.80021    1558.6599   -6430.3513    2.1588707   0.22390458   0.12500904 
   10000    -939.1318     47.44779   -891.68401    1699.4078   -2035.0553    2.1541384     0.220284   0.11674148 
   10100   -941.78011    46.068071   -895.71204    1649.9912    10816.281    2.1949961   0.52249178   0.12163281 
   10200    -945.9602    47.009347   -898.95085    1683.7043   -1915.7218    2.1723033    0.2545669   0.10542528 
   10300   -936.41994    46.471147   -889.94879     1664.428   -9291.2116    2.1300454   0.32063098   0.14288663 
   10400   -942.18198    48.427956   -893.75403    1734.5138    5520.2783    2.1835973   0.40755516   0.12939759 
   10500   -941.15384    43.757474   -897.39637     1567.234    8161.8928    2.1920133   0.25601829   0.14531692 
   10600   -944.25074    47.537608   -896.71313    1702.6247   -8216.0786    2.1504091   0.56352722   0.13502057 
   10700   -937.55925    48.795922   -888.76333     1747.693   -4572.9225    2.1457303   0.39990069   0.14893806 
   10800   -944.65573    46.094774   -898.56095    1650.9477    12844.587    2.2038721   0.33616255   0.14151133 
   10900   -946.48276    48.333592   -898.14917     1731.134   -4659.1705    2.1640037   0.29716255   0.11839943 
   11000   -944.90121     49.95165   -894.94956     1789.087   -8636.4847    2.1469025   0.11161913    0.1097733 
   11100   -945.49125     51.05356   -894.43769    1828.5534    4832.6458    2.1812297   0.51157094   0.10137987 
   11200   -947.40134    43.894194   -903.50715    1572.1308    7656.9152    2.1997696    0.1879174   0.11148199 
   11300   -943.99949    46.148826   -897.85066    1652.8836   -5616.6797    2.1603331   0.88272864   0.15296649 
   11400   -945.85309    51.009044   -894.84405     1826.959   -4372.4855    2.1633419    0.5979619   0.15448111 
   11500   -947.55068    46.831023   -900.71965    1677.3174    2044.8734    2.1851001   0.66816257   0.13574967 
   11600   -945.83003    43.376764   -902.45327    1553.5984    437.66789    2.1830641   0.28937969   0.14187643 
   11700   -944.32476    48.865321   -895.45944    1750.1786   -2758.1279    2.1644119   0.36814449   0.12497418 
   11800    -943.5741    47.024551   -896.54955    1684.2489   -991.22689    2.1697811  0.068822747   0.13407202 
   11900   -949.50874    44.931883   -904.57686    1609.2971    2032.0052    2.1896353    0.3390707    0.1288503 
   12000   -945.19445    49.545663   -895.64878     1774.546   -2742.0928    2.1626671   0.30357049   0.11961559 
   12100   -944.13136    48.915918   -895.21544    1751.9908    1185.5975    2.1711428   0.50238747   0.12525011 
   12200   -947.64077    47.953753   -899.68702    1717.5295    480.37959     2.177443   0.67924793   0.12952472 
   12300   -948.78702     44.38256   -904.40446    1589.6223   -3020.2382    2.1719837   0.56040741   0.13651393 
   12400   -940.52522    46.786238   -893.73898    1675.7134   -1893.8433    2.1533812   0.62959382   0.13287865 
   12500   -942.90689    47.706047   -895.20084    1708.6576    11153.344    2.1938823   0.52106553   0.14972513 
   12600   -946.64443    48.214322   -898.43011    1726.8622   -306.93858    2.1725424   0.27589572   0.11843812 
   12700    -939.5643     48.17687   -891.38743    1725.5208   -10601.385    2.1298864   0.13468323   0.12172474 
   12800   -942.29901    51.669044   -890.62997    1850.5978    2771.0208    2.1698193     0.534359   0.12971684 
   12900   -943.71084    47.699567   -896.01127    1708.4255    8532.9848    2.1923394   0.49784148   0.13903658 
   13000   -946.90249    48.366413   -898.53608    1732.3095   -7567.0632    2.1574405   0.21135858   0.13846926 
   13100   -939.07103    49.441976   -889.62905    1770.8323   -4556.1882    2.1421296   0.12504134   0.13158112 
   13200   -945.80976    52.129254    -893.6805    1867.0808    7601.6417    2.1855519   0.37305291   0.12228491 
   13300   -946.11046     48.00959   -898.10087    1719.5294   -775.91825    2.1701461   0.18456556   0.12938886 
   13400   -941.92619    45.599768   -896.32642    1633.2183   -6225.0356    2.1512801  0.053174726   0.13293873 
   13500   -942.20373    53.439288   -888.76444    1914.0015    2618.5507    2.1681866  0.080470873   0.14246178 
   13600   -946.99791    50.588629   -896.40928    1811.9012    6059.4212    2.1889019   0.13152897   0.13156462 
   13700   -943.15828     44.88059   -898.27769      1607.46   -11656.365    2.1387653   0.32706215   0.13636878 
   13800   -944.52177    48.389362    -896.1324    1733.1315    -4196.465    2.1586572   0.35248404   0.14620671 
   13900   -939.42773    47.288598   -892.13913    1693.7061    24344.828    2.2175842   0.33848536   0.15097256 
   14000   -937.67109    54.123599   -883.54749    1938.5111   -5786.2431     2.132632    0.5684802   0.13602402 
   14100    -939.6403     46.69252   -892.94778    1672.3567   -14009.173    2.1270237   0.37578815   0.12905306 
   14200   -945.45078    49.935598   -895.51518     1788.512    4574.9566    2.1834941   0.27717317   0.14094089 
   14300   -943.79454    47.344923   -896.44961    1695.7235    6160.0411    2.1822314   0.28482107   0.12888041 
   14400   -946.57566    47.028149   -899.54751    1684.3777   -7179.0693     2.158995   0.31631825   0.13013318 
   14500    -952.8789    45.255658   -907.62324    1620.8935   -967.46078    2.1882493   0.69915528   0.13587973 
   14600   -946.12865     47.98726   -898.14139    1718.7296    396.45984     2.175588   0.59318957   0.15401864 
   14700   -948.38208    51.999029   -896.38305    1862.4167   -4039.1725    2.1674289    0.4192464   0.13669989 
   14800   -942.27495    46.221676   -896.05328    1655.4928    1090.9471    2.1673818   0.36457497   0.13157514 
   14900   -946.54779    40.460744   -906.08704    1449.1571    4111.4344    2.1910505   0.41557463   0.11437977 
   15000   -944.30244    44.903644   -899.39879    1608.2857   -287.94874    2.1686288   0.55866768    0.1212682 
   15100   -944.25793    48.326341   -895.93159    1730.8743   -525.95935    2.1696837   0.12470964   0.13161439 
   15200   -946.18928     49.63908    -896.5502    1777.8918    1603.8579    2.1761452   0.59296372   0.12957549 
   15300   -947.49742    41.565248   -905.93217    1488.7165    1773.1602    2.1866158    0.4195102   0.13961175 
   15400    -941.2187    43.749481   -897.46922    1566.9478   -5957.5604    2.1507354    1.4046625   0.15017359 
   15500    -944.4326    48.844878   -895.58772    1749.4464    3359.1024    2.1800059   0.17834016   0.15519457 
   15600   -947.03511    48.561969   -898.47314    1739.3136    6822.2376    2.1930528   0.54596501   0.14057491 
   15700   -951.12917    44.238037   -906.89113    1584.4461   -10498.926    2.1596977   0.75893369   0.13319269 
   15800   -944.52036    45.631557   -898.88881    1634.3569   -6969.1591     2.155778   0.42136642   0.12707225 
   15900   -946.28551    50.844409    -895.4411    1821.0623    11360.063     2.203806    0.7097964   0.13412354 
   16000   -943.60734    46.400003   -897.20734    1661.8798    761.80306     2.169139   0.69724294   0.11256246 
   16100   -940.68977    51.468693   -889.22107    1843.4219   -11069.476     2.131366   0.36769161   0.14418391 
   16200   -941.57174    50.909202   -890.66254     1823.383    1757.7607     2.164374   0.84590636   0.14664483 
   16300   -943.90971    47.893418   -896.01629    1715.3686    4030.3882    2.1792677   0.57775173   0.14047351 
   16400   -942.69118    45.132357   -897.55882    1616.4773    -1956.732    2.1645279   0.35554804   0.14089544 
   16500   -944.22746    51.864926   -892.36253    1857.6135   -1712.6692    2.1603167   0.27183893   0.12603586 
   16600   -937.70624    48.511954   -889.19428    1737.5223    2276.0658    2.1565598   0.40283875   0.14275191 
   16700   -945.43253    48.539566   -896.89296    1738.5112    780.61731    2.1737914   0.45606506   0.13210273 
   16800   -945.99656    48.689529   -897.30703    1743.8824    1124.5685    2.1729144   0.48165442   0.11288325 
   16900   -938.43048    49.235641   -889.19484    1763.4421    1485.1931    2.1598915   0.32492092   0.12124831 
   17000   -941.78535    48.985531   -892.79982    1754.4841    284.07653    2.1650348   0.27550264   0.12421421 
   17100   -945.89861    48.091734   -897.80688    1722.4715    -3637.572    2.1647044   0.35358093   0.12035006 
   17200   -943.55411    47.984126   -895.56998    1718.6174    3988.3514    2.1794844  0.046003448   0.14545531 
   17300   -938.80681    51.886287   -886.92052    1858.3786    3080.6481    2.1665554   0.60897719   0.13014305 
   17400   -941.67508    47.731894   -893.94318    1709.5833   -7131.0886    2.1454596   0.26525562   0.13201797 
   17500   -941.10162    43.365035   -897.73659    1553.1783   -2107.4669    2.1590423   0.58980234   0.12792648 
   17600   -941.08047    46.428859   -894.65162    1662.9133    13281.937    2.1964644   0.34914825     0.144478 
   17700   -937.29102     49.36087   -887.93015    1767.9274    3685.0317    2.1619604   0.26236164   0.14437378 
   17800   -941.82075    49.134321   -892.68643    1759.8132   -13395.352    2.1271683    0.2222372   0.12388374 
   17900   -942.72684    45.403751   -897.32308    1626.1977   -951.12017    2.1699933   0.74523451    0.1284913 
   18000   -944.04801    48.794947   -895.25306    1747.6581    12566.909    2.2019344   0.18859072   0.13348564 
   18100   -941.97438    46.273203   -895.70118    1657.3383   -3824.5139    2.1561709   0.32715825   0.12850919 
   18200   -949.53385    43.973537   -905.56031    1574.9726   -5432.4625    2.1676318   0.29220774   0.11961594 
   18300   -946.07837    46.487103   -899.59126    1664.9994    3332.8292     2.183359   0.17157229   0.12352177 
   18400   -945.83423    50.243161   -895.59106    1799.5278    425.20239    2.1741089   0.41777447   0.11965715 
   18500   -942.18849    46.280699   -895.90779    1657.6068   -4041.0564    2.1543281      0.23723   0.12679684 
   18600   -949.69764    44.289153   -905.40848    1586.2769    153.41914    2.1857439   0.32758656   0.12236546 
   18700   -947.06337    49.756598   -897.30677    1782.1009    854.48965    2.1741748   0.33783332    0.1230103 
   18800   -944.31738    49.069375   -895.24801    1757.4871   -1395.1169    2.1631351   0.13939363   0.12738208 
   18900   -944.78248    44.532573   -900.24991    1594.9953   -1907.1633    2.1622447   0.84333667   0.11099449 
   19000   -946.70048    45.364758   -901.33572    1624.8011    3761.4329    2.1836238    13.379097   0.12822566 
   19100   -942.35407    49.075487   -893.27859     1757.706    4709.3528    2.1737763    12.920805   0.12409326 
   19200   -942.06626     46.03079   -896.03547     1648.656   -9691.2587    2.1439417    13.015169   0.12850843 
   19300   -943.15385    47.112569   -896.04128    1687.4014   -1880.6022    2.1675998    11.991872   0.13897142 
   19400    -938.5929     53.13294   -885.45996    1903.0292     8833.824    2.1771374    9.3459996   0.14402161 
   19500   -942.06616    50.134456    -891.9317    1795.6344    1529.8302    2.1690963    12.273094   0.14365114 
   19600   -941.03645    44.284597   -896.75186    1586.1137   -9603.6829    2.1428564    12.845465   0.14665344 
   19700   -942.80492    48.622897   -894.18202    1741.4958    1237.3604    2.1683014    10.369489   0.14553038 
   19800   -934.64509    49.917096   -884.72799    1787.8494    11795.372    2.1759447    15.628577   0.13927717 
   19900   -944.38319    49.827068   -894.55612    1784.6249   -4643.0746      2.15596    2.4795848   0.15129727 
   20000   -944.94534      47.8788   -897.06654     1714.845   -8940.2533    2.1466298    4.7795966   0.13367837 
   20100    -939.7249    47.121557   -892.60335    1687.7233    9691.5748    2.1827192     4.397382   0.13736521 
   20200     -937.918    52.363367   -885.55464    1875.4659     4675.119    2.1556682    2.9743887   0.14013432 
   20300   -941.67053    45.788765   -895.88176    1639.9875   -4053.8751    2.1564513    3.7368813   0.15205541 
   20400   -940.86928    44.800144   -896.06913    1604.5787    266.24371     2.164196    5.7044452   0.13978739 
   20500   -939.96202    46.342669   -893.61935    1659.8263    3483.6408    2.1752639     4.108601   0.17007845 
   20600   -939.13009    54.927102   -884.20299    1967.2896   -1648.0584    2.1498713    6.3072847   0.14968379 
   20700   -946.58452    53.162003   -893.42251    1904.0701   -3236.3957     2.161938    10.310333   0.12478334 
   20800   -943.09425    47.056896   -896.03735    1685.4073   -272.73937    2.1675925    11.466332   0.13768124 
   20900   -945.19803    47.519743   -897.67829    1701.9849   -1107.0428    2.1720103    14.275394    0.1242763 
   21000    -946.8282    48.743329   -898.08487    1745.8093   -249.69393    2.1767749    12.502167   0.12791332 
   21100   -942.53748    55.247041   -887.29044    1978.7486   -6226.5098    2.1442564    13.336766   0.12937015 
   21200   -944.47384    50.155981   -894.31786    1796.4053    2292.8849    2.1725027    15.504826    0.1327781 
   21300   -941.42062    44.137265   -897.28335    1580.8368    4668.1796     2.176241    10.774636   0.14878374 
   21400   -941.55968    44.180275   -897.37941    1582.3772   -2034.2604    2.1606133    11.031724    0.1377858 
   21500   -938.24607     51.45333   -886.79274    1842.8717   -3671.8843     2.146207    12.856976   0.13302026 
   21600   -939.72254    45.124568   -894.59797    1616.1984    12928.239    2.1909582    13.513297   0.13507217 
   21700   -945.50221    47.835815    -897.6664    1713.3054    -1218.222    2.1697406    10.706334   0.13241717 
   21800   -941.61531    45.921359   -895.69395    1644.7365   -8816.7435    2.1436778    12.088441   0.13461861 
   21900   -939.72098    53.420758   -886.30022    1913.3378    3415.9956     2.168707    8.4056108   0.12784619 
   22000   -943.10658    48.298906   -894.80767    1729.8917    16000.251    2.2091023    15.066227   0.15614879 
   22100   -944.45487    47.578688   -896.87618    1704.0961   -17405.101    2.1269145    18.516928   0.14434181 
   22200   -940.10542    46.661109   -893.44431    1671.2317   -9579.5286    2.1368905    13.287935   0.14163679 
   22300   -945.51513    45.142128   -900.37301    1616.8273    15019.249    2.2122712    12.363941   0.14082393 
   22400   -946.24973    44.981347   -901.26838    1611.0687    3215.6442    2.1834715    12.462289   0.12771132 
   22500   -942.62756    47.937789   -894.68977    1716.9577   -7264.0162    2.1465357    11.631892   0.11469304 
   22600    -948.9737    51.694356   -897.27935    1851.5044   -2508.6516    2.1731641    11.995132    0.1231133 
   22700   -952.18109    49.556522   -902.62457    1774.9349    5285.7012    2.1986758    12.377109   0.13403076 
   22800   -939.72334     47.27942   -892.44392    1693.3774   -2887.4222    2.1531385    14.255244   0.11660059 
   22900   -942.04124    45.597943   -896.44329     1633.153   -2115.2453    2.1602907    11.475433   0.12898927 
   23000   -948.29714    48.568286   -899.72885    1739.5399    4215.6429    2.1894053    12.094883   0.12310044 
   23100    -942.9252    52.670166   -890.25503    1886.4543   -400.05469    2.1655825    15.187281   0.14224832 
   23200   -940.52302    46.755265   -893.76775     1674.604   -1159.6071     2.157374    11.101626   0.14519575 
   23300   -946.60221    47.387404    -899.2148     1697.245   -2199.2588    2.1691654    12.383281   0.12644601 
   23400   -942.95671    48.580077   -894.37663    1739.9622    6302.1122    2.1812898    11.282515   0.12119094 
   23500   -943.69909     52.89729    -890.8018    1894.5891   -6610.5566    2.1520977    13.262018    0.1343156 
   23600   -946.38939    46.268683   -900.12071    1657.1764   -4904.6968    2.1601315    12.294658   0.11526669 
   23700      -943.23    47.089459   -896.14054    1686.5736    6457.3636    2.1824981    12.260944   0.13512854 
   23800   -941.41898     50.40989   -891.00909    1805.4995    5021.5882    2.1715658    11.354535   0.12139152 
   23900   -942.70456    45.314142   -897.39042    1622.9882   -12034.668    2.1344365    12.601544   0.11772813 
   24000   -943.36411     43.46252   -899.90159    1556.6699    -1274.329    2.1658747    12.285546   0.12887091 
   24100   -941.88876    49.025652   -892.86311    1755.9211    18144.131    2.2051481    13.527249   0.13482704 
   24200   -946.54912    48.261287   -898.28784    1728.5443   -5155.9867    2.1580109    11.656261   0.13882203 
   24300   -947.34968    42.764111   -904.58557    1531.6554   -10262.187    2.1516859    14.816332    0.1292666 
   24400   -941.36519      45.9981   -895.36709    1647.4851    6039.1171    2.1786264    11.578318    0.1334988 
   24500   -944.70125    49.539608   -895.16165    1774.3291    5866.9478    2.1822274    10.973049    0.1308068 
   24600   -944.80341    43.503359   -901.30005    1558.1325   -4794.7231    2.1584597    13.005597   0.11213978 
   24700   -942.64647    44.730432   -897.91604    1602.0818    607.56162    2.1697151    12.256437   0.11138062 
   24800   -944.85199     52.30488   -892.54711    1873.3711    2128.2366    2.1760862    13.729391   0.12754592 
   24900   -943.29773    45.599631    -897.6981    1633.2134   -1982.6277    2.1618774    9.7221782   0.10912743 
   25000   -942.79898    44.414231   -898.38475    1590.7567   -721.51718    2.1668425    11.275369   0.12971211 
   25100   -941.50388    53.490829   -888.01305    1915.8475   -1850.2053    2.1590975    14.322044   0.13864885 
   25200   -946.81716    51.441513   -895.37565    1842.4485    695.50493    2.1745429     11.45975   0.12740532 
   25300   -943.88661    45.111758   -898.77485    1615.7396   -5382.6266    2.1562593    12.895923   0.15097065 
   25400   -941.87189    49.746636   -892.12525    1781.7441    -1889.617    2.1573894    13.037693   0.13148237 
   25500   -941.16097    50.877359   -890.28361    1822.2425    5741.4523    2.1761844     12.72284   0.13094802 
   25600   -945.64676     47.90366    -897.7431    1715.7354   -2506.9262    2.1622203    16.580208   0.11848139 
   25700   -944.35009    48.848254   -895.50184    1749.5673   -8958.3033    2.1451093    15.311715   0.12284636 
   25800   -939.75783    50.533479   -889.22435     1809.926    5958.6902    2.1706562    33.219107   0.14423628 
   25900   -948.80046    49.973022   -898.82744    1789.8524    5270.1729    2.1897312    43.595304   0.12402498 
   26000   -946.10008    47.295423   -898.80465    1693.9505   -15019.941    2.1337155    40.402195   0.11997594 
   26100   -941.86396     47.07375   -894.79021     1686.011   -2020.3988     2.159975    42.121559   0.14344006 
   26200   -947.37353    48.414643   -898.95888    1734.0369    12401.405    2.2061731    42.306514   0.14185535 
   26300   -948.93934    45.375122   -903.56422    1625.1723   -2245.7135    2.1736191     42.85335   0.12792845 
   26400   -945.23303     48.45872   -896.77431    1735.6156    -10414.25    2.1452863     44.36442   0.13078929 
   26500   -941.20876     46.56757   -894.64119    1667.8815    5874.6158    2.1766934    45.616399   0.13188165 
   26600   -945.60113    42.605976   -902.99515    1525.9916    8045.3208    2.1939498    41.130338   0.11535312 
   26700   -942.19958     44.56157   -897.63801    1596.0338   -3758.0039    2.1567332     35.28713   0.13722011 
   26800   -941.92066    47.094468   -894.82619    1686.7531   -574.85675    2.1645537    40.428733   0.14717759 
   26900   -944.54375    46.688163   -897.85559    1672.2007    2655.5582    2.1759021    40.654124   0.13293997 
   27000   -948.75412    44.732953   -904.02117    1602.1721   -1171.7469     2.178073    39.203258   0.13644713 
   27100   -941.96081    46.609739   -895.35107    1669.3918    878.02679    2.1636027    42.488256   0.13168125 
   27200   -945.69946    50.859647   -894.83981    1821.6081    3610.1949    2.1781813    44.045464   0.14576846 
   27300   -944.45243    47.077965   -897.37446     1686.162   -464.56713    2.1698463    39.790374   0.14248182 
   27400   -943.24806     44.72425   -898.52381    1601.8604   -7275.9761    2.1526888    40.169332   0.14482942 
   27500   -934.00363    46.334074   -887.66956    1659.5185      3919.83    2.1554686    39.402848   0.14689492 
   27600   -939.71126    47.609947   -892.10132    1705.2157    17995.455     2.205308    40.477052   0.14233397 
   27700   -942.63609    45.151278   -897.48481     1617.155   -9131.3847    2.1425132    41.793213   0.14100547 
   27800   -942.32992    45.350899   -896.97902    1624.3048   -14454.011    2.1305616    41.224469   0.14026075 
   27900   -939.04114    49.625404   -889.41574     1777.402    20101.217     2.203061    41.034136    0.1517224 
   28000   -936.81584     45.33406   -891.48178    1623.7016    6441.4005    2.1717654    41.903961   0.13556864 
   28100    -942.7409    43.986832   -898.75406    1575.4488   -10430.645    2.1440253    41.951978   0.14432667 
   28200   -943.87158    47.807921   -896.06366    1712.3064    534.20998    2.1707261    39.753347   0.12936438 
   28300   -941.57493    50.746097   -890.82883    1817.5412    10405.667    2.1849692    41.387363   0.14426382 
   28400   -939.12217     50.57875   -888.54342    1811.5474   -6131.8125    2.1394776    38.966948   0.13399126 
   28500   -942.78287    44.828427   -897.95444    1605.5917    -3023.316    2.1628831    43.813985   0.13853724 
   28600   -941.29463    45.178987   -896.11564    1618.1475    10465.704    2.1934101    43.056883   0.14416026 
   28700     -942.046    45.561064   -896.48493    1631.8321    338.72729    2.1667987    41.667798   0.14638725 
   28800   -938.00043    52.872462   -885.12797    1893.6999   -9264.6531    2.1298831    42.794988   0.15243173 
   28900   -941.69437    49.130093   -892.56428    1759.6618    8086.4121    2.1832006    41.989052   0.13041664 
   29000   -947.22858    51.206331   -896.02225    1834.0251    857.29162    2.1771257    39.854907   0.12560411 
   29100   -948.32704     49.93207   -898.39497    1788.3857   -9651.5489    2.1536647    44.285772   0.11804263 
   29200   -943.35183    50.633848   -892.71798    1813.5208    429.84324    2.1657682    44.754472   0.12839957 
   29300   -939.13387    50.820052   -888.31381      1820.19    7039.9981    2.1776856    42.737569   0.16524025 
   29400   -942.60191    46.761576   -895.84034    1674.8301   -5830.8928    2.1522334    40.815843   0.15338413 
   29500    -945.6834    49.114848   -896.56855    1759.1157   -6863.5429    2.1538108    42.554378   0.14445544 
   29600   -942.28363    54.844048   -887.43958    1964.3149    4193.4381    2.1751963    54.752817   0.15744937 
   29700    -942.4687    49.657349   -892.81135    1778.5461    4199.6001    2.1763934    57.970957   0.14954302 
   29800   -944.25438     47.71158    -896.5428    1708.8558   -12301.542    2.1467271    56.209026   0.17009043 
   29900   -940.28821    48.812295   -891.47592    1748.2794    1376.8355    2.1688737    62.568266   0.17465624 
   30000   -942.01201    51.783773   -890.22824    1854.7069      4560.24    2.1761616    56.014663   0.17586199 
   30100   -945.23462     45.92768   -899.30694    1644.9629    2109.0824    2.1772939    53.294293   0.14945157 
   30200   -942.14199    46.192372   -895.94962    1654.4432    -718.0014    2.1598717    54.327195   0.15550652 
   30300   -942.69867    49.944144   -892.75452    1788.8181   -583.61244    2.1611094     66.27667   0.13171256 
   30400   -951.24652    48.398868   -902.84766    1733.4719    920.43577    2.1878815    58.071134   0.11574029 
   30500   -943.09341    45.277455   -897.81596    1621.6742   -1916.3929    2.1659163    65.581356   0.13281446 
   30600   -941.73205    47.679825   -894.05222    1707.7184   -380.19188    2.1619348    62.637953   0.12644328 
   30700   -947.29564    45.381084   -901.91456    1625.3859    3276.6055    2.1853267    64.539983   0.12705202 
   30800    -945.0088    46.456787   -898.55201    1663.9136    1800.2344    2.1785898    64.290081   0.15104016 
   30900   -940.57212    46.507628    -894.0645    1665.7346   -2283.1947    2.1569423    62.216365   0.13419288 
   31000   -945.24935    45.165603   -900.08375    1617.6681   -2185.9387    2.1677915    61.129369   0.13269416 
   31100   -946.64764    46.840212   -899.80743    1677.6465    6502.7157    2.1892578    74.900702   0.13199321 
   31200   -939.83108     47.70662   -892.12446    1708.6781   -64.260814    2.1606316    59.375336   0.13958619 
   31300   -945.01693    46.163705   -898.85322    1653.4165   -10076.822    2.1501796    65.699153   0.12536431 
   31400   -945.62969    48.093056   -897.53663    1722.5188    4523.6438    2.1835166    63.625213   0.10952152 
   31500   -943.09245    54.511882   -888.58056    1952.4179    3718.8546    2.1760538    59.748547   0.13895142 
   31600   -945.56285    48.536147    -897.0267    1738.3888   -8854.2864    2.1482062    65.941802   0.12806995 
   31700   -944.21242    45.843226    -898.3692    1641.9381   -3754.2918    2.1562893    61.576766   0.13312891 
   31800   -940.66968    50.874572   -889.79511    1822.1427    10931.961    2.1863997     62.04276   0.13608818 
   31900   -943.70657    48.553589   -895.15298    1739.0135    3828.0263    2.1747057    63.642964   0.13252927 
   32000   -944.30356    44.116654    -900.1869    1580.0986   -10368.057    2.1399542    65.894796   0.10936226 
   32100    -941.5372    47.236757   -894.30044    1691.8493    1980.7857      2.17051    69.474146   0.13155063 
   32200   -944.60468    49.905597   -894.69908    1787.4375    7933.7075    2.1885309    62.938154    0.1172718 
   32300   -948.08425    45.138449    -902.9458    1616.6955   -1453.3184    2.1717932    59.142407   0.13060136 
   32400   -943.64792    46.735474   -896.91245    1673.8952   -3593.2864    2.1574823    61.586535   0.13694869 
   32500   -942.45044    49.000172   -893.45027    1755.0085    2373.1646    2.1690098    56.999442   0.13350358 
   32600   -945.24699    42.661759   -902.58523    1527.9895    3241.2203    2.1832774    62.399548   0.13372785 
   32700   -946.41503    48.282863   -898.13216    1729.3171   -3655.9876    2.1619129    66.718359   0.12828824 
   32800   -943.36148    49.094041   -894.26744    1758.3705   -504.33579    2.1663217    65.970173   0.14428772 
   32900   -946.92217    46.785593   -900.13658    1675.6903    306.35433     2.177775    65.199082   0.13260596 
   33000   -945.94953    45.141604   -900.80792    1616.8085    697.74807    2.1756538    64.995233    0.1320548 
   33100   -940.83513    47.725294   -893.10984     1709.347   -3721.5975    2.1548067    64.027965   0.13157848 
   33200   -945.66391    47.583606   -898.08031    1704.2722    619.79806    2.1739516    62.399162   0.14347168 
   33300   -946.36928     46.88336   -899.48592    1679.1919    6239.3245    2.1882406    64.283725   0.13174983 
   33400   -937.87567    48.106717   -889.76896    1723.0081   -5359.6879    2.1407523    65.241111   0.15665996 
   33500   -946.60921    49.032922   -897.57629    1756.1815   -4276.1988    2.1651515    62.480311   0.14675838 
   33600   -947.81521    50.550873   -897.26434    1810.5489    10940.017    2.2043779    59.985776   0.12899263 
   33700   -940.67094    50.365925   -890.30502    1803.9248   -3425.6481    2.1577354    63.267987   0.15169402 
   33800   -938.90526    45.725356    -893.1799    1637.7164   -14106.826    2.1292789    63.045621   0.15557691 
   33900   -947.45309    49.100985    -898.3521    1758.6192    5081.6996    2.1874608    62.134486   0.14120181 
   34000   -944.67168    49.995106   -894.67658    1790.6434    12554.614    2.2008897    64.222394   0.17118054 
   34100   -939.83647    47.937101   -891.89937    1716.9331   -10137.545    2.1336753    60.093508    0.1503959 
   34200   -946.73195    44.337635   -902.39432    1588.0133    -4096.668    2.1677509    66.103431    0.1264201 
   34300   -946.87434     49.87425   -897.00009    1786.3148    6995.1011    2.1888212    64.759292   0.14059731 
   34400   -941.65858    47.677373   -893.98121    1707.6306    787.95707    2.1645168    64.441692   0.12901691 
   34500   -944.16904    44.379799   -899.78924    1589.5235   -7595.5207    2.1516995    63.332748   0.14573547 
   34600   -946.98786    45.560211   -901.42765    1631.8015    1624.1716    2.1782628    62.494077   0.12385144 
   34700   -943.62794    49.749586   -893.87836    1781.8498    6227.0068    2.1799942     66.42958    0.1274179 
   34800   -944.24963    46.296953   -897.95267     1658.189    -3226.851    2.1617433    62.358864   0.15670365 
   34900   -945.86877    41.803511   -904.06526    1497.2502   -2405.4089    2.1698113    63.526867   0.15052908 
   35000   -942.86151    48.505344   -894.35617    1737.2855    3357.4812    2.1718498    66.943911   0.13407962 
   35100    -944.5544    49.014437   -895.53996    1755.5194    3417.2685    2.1792817     62.07092   0.13303738 
   35200   -946.22755    44.768706   -901.45885    1603.4527    -4321.811    2.1658117    66.445593   0.11661551 
   35300   -943.27679    48.866935   -894.40985    1750.2364   -1494.8779    2.1627721    63.510723   0.12295083 
   35400   -943.72766    50.939921   -892.78773    1824.4833    4826.5537    2.1800294    66.675776   0.13661338 
   35500   -944.01124    45.491405   -898.51984    1629.3372   -3801.7766    2.1621702    62.004956   0.12739236 
   35600   -942.11585    46.010062   -896.10579    1647.9136   -6814.8777    2.1458463    62.437868   0.14980341 
   35700    -940.6845    52.108995   -888.57551    1866.3552    8016.7734    2.1793729    59.001709    0.1558135 
   35800    -945.5381    49.930288   -895.60781    1788.3218    7093.9333    2.1867166    58.148406    0.1404271 
   35900    -944.3458    45.085467   -899.26034    1614.7979   -14536.306    2.1337325     67.98629   0.13875155 
   36000   -939.67322    47.657305   -892.01591    1706.9118    -1716.409     2.155169    69.921316   0.13982978 
   36100   -941.29964    49.209841    -892.0898     1762.518    15795.124    2.2022053    65.571662   0.14184083 
   36200   -946.54346    46.888977   -899.65448    1679.3931   -3956.1055    2.1666221    61.665105   0.12850658 
   36300   -942.89624     45.90058   -896.99566    1643.9923   -7284.3285    2.1473754    59.262556   0.13627106 
   36400   -942.29114    50.937969   -891.35317    1824.4133    5445.3852    2.1754506    58.281559   0.15009623 
   36500   -943.70687    42.894135   -900.81273    1536.3124    6924.0517    2.1893924    64.491944   0.15326551 
   36600    -943.3193    44.057317   -899.26199    1577.9733   -4783.0294    2.1551335    63.639592   0.15761944 
   36700   -946.97892     53.04113   -893.93779    1899.7409   -2563.8915    2.1633698    68.771742   0.12232274 
   36800    -948.3305    48.766779   -899.56372    1746.6492    6758.5277    2.1939076    62.941178   0.12129973 
   36900   -945.18175    42.854443    -902.3273    1534.8907   -836.35574    2.1757393    65.749985   0.12463187 
   37000   -942.72505    47.612518   -895.11253    1705.3077   -6472.7744    2.1508673    68.011106    0.1404078 
   37100   -942.07143    45.730835    -896.3406    1637.9127    4979.6465    2.1768061    58.315543    0.1396686 
   37200   -946.72848    43.725913   -903.00256    1566.1036    9644.6959    2.1974297    60.737844   0.13882548 
   37300   -940.67206    47.454073   -893.21799    1699.6328   -7345.5786    2.1476356    69.780879   0.15133319 
   37400   -944.47156    48.517364    -895.9542     1737.716   -2400.1171    2.1659422    62.527062   0.14894063 
   37500   -948.29664    48.555031   -899.74161    1739.0651    7530.3033    2.1985532    66.647962   0.12979984 
   37600   -941.01673    49.575945   -891.44079    1775.6306   -479.09246    2.1620628    67.216909   0.13312229 
   37700     -941.705    48.492106   -893.21289    1736.8114   -10834.647     2.138867    62.898384   0.14462604 
   37800   -946.54598    47.708685   -898.83729    1708.7521    3393.9688    2.1882844     65.63491    0.1310188 
   37900    -942.4006    46.413555   -895.98705    1662.3652    15868.365    2.2098429    59.912579   0.14200094 
   38000   -940.24264    48.821445   -891.42119    1748.6071    -14169.08    2.1304283    65.698916   0.15181963 
   38100    -945.3894    44.532684   -900.85672    1594.9992   -9658.4847    2.1558299    75.501391   0.15311242 
   38200   -947.02984    49.136393   -897.89345    1759.8874    9251.5355    2.2012005    70.381913   0.14101145 
   38300     -938.809    46.227178   -892.58182    1655.6899    8301.2248    2.1769031    75.545417   0.15006573 
   38400    -945.4586    49.371781   -896.08681    1768.3182   -11898.496    2.1414927    74.623059   0.12164986 
   38500   -946.00943     44.72717   -901.28226     1601.965   -250.65332    2.1787948    78.383098   0.12854403 
   38600   -942.40715     49.57438   -892.83277    1775.5745    8385.0161    2.1888846    72.052322   0.13915828 
   38700   -943.64341    47.359532   -896.28387    1696.2467   -2755.9891    2.1632453    77.732845   0.12682656 
   38800   -944.57742    41.429015    -903.1484    1483.8371   -3640.1847    2.1644071    72.543363   0.12667764 
   38900   -945.96138    51.391572   -894.56981    1840.6598    2360.1093    2.1773144    74.225695   0.14051316 
   39000   -944.34526    49.120078   -895.22518     1759.303    4498.8225    2.1812145    71.427819     0.151878 
   39100   -947.69997    44.658108   -903.04186    1599.4915   -4468.5974     2.168977    76.153163   0.14495703 
   39200   -939.74844    45.150699   -894.59774    1617.1343   -1430.9781    2.1576161    70.551404   0.14722367 
   39300   -942.66777    48.780683   -893.88709    1747.1472    7154.7834    2.1856378     71.10876   0.12912365 
   39400   -942.65532    41.664039   -900.99128    1492.2548    5512.1534    2.1829462     67.43877   0.12404141 
   39500   -940.04148      46.9597   -893.08178    1681.9262   -5607.0519    2.1467343    78.337598   0.12967459 
   39600   -941.30903    48.235522   -893.07351    1727.6215    2113.0307    2.1715296    72.398153   0.12557165 
   39700   -948.64016    49.815484   -898.82467      1784.21    8553.6677    2.1994361    72.469506   0.12594773 
   39800   -943.38742    48.536994   -894.85043    1738.4191   -6842.8015    2.1520923    70.112221   0.15231874 
   39900   -940.76752     48.34102    -892.4265       1731.4   -15353.269    2.1260408    70.917432   0.14875941 
   40000   -946.20453     47.27704   -898.92749    1693.2921    15868.849    2.2147032    65.703717    0.1624093 
   40100   -945.02992    47.437593   -897.59233    1699.0425    11356.561    2.1960243    68.557477   0.15264779 
   40200   -941.98996    48.132148   -893.85782     1723.919   -15017.162    2.1274005    71.782124    0.1346989 
   40300   -943.00938    42.966045   -900.04334    1538.8879    302.88495    2.1683693    70.488173   0.13502261 
   40400   -945.96182    45.988114   -899.97371    1647.1275      13370.7     2.208783    69.212942   0.12651632 
   40500   -941.54824    48.269264   -893.27897      1728.83   -171.98068    2.1648018    68.471565    0.1323584 
   40600   -945.95422    48.383732   -897.57049    1732.9298   -12316.757    2.1454465    70.989086   0.14027279 
   40700   -946.96501    45.905838   -901.05917    1644.1806    4101.5656    2.1889591     70.72517   0.13694219 
   40800   -942.15569    50.885621   -891.27007    1822.5384    5769.7287    2.1775248    73.943382   0.14288494 
   40900   -944.45128    47.830553   -896.62072     1713.117   -6939.8422    2.1578494    68.150968   0.14988342 
   41000   -946.07492    45.173324    -900.9016    1617.9446   -3424.8515    2.1660664    66.069568   0.13531535 
   41100    -948.2378    56.716177   -891.52162    2031.3678    2141.9308    2.1794421    70.703528   0.13089587 
   41200   -949.67693    55.219379   -894.45755    1977.7579   -648.85359    2.1767143    73.725096   0.12338131 
   41300   -945.82915    45.377909   -900.45124    1625.2721   -6732.6364    2.1556212    72.069461   0.12911602 
   41400   -943.52834    50.156252   -893.37209     1796.415   -2010.0012    2.1640099    75.253247   0.15362891 
   41500   -942.74615    50.435082   -892.31106    1806.4017     8045.399    2.1870199    73.674676   0.15402602 
   41600   -947.89642    47.562368   -900.33405    1703.5115   -4187.2801    2.1695048     72.76209   0.13520617 
   41700   -944.55539    48.535576   -896.01981    1738.3683   -9040.9787    2.1467505    76.773947   0.13546935 
   41800   -942.45146    51.595412   -890.85605    1847.9605    5910.5364    2.1774999    73.353835   0.13692075 
   41900   -945.33632    45.897201   -899.43912    1643.8713    11273.424    2.2016025    68.974376   0.15164801 
   42000   -941.45666    46.494676   -894.96198    1665.2707   -17058.252    2.1248627    67.465231   0.16649291 
   42100   -940.99597    48.325492   -892.67048    1730.8439   -9475.0735    2.1378145    72.779252   0.16820984 
   42200   -944.64906     49.39126    -895.2578    1769.0158    18728.937    2.2174815    80.871468   0.16196894 
   42300   -945.35808    44.626513   -900.73157    1598.3598    1670.2537    2.1815197    74.597771   0.17354523 
   42400   -938.69002    47.264832   -891.42518    1692.8549   -11147.773     2.128519    84.246361   0.17177671 
   42500    -942.1759    47.563496    -894.6124     1703.552    2584.9102     2.177835    79.366557   0.17709922 
   42600   -944.62885    46.361127   -898.26773    1660.4874    8558.6234    2.1929342    79.297044   0.15257379 
   42700    -939.3409    48.245599    -891.0953    1727.9824   -211.35081    2.1526386    80.081709   0.16439399 
   42800   -939.78305    46.961308   -892.82174    1681.9837    -2314.729    2.1489387     82.46795   0.16021148 
   42900   -943.28907    45.143458   -898.14561     1616.875    3432.4709    2.1814838    94.302844   0.16389085 
   43000   -938.00705    46.250169   -891.75688    1656.5133    4684.3473    2.1641072    99.287531   0.14177557 
   43100   -944.02699    48.406704   -895.62029    1733.7526   -6927.1089    2.1466668    96.956185   0.12272557 
   43200   -943.34129    42.959159   -900.38213    1538.6413    2409.8522    2.1739377    96.756544   0.14426204 
   43300   -947.64708    54.987797   -892.65928    1969.4635    4155.2111    2.1829523    95.346279   0.13245288 
   43400   -944.27627    47.701406   -896.57487    1708.4914   -3367.9086    2.1552232    144.55138   0.14886646 
   43500   -948.35349    45.824049   -902.52944    1641.2513   -7223.4004    2.1611443    137.22633   0.15584632 
   43600   -943.35422    50.457944   -892.89628    1807.2206    5330.6646    2.1771482    137.45765   0.16356226 
   43700   -946.20458    51.868314   -894.33627    1857.7349    4695.2914    2.1866695     143.1576   0.16074954 
   43800    -944.4312    43.589368   -900.84183    1561.2131   -10472.429    2.1462834    144.06152   0.15230819 
   43900   -942.75421    50.138916    -892.6153    1795.7941   -7358.7899    2.1479014    144.68228   0.15027601 
   44000   -942.68849    51.632784    -891.0557    1849.2991    14716.577    2.2035325    128.49148   0.16642348 
   44100    -943.5305    45.560467   -897.97004    1631.8107   -334.69033    2.1769777    128.47208    0.1688755 
   44200   -938.60619    44.119352   -894.48684    1580.1952   -10156.714    2.1437407    113.18286   0.16870061 
   44300    -936.7142    48.165338   -888.54886    1725.1077     3307.483    2.1615216    100.85259   0.15123501 
   44400   -946.51809    49.308909   -897.20918    1766.0663    3458.4311    2.1876507     117.0637   0.15495699 
   44500   -940.03768    43.336531   -896.70115    1552.1574   -987.05687    2.1608536    114.26443   0.15848136 
   44600   -935.24273    47.926882   -887.31584    1716.5671   -2665.5873    2.1467103    125.39554   0.16329939 
   44700   -945.86358    49.298293   -896.56529    1765.6861    2356.6942    2.1775326    105.61747   0.14045702 
   44800   -947.74046    50.179544   -897.56091    1797.2493   -2884.9071    2.1661816    104.49827    0.1306337 
   44900   -943.79893    50.204872   -893.59405    1798.1564   -2606.0923    2.1574126     104.0216   0.11922674 
   45000   -938.16732    51.986586   -886.18073     1861.971    117.04819    2.1538682    101.52089   0.14311694 
   45100    -944.3457    47.106302    -897.2394    1687.1769    6896.4617    2.1868782    102.07857   0.14288456 
   45200   -942.73866    45.795321   -896.94334    1640.2223   -3414.9492    2.1597015    107.01309   0.14169556 
   45300   -942.53404    47.186987   -895.34705    1690.0667    -4188.409    2.1542899    101.57214   0.15271897 
   45400     -951.521    46.200202    -905.3208    1654.7237    6290.5544    2.2029463    107.38239   0.10457352 
   45500   -943.42846    42.493219   -900.93524     1521.953    1245.1617    2.1784176    102.98902   0.13148012 
   45600   -941.97693    45.370828    -896.6061    1625.0185   -7034.3377    2.1490679    104.25059   0.14572417 
   45700   -941.93736    47.251805   -894.68555    1692.3883     3858.638    2.1734761    104.72907    0.1375961 
   45800   -952.42237    48.852692   -903.56968    1749.7263    9960.6814    2.2092305    105.08296   0.13903518 
   45900   -943.91265    45.652763   -898.25989    1635.1164   -8044.3544    2.1497896    102.63096   0.13442139 
   46000   -944.50871    48.620127   -895.88858    1741.3966   -7848.5892     2.148415    106.17746    0.1341614 
   46100   -946.73519    51.375266   -895.35992    1840.0757    9157.0515    2.1955308     107.0119   0.14951747 
   46200    -951.3497    47.669649   -903.68005     1707.354   -316.14109    2.1845673    104.17838   0.12836903 
   46300   -941.76887    44.316895   -897.45198    1587.2705   -9742.9863     2.139565    109.66035   0.12760913 
   46400   -944.15637    49.242536   -894.91383    1763.6891    3651.1809    2.1780942    106.16588   0.12959172 
   46500   -944.41174    47.447496   -896.96424    1699.3972    4870.4373     2.187213    99.388858   0.13999941 
   46600   -946.91507    44.560228   -902.35484    1595.9858    -7231.388    2.1638843    99.651474   0.13518052 
   46700    -947.2315     42.01341   -905.21809     1504.768   -379.46288    2.1771254    101.27486    0.1314239 
   46800   -942.26736     46.17567   -896.09169     1653.845    3525.3492    2.1741272    102.64608    0.1330819 
   46900   -944.02399    47.537569   -896.48642    1702.6233   -270.47195    2.1655107    101.19941   0.14496533 
   47000   -942.05815    45.176599   -896.88155    1618.0619    626.43265    2.1658413    108.24732   0.13656173 
   47100   -948.64893    42.248671   -906.40026    1513.1942    2778.9237    2.1860489    102.83605   0.13638903 
   47200   -948.65436    47.344187   -901.31018    1695.6971   -3545.4598    2.1704688    107.53259   0.12669039 
   47300   -943.32938    46.506466   -896.82292     1665.693    2071.7718    2.1739714    105.91721   0.13575123 
   47400   -944.30424    48.941884   -895.36235    1752.9208    279.62175    2.1686255    103.53128   0.14265754 
   47500   -946.86617      44.7705   -902.09567     1603.517   -4156.1097    2.1674358    102.35028   0.12912569 
   47600   -948.59512    46.249566   -902.34555    1656.4917   -585.82737    2.1783086    104.77429   0.13587881 
   47700    -944.4954     49.13064   -895.36476    1759.6813    7420.4179    2.1884545    104.43337   0.12648118 
   47800   -942.03302    45.386386   -896.64664    1625.5758    -4630.736    2.1567069    108.02915   0.13451846 
   47900   -946.55672    43.386909   -903.16981    1553.9617   -13830.216    2.1479567     102.0282    0.1386477 
   48000    -948.0501    46.767651   -901.28245    1675.0476    10945.984    2.2077879    104.07706   0.15070125 
   48100   -943.31695    49.482618   -893.83433    1772.2879    9765.3431    2.1934425    100.72736    0.1406751 
   48200   -941.57959    43.940574   -897.63902     1573.792   -12579.001    2.1350061    106.53569   0.15589061 
   48300   -944.53284    45.544883   -898.98795    1631.2525   -2823.8599    2.1678101    102.74233   0.14359901 
   48400   -941.23541    51.604914   -889.63049    1848.3009    13821.273    2.1947031    97.829836   0.13876066 
   48500    -939.9248    48.372348   -891.55245    1732.5221    61.084436    2.1586879    102.45776   0.15360351 
   48600   -944.03406    46.652769   -897.38129     1670.933   -9682.1553    2.1487568    104.97896   0.12584108 
   48700   -944.45622    47.747255   -896.70897    1710.1335    3855.8836    2.1810728    105.10811   0.13756409 
   48800   -935.29325    48.492254   -886.80099    1736.8167    6127.4326    2.1681201    105.17143    0.1398674 
   48900   -942.16612    48.028557   -894.13756    1720.2087   -3659.1476     2.154262    106.13416   0.13489769 
   49000   -944.21114    46.071436   -898.13971    1650.1118   -5525.9254    2.1559934    106.00733   0.12120365 
   49100   -942.60457    48.359285   -894.24529    1732.0542    6442.1378    2.1819322    104.37675   0.13980602 
   49200    -938.0815    51.012126   -887.06937    1827.0693    2383.1234    2.1627532    104.50425   0.13743752 
   49300   -942.16563    44.618802   -897.54683    1598.0837   -3404.8124    2.1578319    102.78346   0.12662024 
   49400    -943.0744    45.593357   -897.48104    1632.9887   -1644.3289    2.1599192     108.2004     0.126315 
   49500   -943.45208    49.861579    -893.5905    1785.8609    5922.3248     2.181966    102.56841   0.14003891 
   49600   -941.59024    53.878186   -887.71206    1929.7212   -1249.9642    2.1542109    107.03436    0.1351963 
   49700   -941.33129    45.624518   -895.70677    1634.1048    -9954.572    2.1368171    102.87488   0.14018977 
   49800   -945.87341    48.324963   -897.54845    1730.8249   -2315.3459    2.1656236    105.79617   0.12242837 
   49900   -946.50129    51.744215   -894.75708    1853.2901     17677.73    2.2144243    98.067493    0.1361037 
   50000   -945.49585    45.898865   -899.59698    1643.9309   -7269.2211     2.151955    101.42243   0.13785892 
   50100   -946.08877    42.510725   -903.57804      1522.58   -14978.553    2.1370926    107.94841   0.12258092 
   50200   -953.22852    46.891085   -906.33743    1679.4686    11212.541    2.2166201    101.53953    0.1206649 
   50300   -946.64793    48.853676   -897.79425    1749.7615    3123.9187    2.1784986    101.00436    0.1204634 
   50400   -945.51718    48.324885   -897.19229    1730.8221   -9787.7615    2.1481078    107.11581   0.12969519 
   50500   -940.44737    46.011953   -894.43541    1647.9813    3742.3886    2.1685527    107.24919   0.13817977 
   50600   -948.77362    45.944742   -902.82888     1645.574    5932.7003    2.1913281    105.23545   0.14103838 
   50700   -945.71624    43.823077   -901.89316    1569.5837   -2674.9023    2.1648474    98.167988   0.13330555 
   50800   -944.30097    47.676267    -896.6247     1707.591    1094.0805    2.1665315    104.58254   0.14560633 
   50900   -946.88972    52.732062   -894.15766    1888.6712    2573.1742    2.1776986    101.96766   0.13183579 
   51000   -949.69579    47.278159   -902.41763    1693.3322   -4812.2922    2.1670249    102.62509   0.13166817 
   51100   -943.77504     43.05325   -900.72179    1542.0113    -2734.007    2.1595436    104.18564   0.12985541 
   51200   -943.32747    48.948324   -894.37915    1753.1515    8799.5139    2.1870043    106.33419    0.1223194 
   51300   -944.57973    46.691574   -897.88816    1672.3228    2049.7608    2.1713657    104.72559   0.11540692 
   51400   -948.90865    43.644447    -905.2642    1563.1858   -10634.298    2.1580124    102.85512   0.13376677 
   51500   -945.01741    47.873174   -897.14423    1714.6435    2843.1069    2.1755203    101.85171   0.13445729 
   51600   -941.94648    47.374185   -894.57229    1696.7715    13396.807     2.198565    107.46044   0.14820588 
   51700   -946.37488    47.054443   -899.32043    1685.3195   -8959.8103    2.1528714    103.74233   0.13818582 
   51800   -939.56924    45.779796   -893.78944    1639.6663    -3752.048    2.1513522    101.50869   0.13879361 
   51900   -938.85576    49.219224   -889.63654    1762.8541    7776.4347    2.1776644    106.05552   0.15854381 
   52000   -945.77238    49.020846   -896.75153    1755.7489   -643.66815    2.1716275    108.41744   0.14639545 
   52100   -942.88962    44.824385   -898.06524    1605.4469   -1415.5116    2.1620669    106.05702   0.13909147 
   52200   -942.67806    53.841679   -888.83638    1928.4137    423.22127    2.1624999    108.62686   0.13920547 
   52300   -943.64294    49.445273   -894.19767    1770.9503    4516.2126     2.176064    103.76783   0.12455732 
   52400   -944.44158    45.908746   -898.53283    1644.2848   -2842.4141    2.1637903    108.92371   0.13408006 
   52500   -941.87044    47.547347   -894.32309    1702.9735   -687.68666    2.1675919    107.49917   0.15445821 
   52600   -940.56152    52.762519     -887.799    1889.7621    2088.4825    2.1658159    106.83913   0.14438364 
   52700   -948.51827    49.873425   -898.64484    1786.2852    99.165494    2.1810001    103.43282    0.1349729 
   52800   -942.89971    45.371206    -897.5285    1625.0321   -5854.3824    2.1556068    104.70825   0.14186741 
   52900   -940.49071    46.879138   -893.61157    1679.0407    795.85595     2.166016    111.85903   0.16388607 
   53000   -944.49066    43.047876   -901.44279    1541.8188    7456.8794    2.1932938    105.97937   0.15202155 
   53100   -943.76183     42.62173    -901.1401    1526.5558   -3079.7839    2.1627255    104.88673   0.14084726 
   53200   -944.64484    48.527334   -896.11751    1738.0731   -4917.0828     2.160671    103.80881   0.14133007 
   53300   -945.47943    51.465334   -894.01409    1843.3016    7520.6828    2.1896516    103.42633   0.13959553 
   53400   -947.69783    44.157737   -903.54009      1581.57    1887.8275    2.1853098    103.66223    0.1413735 
   53500    -940.6244     43.06783   -897.55657    1542.5335   -14963.386    2.1252886    110.52048   0.16126802 
   53600   -944.38549     49.52116   -894.86433    1773.6684    5753.4273    2.1809605    109.54091   0.14724145 
   53700   -943.48547    47.123765    -896.3617    1687.8024    15191.665    2.2053852    109.57001   0.14326644 
   53800   -944.87328    42.646268   -902.22701    1527.4347   -10185.847     2.149057    106.82672   0.13798462 
   53900   -949.32003    42.214475   -907.10555    1511.9694   -5988.6126    2.1679585    107.20176   0.13736621 
   54000    -945.8719    48.836388   -897.03551    1749.1423    5651.2508    2.1855727    105.63793   0.14016485 
   54100    -945.6059    49.243472   -896.36242    1763.7226   -397.02231    2.1689494    104.50335   0.13712866 
   54200   -941.66105    44.758747   -896.90231     1603.096   -3876.0759    2.1543073    104.77111   0.14871195 
   54300   -946.81961    43.271664   -903.54795    1549.8341    1031.5624    2.1768903    104.79142   0.12676135 
   54400   -948.87468    45.960044   -902.91464    1646.1221    5547.0004    2.1924944    106.53676   0.13805707 
   54500     -941.572    44.859061   -896.71294    1606.6889   -619.57674    2.1650827    108.70998   0.15221882 
   54600   -942.54228    46.203684   -896.33859    1654.8484   -4561.8931    2.1511766    108.50051   0.13189441 
   54700   -942.12492    42.856651   -899.26827    1534.9698    6729.4333    2.1826743    113.12756   0.14663404 
   54800    -948.8535    43.853238   -905.00026     1570.664    7938.9498     2.201414    108.33973      0.13311 
   54900    -941.0483    44.055743   -896.99256    1577.9169    -6641.407    2.1490503     109.6628   0.13259555 
   55000   -940.40196    43.997414   -896.40454    1575.8278   -4600.9841    2.1524329    109.72195   0.16104819 
   55100   -943.14163    45.968812   -897.17282    1646.4361    17001.248    2.2083703    101.42363   0.14700105 
   55200   -946.60878    40.311497   -906.29728    1443.8116    4783.3883    2.1932841    104.47967   0.13989137 
   55300   -944.06997    46.759022   -897.31095    1674.7386   -21183.425    2.1188443    107.44838   0.15063459 
   55400   -943.04765    47.490077   -895.55757    1700.9224    5634.0783    2.1793131    106.60934   0.13641149 
   55500   -945.99812     47.97065   -898.02748    1718.1347    10450.316    2.1969669    103.34729   0.13963712 
   55600   -943.74664    46.657282   -897.08936    1671.0946   -4993.5726    2.1553202    108.22669   0.14328502 
   55700   -938.30884    48.929376   -889.37947    1752.4728   -8482.5309    2.1340941    105.67427   0.13702346 
   55800   -944.13054    48.549687   -895.58085    1738.8737    5851.0968    2.1795761    101.80843   0.14545986 
   55900   -944.06104    46.307991   -897.75305    1658.5843    5647.3809    2.1851423    99.327731   0.13106238 
   56000   -942.58296    50.984419   -891.59854     1826.077   -7644.6582    2.1471668    97.457907   0.14633841 
   56100   -941.97015    50.509206   -891.46094    1809.0566   -5422.2273    2.1468292    108.98712   0.15115264 
   56200   -946.60508    49.055856   -897.54922    1757.0029    5286.6383     2.186073    101.14311   0.14522025 
   56300   -948.40685    51.778852     -896.628    1854.5307     1969.404    2.1779918    106.85087    0.1291975 
   56400   -936.42982     47.52674   -888.90308    1702.2355   -8316.7642    2.1386803    104.91695   0.15873706 
   56500   -946.97035    47.703348     -899.267    1708.5609    1079.5654    2.1809212    103.41164   0.13401033 
   56600   -947.80937    50.291682   -897.51769    1801.2657    3879.0366    2.1892748     104.7946   0.15228005 
   56700   -940.65514    46.605677   -894.04946    1669.2463   -4775.9306    2.1558655     102.7014   0.16201691 
   56800   -940.41252    51.054312   -889.35821    1828.5803   -6209.3221    2.1445513    101.13438   0.15862107 
   56900   -944.63483    44.873595   -899.76123    1607.2094    14751.849     2.210933    102.78005   0.14904595 
   57000   -943.30931    46.809246   -896.50006    1676.5374    726.77642    2.1707679    101.18304   0.14298481 
   57100   -943.24317    47.614822   -895.62835    1705.3903   -15542.477    2.1290392    103.14176   0.14392834 
   57200   -948.08606    43.977559    -904.1085    1575.1167    6915.7932    2.1978627    108.47493   0.14672692 
   57300   -945.61726    45.307127   -900.31013     1622.737    13577.582    2.2102834    109.79883   0.15093174 
   57400   -943.42185    47.448985   -895.97287    1699.4506   -8385.5576     2.150143    106.10842    0.1462567 
   57500   -939.79881    44.041493   -895.75731    1577.4066   -4361.9294    2.1552233    106.65302   0.16138003 
   57600   -952.35302     48.41118   -903.94184    1733.9129    6079.4342    2.2031364    100.50118   0.13944552 
   57700   -942.94294       47.117   -895.82594    1687.5601   -584.26954    2.1731558    104.54731   0.16994103 
   57800   -939.40207    44.027126   -895.37494     1576.892   -863.48345    2.1677713    104.57466   0.16344706 
   57900    -947.4056    48.243832   -899.16177    1727.9191   -800.58104    2.1787098    104.67653   0.14115797 
   58000   -949.66844    45.507456   -904.16098     1629.912   -135.39497    2.1888044    105.08167   0.14771206 
   58100   -939.64745    46.129587   -893.51787    1652.1945   -2745.4466    2.1569937    109.93711   0.15516515 
   58200   -941.80603    46.342843   -895.46319    1659.8326    4695.3314    2.1794971    106.05116   0.15969917 
   58300   -944.46643    46.318569   -898.14786    1658.9632    3459.3408    2.1855614    110.07769   0.15243164 
   58400    -945.0749    47.528376   -897.54653    1702.2941   -4427.6346    2.1625988    107.02572   0.14142133 
   58500   -938.82714    49.553937    -889.2732    1774.8423   -6806.0554     2.142969    103.09634   0.14395731 
   58600   -942.04011    46.548523   -895.49159    1667.1993    6846.9188    2.1875479     104.8643   0.15764759 
   58700   -950.05901    52.652686   -897.40633    1885.8283    3076.7715    2.1860238    106.77298   0.13836782 
   58800    -938.6848    45.936148   -892.74865    1645.2662   -7257.4044    2.1412495    106.97968    0.1537448 
   58900   -937.96626    48.378465    -889.5878    1732.7412   -5462.9755    2.1461554    114.02959   0.15169172 
   59000   -945.15025     48.93173   -896.21852    1752.5571    14411.905    2.2034105    103.82815   0.13469371 
   59100   -942.27791    45.005937   -897.27197    1611.9495    3626.6381    2.1807356    100.23573   0.13755126 
   59200   -938.92662    48.266723    -890.6599     1728.739   -15416.618      2.12211    106.35898   0.14186688 
   59300    -939.8391    48.779564   -891.05953    1747.1071    2178.3194    2.1655065    104.25149   0.13242787 
   59400   -941.75237    44.759532   -896.99284    1603.1241    15187.996    2.2095184    99.345619    0.1550832 
   59500   -941.46213    44.868231    -896.5939    1607.0173    -2617.017    2.1603878    105.46954   0.13286567 
   59600   -938.21271    45.083079   -893.12963    1614.7124   -7004.6952    2.1444056     108.9728   0.13390698 
   59700   -947.89236    44.101139   -903.79122    1579.5429    6565.9659    2.1960988    101.57401   0.14375967 
   59800    -945.1615     46.02396   -899.13754    1648.4113    1395.1285    2.1780583    107.18008   0.13710861 
   59900   -941.55431    46.393765   -895.16054    1661.6564   -1641.3024    2.1612687    111.75144   0.13429883 
   60000   -944.49795    48.242665   -896.25529    1727.8773   -374.52353    2.1688426    104.87432   0.13085371 
   60100    -947.0704    43.148232   -903.92217    1545.4132    7095.6542    2.1980551    99.207553   0.12022926 
   60200   -941.81233    46.373429   -895.43891     1660.928   -1984.3724    2.1604546     98.60535    0.1295569 
   60300   -943.42367    47.587239   -895.83643    1704.4023   -4758.9068    2.1585029    101.34265    0.1497418 
   60400    -946.4188    44.122846   -902.29596    1580.3203    6653.3757    2.1907745    106.15689   0.12814155 
   60500   -946.55768    46.494965   -900.06271     1665.281    4343.4937    2.1848471    102.25281   0.13964385 
   60600   -943.33932     48.54581   -894.79351    1738.7349   -7108.7366    2.1497182    103.59785     0.145835 
   60700   -944.66829    46.688673   -897.97962    1672.2189   -4725.6099    2.1591529    110.84846   0.12611024 
   60800   -943.19195    42.921791   -900.27016    1537.3029    12722.123    2.2046904    105.90073   0.16157174 
   60900   -940.52906    50.921678   -889.60739    1823.8298   -2904.8361    2.1564023    108.74603   0.12838668 
   61000   -943.24323    47.553625   -895.68961    1703.1984    -13059.05    2.1354652    105.87776   0.12306391 
   61100   -944.05777    47.340216   -896.71755    1695.5549    5569.2255    2.1874579    102.26912   0.17753166 
   61200   -944.23344    54.834032   -889.39941    1963.9562    9437.7635    2.1890587    102.32616   0.15692192 
   61300   -938.50695    46.395811   -892.11114    1661.7297   -11208.642    2.1340078    108.09322   0.18137601 
   61400   -943.60268    44.600513   -899.00217    1597.4286   -4572.1494    2.1597231    110.36697   0.15355416 
   61500    -942.4843    49.360207   -893.12409    1767.9036    9719.4104    2.1917102    106.16776   0.15236579 
   61600   -939.45734    48.054328   -891.40302    1721.1318    242.02137    2.1603508    113.82788   0.17814628 
   61700   -948.25678    48.439129   -899.81765    1734.9139   -840.40707    2.1666579    119.39205   0.14965604 
   61800   -939.68408     44.68897   -894.99511    1600.5968    3743.9112    2.1742103    129.05105   0.17106816 
   61900     -941.182     50.53474   -890.64726    1809.9711    450.07734     2.166028    121.93188   0.17890938 
   62000   -948.72703    48.447583   -900.27945    1735.2167   -2771.3069    2.1738057    123.71279   0.16040427 
   62100   -944.42803     46.27142   -898.15661    1657.2745   -5579.8253    2.1621171    124.08053   0.17853822 
   62200   -942.26773    49.540086   -892.72764    1774.3462    543.56217    2.1697589    117.35739   0.18728743 
   62300   -945.38042    47.022774   -898.35765    1684.1852   -537.88082    2.1759292    117.58082   0.16744271 
   62400   -943.56163    43.256176   -900.30545    1549.2794   -1586.5257    2.1691514    116.74675   0.17334125 
   62500   -939.23423    46.337753   -892.89647    1659.6503    584.02998    2.1677313    117.43574   0.18233639 
   62600   -942.10816     45.38796    -896.7202    1625.6321    4475.0381    2.1822157    107.01883   0.16718308 
   62700   -943.05685    41.748092   -901.30876    1495.2652    -1125.572    2.1656438     113.4762   0.16477063 
   62800   -942.03476    49.143166    -892.8916      1760.13   -5620.5319    2.1491619    120.17224    0.1879135 
   62900   -943.66784    48.657304   -895.01053    1742.7282    8791.7798    2.1903924     116.9602   0.18906483 
   63000   -943.32665      43.4403   -899.88635     1555.874    3109.9516    2.1829564    119.27258   0.18386058 
   63100    -939.4867    48.224622   -891.26208    1727.2311   -11342.375    2.1341232    113.53693   0.18360335 
   63200   -942.28605    48.519154    -893.7669    1737.7801   -1741.3621    2.1644144    114.89699   0.17368251 
   63300   -940.37816    43.763308   -896.61485     1567.443    12427.365    2.1989352    110.51978   0.17046343 
   63400   -941.57565    46.835451    -894.7402     1677.476   -3021.3623     2.156199    159.09674   0.13194252 
   63500   -936.00187    48.798796   -887.20307    1747.7959   -8305.3736    2.1314367    154.23393   0.15066681 
   63600   -936.26358    48.018986   -888.24459     1719.866    4913.9181    2.1673029    161.70917   0.14405403 
   63700   -941.58825    47.607183   -893.98106    1705.1166    5920.5724    2.1772477    157.05294   0.13884337 
   63800   -942.78388    46.502318   -896.28156    1665.5444   -4963.7002    2.1568482    160.78767   0.12879354 
   63900   -945.18607    47.048166   -898.13791    1685.0947   -2420.0687    2.1647892    157.19602   0.13711524 
   64000   -948.99598    43.119374   -905.87661    1544.3796    6645.7315    2.1982536    154.93205   0.14020215 
   64100   -943.93393    41.576895   -902.35703    1489.1336     4656.393    2.1825774    158.33441    0.1468779 
   64200   -945.50568    47.834526   -897.67115    1713.2593    -5128.635    2.1586699    146.94939   0.13658867 
   64300   -945.59102    49.215569   -896.37545    1762.7232   -1285.3429    2.1719665    151.77651    0.1338689 
   64400   -946.40727    50.375281   -896.03199    1804.2599    7263.2674    2.1940332    154.39868    0.1333867 
   64500   -936.05302    52.137391   -883.91563    1867.3723   -6964.4347    2.1324589    151.68666   0.13597941 
   64600   -941.90192    50.800686   -891.10123    1819.4964   -5541.8538    2.1537741    153.76939   0.13919617 
   64700    -942.0244    46.906663   -895.11774    1680.0266    8075.6128     2.191594    154.55605   0.14372746 
   64800   -944.59142    46.720447   -897.87097     1673.357    1145.5694    2.1743271    156.58063   0.15687581 
   64900    -940.2604    47.497234   -892.76317    1701.1787   -8049.2637    2.1455271    160.38498   0.16650192 
   65000      -936.75    47.023342   -889.72666    1684.2056    3229.6236    2.1687411    162.07338   0.18618987 
   65100   -938.38259    42.325479   -896.05711    1515.9452    8027.0511    2.1858223    157.82672   0.16317559 
   65200    -946.4508    48.433618   -898.01719    1734.7165   -4389.1542    2.1680887    157.65105   0.14434803 
   65300   -939.70817    50.100719   -889.60745    1794.4261   -4551.5792    2.1522811    159.42664   0.15810974 
   65400   -940.01526    47.834866    -892.1804    1713.2714    5628.4948    2.1809336    153.13249   0.14894197 
   65500   -942.83034    45.812183   -897.01816    1640.8263    872.69194    2.1753272    151.70221   0.15099373 
   65600   -943.79755    46.910191   -896.88736    1680.1529   -6960.8042    2.1528193    160.88447   0.14219779 
   65700    -938.8042    50.067362   -888.73684    1793.2313    3997.0711    2.1710649    153.48881   0.15276137 
   65800   -943.91759    50.325012   -893.59258    1802.4594    9395.8682    2.1919716    148.07717   0.15215276 
   65900   -940.95284    42.964534    -897.9883    1538.8338   -9911.5297    2.1398678     164.4959    0.1500355 
   66000   -941.04408    44.586575   -896.45751    1596.9294    -1309.194    2.1596966    164.39016   0.13806036 
   66100   -943.92486    52.505929   -891.41893    1880.5719    14617.843    2.2023057    160.75196   0.13745122 
   66200   -938.39869    49.265951   -889.13273    1764.5277   -4019.9102    2.1440587    151.53676   0.13060362 
   66300   -943.37838    44.377913   -899.00047    1589.4559   -4343.1627    2.1576312    164.96876   0.12394201 
   66400   -943.03412    46.313763   -896.72036     1658.791    4882.5123    2.1799179    157.91077   0.12784192 
   66500   -943.79903     50.46807   -893.33096    1807.5833    2855.6187    2.1706728    156.21001   0.12985216 
   66600   -935.56767    49.991431   -885.57624    1790.5118    -4313.912    2.1387166    164.17307   0.15313533 
   66700   -942.84087    45.780865      -897.06    1639.7046    4229.4079    2.1787912    152.07237   0.14345805 
   66800   -942.46766    45.534372   -896.93329    1630.8761    2467.8231    2.1718578    150.68866   0.15084836 
   66900   -943.17804    46.987615   -896.19043     1682.926   -1587.0364    2.1614289    157.71197   0.13694336 
   67000   -943.96839    52.931917   -891.03647    1895.8293    1816.1137    2.1681164    160.50432   0.13281082 
   67100   -939.19809    51.812741   -887.38535    1855.7445   -2113.1968    2.1538347    165.17733    0.1364704 
   67200   -939.85503    44.304303   -895.55073    1586.8195   -1948.6364    2.1604298    161.53838   0.14071625 
   67300   -945.90979    48.741218   -897.16857    1745.7337    4792.8288    2.1852369    158.84907    0.1306665 
   67400   -947.00567    49.589901   -897.41577    1776.1304    1244.6093    2.1830415    154.09759   0.14139958 
   67500   -937.26229    49.887508   -887.37478    1786.7896   -13820.308    2.1212545    158.76333   0.15308152 
   67600   -943.34407     46.05626   -897.28781    1649.5682    2795.1204    2.1813512    149.50295   0.15927805 
   67700   -945.61812    49.281484   -896.33664     1765.084     11652.28    2.2083988    155.31987   0.15075466 
   67800   -943.53159    46.885605   -896.64599    1679.2723   -9857.1607    2.1506889    152.01382   0.15107337 
   67900   -935.98832    49.504041   -886.48428    1773.0552   -8143.2247    2.1341814    158.95543   0.14235998 
   68000   -942.91065    47.719341   -895.19131    1709.1337    12554.557     2.201553    160.70861   0.14310647 
   68100   -946.86893    49.722352   -897.14658    1780.8743   -1052.4556    2.1721308    156.32179   0.14496139 
   68200   -943.90647    47.367231   -896.53924    1696.5224   -7019.2256    2.1543778    156.65209   0.15484976 
   68300   -944.06435    53.058161   -891.00619    1900.3509    2395.4386    2.1760497    161.56746   0.15290198 
   68400   -938.38555    50.387646    -887.9979    1804.7027     2527.269    2.1649386    158.46407   0.16094396 
   68500   -942.18242    46.158666   -896.02376     1653.236   -3327.2628    2.1584452    162.47734   0.16475209 
   68600   -944.09783    47.003843   -897.09399    1683.5072    1682.5175    2.1807513    163.70096   0.16319801 
   68700   -943.46167    45.732956   -897.72872    1637.9886    4179.7392     2.186713    159.97173   0.16110447 
   68800   -936.29201    49.919441   -886.37257    1787.9334   -4988.0195    2.1398882     162.0101   0.13961046 
   68900   -938.43543    45.029016   -893.40641    1612.7761    4866.0751    2.1733804     159.4416   0.14630923 
   69000   -946.16252    49.372331   -896.79019    1768.3378    2551.7096    2.1822935    157.22492   0.13652299 
   69100    -943.0179    44.246185   -898.77172    1584.7379   -3268.4706    2.1636104    155.64898   0.16544982 
   69200     -941.709    53.141555   -888.56745    1903.3378   -4528.1295      2.15105    154.56429   0.14179681 
   69300   -944.28106    51.421862    -892.8592    1841.7446    14262.523    2.2025423    148.15729   0.16897705 
   69400   -944.95445    47.538023   -897.41643    1702.6396   -5197.8502    2.1565769    156.50672   0.13042626 
   69500   -942.82775     45.61881   -897.20894    1633.9003   -14219.126    2.1309631    167.30793    0.1521994 
   69600   -940.99717    50.418279   -890.57889    1805.7999    15786.989    2.1988643    161.82764   0.15895848 
   69700   -940.06691    51.084667   -888.98224    1829.6675    5366.9069    2.1737699    155.11682   0.13132766 
   69800   -945.24483    47.737373   -897.50746    1709.7796   -11876.603    2.1448878    157.07165   0.13338031 
   69900   -942.62799    46.036843   -896.59115    1648.8728    2449.8871    2.1752177    154.77267   0.13511098 
   70000   -945.20775    50.875194   -894.33256    1822.1649    4895.2696     2.187608    156.73019   0.13911687 
   70100   -938.18329    52.624319   -885.55897    1884.8123   -7439.5148    2.1405274    157.47945   0.16166821 
   70200   -944.16338    48.065549   -896.09783    1721.5336    1434.2048    2.1736422    147.56891   0.14732135 
   70300   -943.15683    46.466484   -896.69035    1664.2609    6933.6162    2.1861857    156.76004   0.14789764 
[...]
  186800   -949.71473    46.611803   -903.10293    1669.4658    6335.0258    2.2004373    963.58243   0.14948035 
  186900   -939.12617    45.144075    -893.9821    1616.8971   -3526.5582    2.1544181    974.95106    0.1655763 
  187000   -944.79971    48.724009   -896.07571    1745.1173   -4605.9935    2.1637677    971.97039    0.1526368 
  187100   -950.60931    49.925531   -900.68377    1788.1515    4027.3687    2.1946767    959.53042   0.11872388 
  187200    -941.4761    50.046095      -891.43    1792.4696   -1480.2777    2.1644228    963.49701   0.13622861 
  187300   -943.65615    49.453968   -894.20218    1771.2618    -5234.694    2.1580021    971.39559   0.15015622 
  187400   -943.80712    44.688909   -899.11821    1600.5947    1416.2589    2.1753345    966.56938   0.14453627 
  187500   -945.15295    49.567841   -895.58511    1775.3403    3232.2011    2.1845347    951.40701     0.161365 
  187600   -939.48137    48.956911   -890.52446     1753.459    -6278.474     2.146731    1009.8421   0.17835703 
  187700   -944.22606    44.748429   -899.47763    1602.7265   -9918.7087     2.150263     987.1722   0.15227515 
  187800   -946.28371    50.589957   -895.69375    1811.9488    14217.617    2.2080575    947.57145   0.15430554 
  187900   -943.40351    51.725289   -891.67822    1852.6123     4285.125    2.1760391    930.84582   0.14099244 
  188000   -937.19684     46.19526   -891.00158    1654.5467   -15303.333      2.11298    922.90702   0.16269121 
  188100   -941.34753    42.475534   -898.87199    1521.3196    5349.5827    2.1820927    961.46288   0.13454286 
  188200   -944.46274    51.675941   -892.78679    1850.8448    8824.4865    2.1941876    1004.9282   0.14805366 
  188300      -944.04    50.404663   -893.63533    1805.3122   -7932.5846    2.1501193    1046.3142    0.1761841 
  188400   -945.38729    43.485757   -901.90153    1557.5021   -5521.6543    2.1627379    1034.1193    0.1582578 
  188500   -940.74822    46.294111   -894.45411    1658.0872    6942.3652    2.1803598    1053.3156   0.16696303 
  188600   -940.85636     47.43107   -893.42529    1698.8089    4847.8215     2.173456    1032.9599   0.17412523 
  188700   -946.06688    44.015099   -902.05178    1576.4612   -5260.3171    2.1620753    1077.7846   0.15858953 
  188800   -943.87326    48.855809   -895.01745    1749.8379   -3656.6829    2.1606683    1035.7663   0.16463031 
  188900   -938.65665    46.840373   -891.81628    1677.6523    9803.1844    2.1856006    994.61633    0.1623372 
  189000    -940.7969    40.395045   -900.40186     1446.804    2277.5764    2.1740302    1027.2705    0.1508046 
  189100    -940.6555    44.309383   -896.34612    1587.0014   -6227.6266    2.1494372    1011.5196   0.14486087 
  189200   -943.16215    51.437849    -891.7243    1842.3172    3197.4876    2.1745375    1012.5325   0.13938257 
  189300     -944.301    46.320312   -897.98068    1659.0256    6699.5019    2.1896399    1018.2078   0.14452999 
  189400   -946.22513    47.584196   -898.64093    1704.2933   -7150.4724    2.1551598    1014.6538   0.13960278 
  189500   -939.17152     48.78519   -890.38633    1747.3086   -6569.5549    2.1428913    1011.7048   0.14313072 
  189600   -945.02134    46.827423   -898.19392    1677.1885    12402.293    2.2063543    997.36397   0.16162254 
  189700   -946.88355    48.617935   -898.26561    1741.3181    4076.2497    2.1843693    993.10728   0.13268128 
  189800    -936.9897    44.579473   -892.41022     1596.675   -16870.175     2.113579    1010.0581   0.14603986 
  189900   -946.23801    50.956378   -895.28163    1825.0727   -1158.9013    2.1695956    1010.5384   0.13480395 
  190000   -946.30824    48.063818   -898.24442    1721.4716     20738.26    2.2244631    989.89296   0.13494965 
  190100   -939.34658    44.040632   -895.30595    1577.3757     -4236.28    2.1497095    1010.0643   0.13496093 
  190200   -942.70802    48.953646   -893.75437    1753.3421   -8273.3173    2.1417477    1024.6677   0.13671931 
  190300   -946.89796    45.353645   -901.54432    1624.4031    6646.5468    2.1922267    1013.0086   0.13758233 
  190400   -945.31945    51.001721   -894.31773    1826.6967    1263.3191    2.1728639     999.9301    0.1484028 
  190500    -944.5101    49.911454   -894.59864    1787.6473   -6616.7946     2.152237    1012.7053   0.14359954 
  190600   -946.86292    45.357439   -901.50548     1624.539   -2508.0827    2.1735797     986.0066   0.13198828 
  190700   -945.24838    49.126855   -896.12153    1759.5458    6763.5057    2.1873545     993.1023   0.12433364 
  190800   -944.57035    51.930873   -892.63947    1859.9756   -3966.5354    2.1568961    1009.6025   0.12128826 
  190900   -947.77935    47.017885   -900.76147    1684.0101   -9406.7476    2.1535192    1025.4715   0.12305731 
  191000   -945.88064    49.414562   -896.46608    1769.8504     3144.453    2.1803265    999.14472   0.12761414 
  191100   -941.44467    51.076284   -890.36838    1829.3672     4395.996     2.173535    992.09293   0.14371559 
  191200   -945.43691    45.749349   -899.68756    1638.5758    -5291.522    2.1596458    1017.0691   0.13412724 
  191300    -941.6932    44.538652   -897.15454     1595.213   -940.64439    2.1601782    1024.9383    0.1397878 
  191400   -939.98647    49.821428   -890.16504    1784.4229    8014.5027    2.1757071    1013.7315    0.1386108 
  191500   -942.70158    43.197153   -899.50443    1547.1654    4041.1549    2.1806586    982.15204   0.14251335 
  191600    -944.2614    45.732486   -898.52892    1637.9718   -8847.4909    2.1433032    1009.2456   0.12902257 
  191700     -943.801    51.284903    -892.5161    1836.8392   -108.79635    2.1640678    981.68188   0.11963702 
  191800   -947.72797    48.482618   -899.24535    1736.4716    11449.006    2.2041686     981.0865   0.13267163 
  191900    -946.6861    46.095932   -900.59017    1650.9891   -5957.6682    2.1565923    1016.0875    0.1212385 
  192000   -941.57245    47.446657   -894.12579    1699.3672   -11917.798    2.1299066    1012.5704   0.13134731 
  192100   -945.06332    48.113065   -896.95025    1723.2355    12168.087    2.1998036     986.5001   0.13954618 
  192200   -950.02983    49.406242   -900.62359    1769.5524    9493.4208    2.2030677    979.17733    0.1284793 
  192300   -943.77768    50.697394   -893.08028    1815.7968   -14622.828    2.1245791    1019.0241   0.12617319 
  192400   -943.96841    49.062332   -894.90608    1757.2348   -2788.1583     2.157138    1015.7414   0.13137089 
  192500   -947.94115    48.884901   -899.05625    1750.8799    7328.7905    2.1948063    986.24055   0.13232843 
  192600   -941.70249    49.785025   -891.91746     1783.119   -920.60841    2.1616269    1020.5509    0.1460802 
  192700   -942.60757    48.019052   -894.58852    1719.8683    -4219.602    2.1524985     1016.773   0.14147328 
  192800   -946.12085    46.287009   -899.83385    1657.8328    1273.0786    2.1780607    1000.3882   0.13482196 
  192900   -943.35532    50.553564   -892.80175    1810.6453    3779.4294    2.1795458    987.57551   0.13837238 
  193000   -942.46035    48.199304   -894.26104    1726.3243   -2929.8972    2.1566354    997.31953   0.14762762 
  193100   -946.76753     45.49664   -901.27089    1629.5247   -3875.1173    2.1671775    1025.6844   0.15426088 
  193200   -943.57887    49.743689   -893.83518    1781.6386    2953.8534    2.1759094    1007.8362   0.14730648 
  193300   -944.24687    48.878403   -895.36846    1750.6471    576.42735    2.1718551    1000.5348    0.1440668 
  193400   -946.88374     44.04882   -902.83492     1577.669   -5276.9801    2.1646182    1007.5495   0.13130696 
  193500   -945.49241    50.480113    -895.0123    1808.0146   -2873.0977    2.1642972    1010.8282   0.13234518 
  193600   -944.91037    50.162633   -894.74774    1796.6436    5878.1287    2.1836227    1003.0964   0.15041518 
  193700   -949.66286    46.934575   -902.72829    1681.0263   -2190.4787    2.1758189    995.54188   0.13057144 
  193800    -942.6145    48.051611   -894.56289    1721.0344   -11043.103    2.1395455    1021.1704    0.1423398 
  193900   -941.64441    47.835522   -893.80889    1713.2949      7106.17    2.1827202     990.7813   0.15911917 
  194000   -950.21697    50.669601   -899.54737    1814.8013    7291.6406    2.1958337    997.35007    0.1408928 
  194100   -940.72369    47.888069   -892.83562     1715.177   -9925.1676     2.135193    1031.4043   0.16127135 
  194200   -940.67835    47.549187   -893.12916    1703.0395   -3840.4669    2.1532293    1006.1274   0.15027678 
  194300   -946.43548    48.641064   -897.79441    1742.1465    12110.686    2.2038933    997.78344   0.12752911 
  194400   -947.73715    50.515211   -897.22194    1809.2717   -1713.4644    2.1703471     986.9685   0.12556188 
  194500   -940.36468    49.499065   -890.86561     1772.877   -15017.556    2.1214715    1014.6028   0.11614653 
  194600    -946.2112    45.830969   -900.38023    1641.4991     6883.226    2.1889126     990.4394   0.13323055 
  194700   -944.49068    47.224178   -897.26651    1691.3988    8555.1929    2.1886137    993.41003   0.14349817 
  194800   -941.94909    48.463975   -893.48511    1735.8038   -4861.2694    2.1482778    1019.6641   0.14827047 
  194900   -945.95046    44.400826   -901.54964    1590.2766   -3561.6811    2.1649497    1016.1833   0.13228482 
  195000    -946.1456    46.022008    -900.1236    1648.3414    3916.8038    2.1819621    1005.6609   0.12309195 
  195100   -944.95689    51.012321   -893.94457    1827.0763    1361.3398    2.1688812     998.1498   0.12538702 
  195200   -946.25941    47.635584   -898.62383    1706.1339   -4724.4857    2.1578197    1008.1049   0.11543834 
  195300   -950.95681    48.459101   -902.49771    1735.6293   -2337.2598    2.1761013    1006.9568   0.11655154 
  195400    -944.2267    50.949139   -893.27756    1824.8134     1585.453    2.1683218    1005.2661   0.12047969 
  195500   -943.77828    46.598112   -897.18017    1668.9754   -1061.5454    2.1665813    1009.3319   0.13458594 
  195600   -946.96387    44.613986   -902.34988    1597.9112   -785.12813    2.1725575     994.6254   0.13008762 
  195700   -942.72241    50.304328   -892.41808    1801.7186   -721.62005    2.1628977    1004.1031   0.13849326 
  195800   -938.69557    44.073496   -894.62208    1578.5528     10312.08    2.1843345    1010.2913   0.13270627 
  195900   -947.41083    47.530986   -899.87984    1702.3875    -5013.109    2.1641772    1000.1879   0.12573499 
  196000   -940.72757    48.833332   -891.89424    1749.0329   -8974.4595    2.1421086    1002.6568   0.13963325 
  196100   -942.65111    50.404706   -892.24641    1805.3138    9927.4906    2.1888059    977.51323   0.12168999 
  196200   -944.22452    46.555555   -897.66896    1667.4512    5224.4481    2.1831723     998.9701    0.1335929 
  196300   -940.26732    43.086956   -897.18036    1543.2185   -11329.486    2.1349217    1021.8061   0.14948287 
  196400   -939.32194    49.877335    -889.4446    1786.4253   -2024.0074    2.1527041    1006.1502     0.140471 
  196500   -949.48787    50.943424   -898.54444    1824.6087    14242.244    2.2115958    986.06127   0.13436261 
  196600   -947.02817    48.023649   -899.00453    1720.0329   -7117.9924    2.1574794    1013.5107   0.12826756 
  196700   -940.23892    46.368298   -893.87062    1660.7443   -7389.4958    2.1409336    1002.2056   0.13376135 
  196800   -946.69948    46.477167   -900.22231    1664.6436    6708.4727    2.1894458    989.25515   0.12439517 
  196900   -946.27643     45.16669   -901.10974     1617.707    4293.3833    2.1841078    1012.1384    0.1379762 
  197000   -944.73045    49.726176   -895.00427    1781.0113   -7106.2005    2.1544224    1008.3108    0.1279703 
  197100    -943.9601    47.565318   -896.39478    1703.6172    236.39928    2.1661995    1007.9565   0.12672486 
  197200   -951.12346    47.940318   -903.18314    1717.0483    4350.0988    2.1943498    1000.6091   0.12627981 
  197300   -941.88139    48.029027   -893.85236    1720.2256   -501.00655    2.1615892    976.47337   0.13843905 
  197400   -941.73175    45.617575   -896.11417    1633.8561   -2433.7915     2.158594    1013.7293   0.14532473 
  197500   -947.02298    45.319799   -901.70318    1623.1909    3777.6018    2.1884703    997.77829   0.15067987 
  197600   -944.80802    51.752473   -893.05554    1853.5859    1528.2584    2.1751869    1014.3036   0.15457807 
  197700   -940.57018    46.350709   -894.21947    1660.1143   -2787.8208    2.1602767    1006.3385   0.17542635 
  197800   -948.17557    48.456617   -899.71896    1735.5403   -6906.7988    2.1632991    1003.8192   0.14263882 
  197900   -942.42223    46.891584   -895.53065    1679.4865    9045.2403    2.1878978     996.4018   0.16615181 
  198000   -938.05316     47.85841   -890.19475    1714.1147    4285.7614    2.1667815    1006.5778   0.15917596 
  198100   -940.75421    42.078569   -898.67564    1507.1018   -9047.3142    2.1430479    1028.0248   0.15080277 
  198200   -940.47689     43.85085   -896.62604    1570.5784    3194.2516    2.1757839    1026.9134   0.14288765 
  198300    -942.2429    53.508508    -888.7344    1916.4807    11742.384    2.1949425    983.91744   0.14390196 
  198400   -942.56351    46.439764   -896.12374    1663.3039   -8217.0522    2.1491505    1012.5445   0.15385445 
  198500   -943.79964    44.040222   -899.75942    1577.3611   -10804.351    2.1463433    1015.1943   0.14880977 
  198600   -945.20599    52.887846   -892.31815    1894.2508    7241.8729    2.1883311    999.65842   0.15878338 
  198700   -944.87142    48.740451   -896.13097    1745.7062    3560.9753    2.1828826     990.1356   0.16589059 
  198800   -947.18353    44.710322   -902.47321    1601.3616    -5546.326    2.1623221    1011.6215   0.15281252 
  198900   -945.06413    50.235479   -894.82865    1799.2527   -653.70172    2.1685514    1016.6754   0.12948378 
  199000   -944.53226    49.989741   -894.54252    1790.4512    6038.9276    2.1828064    1018.7676   0.14386519 
  199100   -945.81096    42.489108   -903.32185    1521.8058    918.46855    2.1805704    1005.9832   0.12371371 
  199200   -940.44107    44.775263    -895.6658    1603.6876   -2119.2513     2.155773    1043.5313   0.13856527 
  199300    -943.7119    49.950927   -893.76098     1789.061    2319.5592     2.175763    1003.8826   0.14027769 
  199400     -949.619    48.243797    -901.3752    1727.9178    3090.5276    2.1885165    1014.8431   0.13394295 
  199500   -944.29319    49.400852   -894.89234    1769.3593   -6271.0028    2.1560493    1029.3694   0.14664369 
  199600   -944.25948    50.801611   -893.45787    1819.5295   -935.67301    2.1654997     1005.551   0.15207122 
  199700   -945.01386    46.043807   -898.97005    1649.1222    4590.9795    2.1872131    991.03294   0.14855091 
  199800   -943.84605    45.649921   -898.19613    1635.0146   -31.668106    2.1710103     1008.359   0.14172262 
  199900   -940.30325    49.313048   -890.99021    1766.2145   -10865.668    2.1332456    1009.8973   0.12278606 
  200000   -946.79238    47.899926   -898.89246    1715.6016    5590.0041    2.1895044    992.89466   0.12604255 
  200100    -945.4491      48.3642    -897.0849    1732.2303    13114.614    2.2059091    987.23646   0.12564336 
  200200   -938.56669    46.541959   -892.02473    1666.9642   -11856.601    2.1312511    1019.4293   0.13768188 
  200300   -938.42047    43.165268    -895.2552    1546.0234   -6114.6979    2.1399669    998.89843   0.13216959 
  200400   -945.36825    46.562449    -898.8058    1667.6981    13913.947    2.2053683     1004.947   0.13684721 
  200500   -941.94654    47.625127   -894.32141    1705.7594     4844.572    2.1778493    997.10377   0.14969442 
  200600    -945.1106    50.422161   -894.68844     1805.939   -14398.551    2.1343612    1013.0346   0.13867706 
  200700   -945.59547    42.620421   -902.97505    1526.5089    2133.4833    2.1809546    997.66439   0.12265544 
  200800   -944.21146    49.381719   -894.82974    1768.6741    6987.9736    2.1859906    1008.0509   0.14927137 
  200900   -948.25527    52.844752   -895.41051    1892.7074   -5427.3762    2.1578978    1000.8547   0.11823593 
  201000   -949.49379    45.930845   -903.56295    1645.0763   -6015.6137    2.1665073    1017.9855   0.11401724 
  201100   -944.68654    47.259524   -897.42701    1692.6648    3620.2863    2.1823869    999.51457   0.13850351 
  201200    -945.6201    51.833083   -893.78702    1856.4731    3714.0198    2.1782411    1030.4518    0.1362456 
  201300   -947.42274    46.811607   -900.61113     1676.622   -5888.4098    2.1620381    1005.4851   0.13825397 
  201400   -948.58698    49.744625   -898.84235    1781.6721   -4963.3529    2.1659912    1008.4734   0.14480881 
  201500   -943.08508    51.120195   -891.96489      1830.94    5606.1155    2.1793314    1012.5774    0.1468054 
  201600   -944.23967    46.329136   -897.91054    1659.3417   -2918.2652    2.1675128    998.38436   0.12795504 
  201700   -947.57194    48.134904   -899.43704    1724.0177   -7957.9108    2.1545284    1010.1318   0.12049818 
  201800   -939.33692    49.860858   -889.47606    1785.8351    6756.0232    2.1722088    1028.0473    0.1314303 
  201900   -942.88626    47.833525   -895.05273    1713.2234    12686.463    2.2012153    982.23856   0.14666986 
  202000   -941.81239    42.059532   -899.75286    1506.4199   -12756.611    2.1410524    1024.7135   0.13071778 
  202100   -941.61319    47.678031   -893.93516    1707.6542   -11621.774    2.1380519    1020.9131   0.14970224 
  202200   -943.57504    54.667911   -888.90713    1958.0063    17596.346    2.2050399     993.4508   0.13116596 
  202300   -944.95735    45.743823   -899.21353    1638.3778    6826.8403    2.1850996    990.40271   0.13403262 
  202400   -944.49254    46.790704   -897.70184    1675.8733   -13878.721    2.1410648    1022.8313    0.1545913 
  202500   -940.43866    48.514085   -891.92458    1737.5986   -303.62495    2.1644519    998.18591    0.1573428 
  202600   -950.50612     49.58322    -900.9229    1775.8911    6094.3903    2.1968827    999.39103   0.14081415 
  202700    -946.4843    47.929926   -898.55438    1716.6761   -3914.1143     2.162606    1012.6239   0.12972399 
  202800   -942.76512     48.82385   -893.94127    1748.6933   -6682.3344    2.1525436    1005.4467   0.13760538 
  202900    -947.5495    47.198938   -900.35057    1690.4948    4055.8819    2.1884999    988.99774   0.14273185 
  203000   -947.20584    46.509322   -900.69652    1665.7952    1754.9568    2.1850789    998.67338   0.15283552 
  203100   -941.28359    47.606384    -893.6772     1705.088   -5815.1484    2.1453294    1015.2296   0.16454145 
  203200   -946.79951    48.060846   -898.73867    1721.3652   -1187.6299    2.1706073    993.11014   0.14505629 
Loop time of 141.311 on 1 procs for 200000 steps with 217 atoms

Performance: 366.850 ns/day, 0.065 hours/ns, 1415.316 timesteps/s
100.0% CPU use with 1 MPI tasks x no OpenMP threads

MPI task timing breakdown:
Section |  min time  |  avg time  |  max time  |%varavg| %total
---------------------------------------------------------------
Pair    | 135.68     | 135.68     | 135.68     |   0.0 | 96.01
Neigh   | 2.4816     | 2.4816     | 2.4816     |   0.0 |  1.76
Comm    | 0.91917    | 0.91917    | 0.91917    |   0.0 |  0.65
Output  | 0.072091   | 0.072091   | 0.072091   |   0.0 |  0.05
Modify  | 1.8603     | 1.8603     | 1.8603     |   0.0 |  1.32
Other   |            | 0.3024     |            |       |  0.21

Nlocal:    217 ave 217 max 217 min
Histogram: 1 0 0 0 0 0 0 0 0 0
Nghost:    951 ave 951 max 951 min
Histogram: 1 0 0 0 0 0 0 0 0 0
Neighs:    4184 ave 4184 max 4184 min
Histogram: 1 0 0 0 0 0 0 0 0 0
FullNghs:  8368 ave 8368 max 8368 min
Histogram: 1 0 0 0 0 0 0 0 0 0

Total # of neighbors = 8368
Ave neighs/atom = 38.5622
Neighbor list builds = 4189
Dangerous builds = 53
Total wall time: 0:02:23
