LAMMPS (3 Mar 2020)

    # ---------- Initialize simulation ---------------------
    units metal
    atom_style atomic
    dimension  3
    boundary   p p p
    read_data /home/modeler/RemLabs/Lab4/Problem2A_size_7/temp_1700/lammps.data
  orthogonal box = (0 0 0) to (28.63 28.63 28.63)
  1 by 1 by 1 MPI processor grid
  reading atoms ...
  1372 atoms
  read_data CPU = 0.00180953 secs

    pair_style eam
    pair_coeff * * /usr/share/lammps-stable/potentials/Ag_u3.eam
Reading potential file /usr/share/lammps-stable/potentials/Ag_u3.eam with DATE: 2007-06-11

    velocity  all create 1700 87287 dist gaussian

    # ---------- Describe computed properties------------------
    compute msdall all msd
    thermo_style custom step pe ke etotal temp press density c_msdall[4]
    thermo 100

    # ---------- Specify ensemble  ---------------------
    #fix  1 all nve
    fix  1 all nvt temp 1700 1700 0.05

    # --------- Compute RDF ---------------
    compute rdfall all rdf 100 1 1
    fix 2 all ave/time 1 2500 2500 c_rdfall[*] file /home/modeler/RemLabs/Lab4/Problem2A_size_7/temp_1700/lammps.rdf mode vector

    # --------- Run -------------
    timestep 0.001
    run 10000
Neighbor list info ...
  update every 1 steps, delay 10 steps, check yes
  max neighbors/atom: 2000, page size: 100000
  master list distance cutoff = 7.55
  ghost atom cutoff = 7.55
  binsize = 3.775, bins = 8 8 8
  2 neighbor lists, perpetual/occasional/extra = 1 1 0
  (1) pair eam, perpetual
      attributes: half, newton on
      pair build: half/bin/atomonly/newton
      stencil: half/bin/3d/newton
      bin: standard
  (2) compute rdf, occasional, copy from (1)
      attributes: half, newton on
      pair build: copy
      stencil: none
      bin: none
Per MPI rank memory allocation (min/avg/max) = 3.83 | 3.83 | 3.83 Mbytes
Step PotEng KinEng TotEng Temp Press Density c_msdall[4] 
       0      -3910.2    301.26662   -3608.9334         1700    13712.108    10.472245            0 
     100   -3727.1983    167.50715   -3559.6911    945.21643    56502.507    10.472245  0.099870684 
     200   -3692.5738    243.62913   -3448.9447    1374.7607    68956.405    10.472245    0.1242258 
     300    -3628.349    297.17159   -3331.1774    1676.8924    88159.254    10.472245   0.16045864 
     400   -3582.7993    316.67856   -3266.1207    1786.9671     100656.2    10.472245   0.19047494 
     500   -3592.8465    299.24181   -3293.6047    1688.5743    97068.093    10.472245   0.19535519 
     600    -3622.485    297.37289   -3325.1121    1678.0283    89520.437    10.472245   0.17833331 
     700   -3615.5158    306.58609   -3308.9298    1730.0169    91869.185    10.472245    0.1682254 
     800   -3600.3003     300.7812   -3299.5191    1697.2608    95470.586    10.472245   0.16448941 
     900    -3608.975    288.62685   -3320.3482    1628.6758    93150.754    10.472245   0.16495393 
    1000   -3606.3179    308.00571   -3298.3122    1738.0276    94411.827    10.472245   0.16138741 
    1100    -3599.446    306.37682   -3293.0692     1728.836    96142.092    10.472245   0.15753596 
    1200   -3613.6044     296.3391   -3317.2653    1672.1948    92462.073    10.472245   0.15032588 
    1300   -3612.2843    294.64223    -3317.642    1662.6196    92271.606    10.472245   0.15356509 
    1400    -3599.919    298.08158   -3301.8374    1682.0273    95369.402    10.472245   0.16551239 
    1500   -3597.8902    297.76018     -3300.13    1680.2137     96044.85    10.472245   0.17086222 
    1600   -3607.9948    297.41846   -3310.5763    1678.2854    93359.784    10.472245   0.16698756 
    1700   -3607.3578    299.80998   -3307.5479    1691.7804    93950.024    10.472245   0.15814212 
    1800   -3607.5281    299.25093   -3308.2771    1688.6258    94243.961    10.472245   0.15437513 
    1900   -3607.0496    301.94852   -3305.1011    1703.8479    94317.017    10.472245   0.15571722 
    2000   -3599.4239      298.273   -3301.1509    1683.1075    95674.521    10.472245   0.16005283 
    2100   -3603.5865    298.38603   -3305.2004    1683.7453      95019.9    10.472245   0.15990829 
    2200   -3608.4095    303.56793   -3304.8416    1712.9859    93562.206    10.472245   0.15344056 
    2300   -3612.9404    293.96409   -3318.9764     1658.793    91845.188    10.472245   0.15272522 
    2400   -3609.6932    305.98391   -3303.7093     1726.619    93553.263    10.472245   0.15844796 
    2500   -3588.3219    304.80685    -3283.515    1719.9769    98236.599    10.472245   0.17688139 
    2600   -3592.7581    308.97791   -3283.7802    1743.5136     97681.19    10.472245   0.17564439 
    2700   -3610.3366    300.65066   -3309.6859    1696.5242    92362.186    10.472245   0.15741721 
    2800   -3624.7273    303.23846   -3321.4888    1711.1268    89647.035    10.472245   0.14755698 
    2900   -3622.7101    309.65923   -3313.0509    1747.3582    90382.398    10.472245   0.14559932 
    3000   -3614.4245    304.80407   -3309.6204    1719.9613    92150.381    10.472245   0.15126307 
    3100   -3602.1127    311.63219   -3290.4806    1758.4913    95694.977    10.472245   0.16101329 
    3200    -3603.148    294.34145   -3308.8066    1660.9223     94527.69    10.472245   0.16955345 
    3300   -3607.3549    299.44742   -3307.9075    1689.7345    93887.912    10.472245   0.16191249 
    3400   -3604.9857     299.8704   -3305.1153    1692.1213    94311.457    10.472245   0.15908915 
    3500   -3607.2666    308.34596   -3298.9206    1739.9476    93866.805    10.472245   0.15636297 
    3600   -3612.8108    298.59552   -3314.2153    1684.9274        92204    10.472245   0.15835839 
    3700   -3606.4102    299.87649   -3306.5338    1692.1557    94347.861    10.472245   0.16700212 
    3800   -3600.6129    310.19888    -3290.414    1750.4033     95157.74    10.472245   0.17564781 
    3900   -3609.5049    308.72249   -3300.7824    1742.0723     94010.91    10.472245    0.1695465 
    4000   -3615.4734    289.44107   -3326.0323    1633.2703    91199.085    10.472245   0.15504827 
    4100   -3620.6236    298.56425   -3322.0593     1684.751    90445.575    10.472245   0.14190327 
    4200   -3603.8929    299.50001   -3304.3929    1690.0313    94429.308    10.472245   0.15378054 
    4300   -3591.5693    310.98486   -3280.5844    1754.8385    97837.298    10.472245   0.16641909 
    4400   -3604.6506    299.13504   -3305.5156    1687.9719    94222.246    10.472245   0.16670679 
    4500   -3617.0858     308.2754   -3308.8104    1739.5494     91519.26    10.472245   0.15763851 
    4600   -3615.3986    298.66477   -3316.7338    1685.3182    91720.077    10.472245   0.15682531 
    4700   -3611.6768    304.70859   -3306.9683    1719.4225    93205.047    10.472245   0.15387492 
    4800   -3612.9686     307.9472   -3305.0214    1737.6975    92648.334    10.472245   0.14859695 
    4900   -3616.8209      299.832   -3316.9889    1691.9047    91335.672    10.472245   0.15270165 
    5000   -3605.7409    294.77804   -3310.9628     1663.386    93538.535    10.472245   0.15879584 
    5100   -3603.6076    301.96214   -3301.6455    1703.9247    94971.792    10.472245   0.16180412 
    5200    -3605.788    297.00167   -3308.7863    1675.9335    93756.971    10.472245   0.16221574 
    5300   -3614.7595    308.99262   -3305.7669    1743.5966    92370.282    10.472245   0.15421711 
    5400   -3609.5594     299.5422   -3310.0172    1690.2694    93663.092    10.472245   0.15260537 
    5500   -3609.8592    306.00134   -3303.8578    1726.7173    93325.711    10.472245   0.15021459 
    5600   -3605.2764    302.56578   -3302.7106     1707.331    94228.781    10.472245   0.15622555 
    5700   -3606.8854    297.39706   -3309.4883    1678.1647    94156.551    10.472245    0.1565726 
    5800   -3608.8248    301.69714   -3307.1276    1702.4294    93707.743    10.472245   0.15529413 
    5900   -3599.5062    310.57107   -3288.9352    1752.5035    96654.622    10.472245     0.153961 
    6000   -3609.0975    296.72873   -3312.3688    1674.3934    93695.828    10.472245   0.14845796 
    6100   -3615.4658    293.84145   -3321.6243     1658.101    91033.957    10.472245   0.15157557 
    6200   -3601.2848    299.80666   -3301.4781    1691.7617    95671.018    10.472245   0.16402694 
    6300   -3595.6647     304.9243   -3290.7404    1720.6397    96564.288    10.472245   0.16791823 
    6400   -3608.8462    299.46002   -3309.3861    1689.8057    93303.702    10.472245   0.15888922 
    6500   -3617.0892    299.18912   -3317.9001     1688.277    91271.298    10.472245    0.1599614 
    6600   -3601.2871     301.5928   -3299.6943    1701.8406    95241.794    10.472245    0.1651444 
    6700    -3606.076    301.40584   -3304.6702    1700.7856    93896.748    10.472245   0.15934829 
    6800   -3613.0413    295.60138     -3317.44     1668.032    91637.625    10.472245   0.15569914 
    6900   -3597.8039    306.77621   -3291.0277    1731.0897    96593.785    10.472245   0.15350272 
    7000    -3605.824     295.9105   -3309.9135    1669.7762    93611.747    10.472245    0.1534969 
    7100   -3620.2192    309.57698   -3310.6422    1746.8941    90733.067    10.472245   0.15303416 
    7200   -3610.3719    282.83038   -3327.5415    1595.9672    91308.528    10.472245   0.16640678 
    7300   -3604.5195    297.48698   -3307.0325    1678.6721    94466.858    10.472245   0.16751469 
    7400   -3607.6012    308.39335   -3299.2079     1740.215    93892.042    10.472245   0.16376812 
    7500    -3607.156    298.83202    -3308.324     1686.262    93104.525    10.472245   0.16593406 
    7600   -3605.2723    303.16124   -3302.1111     1710.691    94673.651    10.472245   0.16227958 
    7700   -3612.5845     308.3265    -3304.258    1739.8378    92631.894    10.472245   0.16289571 
    7800   -3605.9685    293.23534   -3312.7332    1654.6808    93009.988    10.472245   0.16835287 
    7900   -3599.2305    310.08098   -3289.1496     1749.738    95678.712    10.472245   0.16214123 
    8000   -3610.8902    300.42651   -3310.4637    1695.2594    93016.584    10.472245   0.15355065 
    8100    -3610.313     296.9855   -3313.3275    1675.8423    92690.783    10.472245   0.15318557 
    8200   -3600.4141    301.46035   -3298.9537    1701.0932    95365.031    10.472245   0.16008979 
    8300   -3601.5223    294.42882   -3307.0935    1661.4154    94976.642    10.472245    0.1642937 
    8400   -3611.4909    307.32871   -3304.1622    1734.2074        93120    10.472245   0.16217859 
    8500   -3609.1976    297.33429   -3311.8633    1677.8105    92788.586    10.472245   0.16993936 
    8600   -3589.1691    298.43718   -3290.7319    1684.0339    98216.525    10.472245   0.17534164 
    8700   -3598.2481    304.11721   -3294.1309    1716.0854    95847.891    10.472245   0.17083899 
    8800   -3607.6942    293.04721    -3314.647    1653.6192    93021.581    10.472245   0.16454278 
    8900   -3611.0439    305.30222   -3305.7417    1722.7722    93041.906    10.472245   0.15857293 
    9000   -3595.9191    307.74809    -3288.171    1736.5739    96993.818    10.472245   0.16487906 
    9100   -3611.4919    299.83575   -3311.6561    1691.9258    92850.891    10.472245   0.16555613 
    9200    -3602.576    299.33826   -3303.2378    1689.1186    94961.348    10.472245   0.15976299 
    9300    -3616.433     304.6478   -3311.7852    1719.0795    91832.795    10.472245   0.15511071 
    9400   -3605.2872     298.8485   -3306.4387    1686.3549    94626.644    10.472245   0.16119649 
    9500   -3598.2931    300.44425   -3297.8488    1695.3595    95758.392    10.472245   0.16182248 
    9600   -3619.6072    296.69182   -3322.9154    1674.1851    90397.996    10.472245   0.15685996 
    9700   -3615.7131    303.29577   -3312.4174    1711.4501    91888.623    10.472245   0.15146849 
    9800   -3603.4732    292.91831   -3310.5549    1652.8918    94659.609    10.472245   0.16379774 
    9900   -3588.8959    296.89983    -3291.996    1675.3589    98467.237    10.472245   0.16501242 
   10000   -3611.6607    305.05626   -3306.6044    1721.3844    92862.245    10.472245   0.15225863 
Loop time of 38.0039 on 1 procs for 10000 steps with 1372 atoms

Performance: 22.735 ns/day, 1.056 hours/ns, 263.131 timesteps/s
100.0% CPU use with 1 MPI tasks x no OpenMP threads

MPI task timing breakdown:
Section |  min time  |  avg time  |  max time  |%varavg| %total
---------------------------------------------------------------
Pair    | 23.794     | 23.794     | 23.794     |   0.0 | 62.61
Neigh   | 0.39955    | 0.39955    | 0.39955    |   0.0 |  1.05
Comm    | 0.18024    | 0.18024    | 0.18024    |   0.0 |  0.47
Output  | 0.0049601  | 0.0049601  | 0.0049601  |   0.0 |  0.01
Modify  | 13.551     | 13.551     | 13.551     |   0.0 | 35.66
Other   |            | 0.07435    |            |       |  0.20

Nlocal:    1372 ave 1372 max 1372 min
Histogram: 1 0 0 0 0 0 0 0 0 0
Nghost:    3260 ave 3260 max 3260 min
Histogram: 1 0 0 0 0 0 0 0 0 0
Neighs:    70371 ave 70371 max 70371 min
Histogram: 1 0 0 0 0 0 0 0 0 0

Total # of neighbors = 70371
Ave neighs/atom = 51.2908
Neighbor list builds = 130
Dangerous builds = 0
    
Total wall time: 0:00:38
