LAMMPS (3 Mar 2020)

# ---------- 1. Initialize simulation ----------
units metal
atom_style atomic
dimension 3
boundary p p p
read_data /home/modeler/RemLabs/Project/eval_timestep_npt/n3_T1800_timestep1.034569e-03_steps14499/20201205-223914/lammps.data
  orthogonal box = (0 0 0) to (17.469 17.469 17.469)
  1 by 1 by 1 MPI processor grid
  reading atoms ...
  217 atoms
  read_data CPU = 0.000954512 secs

pair_style meam/c
pair_coeff * * library.meam Li Si LiSi.meam Li Si
Reading potential file library.meam with DATE: 2012-06-29
Reading potential file LiSi.meam with DATE: 2020-11-07

group Li type 1
1 atoms in group Li

velocity all create 1800 3320 dist gaussian

# ---------- 2. Describe computed properties----------
compute msdli Li msd
thermo_style custom step pe ke etotal temp press density c_msdli[4]
thermo 100

# ---------- 3. Specify ensemble  ----------
fix 1 all npt temp 1800 1800 0.05172845202786974 tchain 2 iso 1.0 1.0 1.0 pchain 2
# fix 1 all nvt temp 1800 1800 0.05172845202786974
# fix 1 all nve

# ---------- 4. Run -------------
timestep 0.0010345690405573948
run 14499
Neighbor list info ...
  update every 1 steps, delay 10 steps, check yes
  max neighbors/atom: 2000, page size: 100000
  master list distance cutoff = 6
  ghost atom cutoff = 6
  binsize = 3, bins = 6 6 6
  2 neighbor lists, perpetual/occasional/extra = 2 0 0
  (1) pair meam/c, perpetual
      attributes: full, newton on
      pair build: full/bin/atomonly
      stencil: full/bin/3d
      bin: standard
  (2) pair meam/c, perpetual, half/full from (1)
      attributes: half, newton on
      pair build: halffull/newton
      stencil: none
      bin: none
Per MPI rank memory allocation (min/avg/max) = 9.27 | 9.27 | 9.27 Mbytes
Step PotEng KinEng TotEng Temp Press Density c_msdli[4] 
       0   -951.04357    50.256344   -900.78722         1800   -114161.75    1.8918427            0 
     100   -951.64652    37.216052   -914.43047     1332.944    -23417.72    2.1195542    0.1178595 
     200   -953.55639    44.477934   -909.07846    1593.0383    45045.229    2.2988179    0.6262847 
     300   -948.64268    39.784248   -908.85844    1424.9275    12079.635    2.2081501    0.4938912 
     400   -941.82166    39.798879   -902.02278    1425.4515   -28935.239    2.0944008    0.1590282 
     500   -943.69176    45.953489   -897.73827    1645.8873   -11292.359    2.1324763   0.34099263 
     600    -945.1731    50.628655   -894.54444    1813.3348    25008.643     2.227229   0.41565942 
     700   -941.48665    44.755975   -896.73068    1602.9967    15265.376    2.1995982   0.58086785 
     800   -936.61445    46.743812   -889.87064    1674.1938   -16379.664    2.1076715   0.14265483 
     900   -934.59789    49.153626   -885.44426    1760.5046   -13876.941    2.1045796   0.66375954 
    1000   -940.36426    50.975513   -889.38875     1825.758    7047.5346    2.1756052   0.29368293 
    1100   -944.44992    48.998427   -895.45149     1754.946    16754.628    2.2086769  0.093324594 
    1200   -942.92489    49.835562   -893.08933    1784.9291    150.18223    2.1606928   0.65930079 
    1300    -936.7604    54.006512   -882.75389    1934.3174   -12873.796    2.1120188    0.3803338 
    1400   -939.40878    50.505018   -888.90376    1808.9066   -9490.8393    2.1298038  0.018372446 
    1500   -946.35357    50.500193   -895.85338    1808.7338     9939.056    2.1928774   0.14379876 
    1600   -946.26962    49.100478   -897.16914    1758.6011    16360.199    2.2043049   0.14829929 
    1700    -937.2189    49.398456   -887.82044    1769.2735   -1726.2382    2.1452561   0.19821038 
    1800   -936.61087    49.249287   -887.36158    1763.9309   -14353.084    2.1081644   0.09898029 
    1900   -942.03527    47.839825   -894.19544     1713.449   -4452.2367    2.1532354   0.20267986 
    2000   -947.75831    49.064436   -898.69388    1757.3102    16965.794    2.2160227   0.19877211 
    2100   -944.15981    53.289181   -890.87063    1908.6252     10245.01    2.1905878   0.22450114 
    2200   -937.98083    49.143337   -888.83749    1760.1361   -16490.558    2.1122035   0.16709677 
    2300   -935.20733    56.556447   -878.65088    2025.6468   -11627.223    2.1117527   0.16362042 
    2400   -941.73607    53.877696   -887.85838    1929.7037    4985.4449     2.170801   0.48204694 
    2500   -941.18124    47.183008   -893.99824    1689.9242    14119.052    2.1980544  0.076391871 
    2600   -943.15081    49.464907    -893.6859    1771.6536   -2513.3941    2.1597807   0.57113058 
    2700   -934.57589    51.612079   -882.96381    1848.5575   -8849.6435     2.125283   0.17406841 
    2800   -937.76874    49.530253   -888.23849     1773.994   -6609.4897    2.1362036   0.21354543 
    2900   -940.87037    48.069953   -892.80041    1721.6914    7559.7191    2.1813216   0.53210046 
    3000   -948.27284    51.840059   -896.43278    1856.7229    6897.6508    2.1913127    0.2283221 
    3100   -945.10248    48.074712   -897.02777    1721.8619   -5044.4086    2.1576914   0.26420803 
    3200   -937.53975     49.20369   -888.33606    1762.2977   -5016.4839    2.1403808   0.31141276 
    3300   -942.17816    52.318531   -889.85963    1873.8601    -1767.119    2.1530556   0.17277315 
    3400   -941.65882    47.744198   -893.91462     1710.024    5323.0119    2.1777622   0.11180944 
    3500   -946.88898    47.161766   -899.72722    1689.1634    1085.7053    2.1786145   0.25001192 
    3600   -940.07503    46.054904   -894.02012    1649.5196     3914.079    2.1653773   0.21836603 
    3700   -943.65322    54.145617    -889.5076    1939.2997   -4271.3684    2.1536145   0.16041139 
    3800   -945.44718    54.185757   -891.26142    1940.7373    -4924.348    2.1532543   0.28187757 
    3900   -944.48783    52.334218   -892.15361    1874.4219    1508.8229    2.1691792   0.44498804 
    4000   -931.76707    51.231058   -880.53601    1834.9107    11370.928    2.1698678   0.32419244 
    4100   -939.01299    49.467104   -889.54589    1771.7323   -10177.816    2.1345439   0.20000901 
    4200   -937.66645    47.775417   -889.89103    1711.1422   -6908.5764    2.1384446    0.3283218 
    4300   -943.10941    51.874031   -891.23538    1857.9397    7717.6776    2.1793553   0.24583953 
    4400   -948.83074    50.598204   -898.23254    1812.2442    5837.4652    2.1907705   0.21488677 
    4500   -941.40659    51.061834   -890.34475    1828.8497      1358.36     2.165291    0.2477621 
    4600   -938.10152    48.314765   -889.78676    1730.4597   -8358.8209    2.1355348   0.12958759 
    4700   -940.52594    50.113932     -890.412    1794.8993   -4689.4932    2.1489228   0.34834082 
    4800   -938.78831    59.692317   -879.09599    2137.9623    11156.368    2.1799669   0.27083984 
    4900    -943.5752     53.57449   -890.00071    1918.8439   -3428.2563    2.1557095   0.51616589 
    5000   -940.79847    50.234333   -890.56414    1799.2117   -10032.559    2.1365738   0.30401906 
    5100   -938.21533    47.974456   -890.24087     1718.271    988.16266     2.161588    0.2313326 
    5200   -946.02876    48.031569   -897.99719    1720.3166    5194.2982    2.1851723   0.15296191 
    5300   -942.57792    49.358085   -893.21983    1767.8276    6123.8168    2.1791033   0.28029158 
    5400   -940.25785    51.869198   -888.38865    1857.7666   -4885.0465    2.1446022   0.12249848 
    5500   -939.15274     48.79149   -890.36124    1747.5342   -8741.2334    2.1332186   0.43260895 
    5600   -936.32299    49.941553   -886.38144    1788.7253     5224.249    2.1665818   0.33946807 
    5700   -945.25096    46.903995   -898.34697     1679.931    4822.7006    2.1832023   0.33846798 
    5800   -941.96255    47.167443   -894.79511    1689.3668    2396.5613    2.1718182   0.80722563 
    5900   -938.70276    49.765047   -888.93771    1782.4035   -2798.7286    2.1491312   0.39104191 
    6000   -939.21742    48.290956   -890.92646    1729.6069   -3656.1823    2.1463498  0.078043153 
    6100   -946.35621    45.869865   -900.48635    1642.8922   -1703.1841    2.1718402   0.17699052 
    6200   -945.48249    51.595419   -893.88707    1847.9608    11198.884    2.1963936    0.1551139 
    6300    -943.0938     51.33621   -891.75759    1838.6769   -340.60599    2.1660673    0.1924375 
    6400   -939.23559     54.79668   -884.43891    1962.6184   -10372.052    2.1272216   0.11719403 
    6500   -937.39766    55.900621   -881.49704    2002.1575   -7290.1637    2.1324384    0.2441963 
    6600   -940.69915    49.030696   -891.66845    1756.1017    3806.0089     2.171617   0.30504391 
    6700    -943.3901    50.989347   -892.40075    1826.2535    11283.366    2.1927325   0.15273451 
    6800   -943.95173    46.001332   -897.95039    1647.6009   -3703.3142    2.1602029   0.29883826 
    6900   -940.31274    53.284745     -887.028    1908.4663   -6882.1451    2.1406676   0.16438033 
    7000   -938.53912    50.968962   -887.57015    1825.5234    447.66281    2.1515336   0.14703919 
    7100   -941.65403    48.036001   -893.61803    1720.4754    2872.5152    2.1713579  0.073054534 
    7200   -944.68479    52.823989    -891.8608    1891.9637    4460.1189    2.1769746   0.26536274 
    7300   -936.03265    55.306225   -880.72642    1980.8684    931.21148    2.1514599  0.073082667 
    7400   -939.96867    49.980838   -889.98783    1790.1323   -13174.483    2.1217391    0.4883537 
    7500   -941.08954    51.718741    -889.3708    1852.3778   -423.94368    2.1541316   0.11575765 
    7600   -942.97722    48.673896   -894.30333    1743.3224    12409.023    2.1961385   0.45860528 
    7700   -945.08799    44.665977   -900.42201    1599.7733    4691.4633    2.1837446   0.28283079 
    7800   -942.05102    51.839776   -890.21124    1856.7128   -6083.2002    2.1487627   0.33411559 
    7900   -938.44574    48.358789   -890.08695    1732.0365   -6372.4373    2.1381941   0.35198807 
    8000    -942.0916    53.351091   -888.74051    1910.8426   -546.00423    2.1660436   0.15220877 
    8100    -947.7472    48.844213   -898.90299    1749.4226    5656.1152    2.1870882  0.090833934 
    8200     -943.161    50.145636   -893.01536    1796.0348    5623.4419    2.1790692   0.37187701 
    8300   -941.68814    54.087216   -887.60093    1937.2079   -7078.9861    2.1464685   0.43899873 
    8400   -938.84894    46.169322   -892.67962    1653.6177    -7419.963    2.1361759    0.1555844 
    8500   -944.10184    49.002618   -895.09922    1755.0961    3577.6214    2.1766775   0.82946752 
    8600   -940.81486    55.633933   -885.18092    1992.6057    16909.109    2.1972277   0.28416218 
    8700   -941.41637    47.908827   -893.50754    1715.9204   -7488.5175    2.1439947   0.13827162 
    8800   -935.20117    46.768111   -888.43305    1675.0641   -8887.8828    2.1280689   0.08287747 
    8900   -939.51552    51.869648   -887.64588    1857.7827     2751.737    2.1688328   0.26732753 
    9000   -946.37269    49.574527   -896.79817    1775.5798    5167.9515    2.1916297   0.26248492 
    9100   -940.33841    47.110386   -893.22802    1687.3232    5121.9201    2.1750963  0.058550231 
    9200   -936.37588    47.242639   -889.13325      1692.06   -2582.6396     2.144422    1.0212204 
    9300   -939.08126    49.988723   -889.09254    1790.4148    -3989.081    2.1450917    0.1522251 
    9400   -947.71498    47.888731   -899.82625    1715.2007    -161.0862    2.1764838   0.28334924 
    9500   -944.01911    48.285914   -895.73319    1729.4263     11115.23    2.1990897   0.57223111 
    9600    -939.2677    49.146312   -890.12139    1760.2427    2638.1895    2.1664724   0.29239984 
    9700   -936.42629    46.139997   -890.28629    1652.5674   -9998.2415    2.1267551   0.10014894 
    9800   -931.72638    51.089821   -880.63656    1829.8521    5105.4821    2.1504336   0.73027597 
    9900   -935.60774    50.901244    -884.7065     1823.098     13047.14    2.1817852  0.063467048 
   10000   -942.70084    51.052925   -891.64792    1828.5306   -137.89832    2.1653319   0.34513034 
   10100   -938.79473    48.510461   -890.28427    1737.4688   -4215.9496    2.1472442  0.049569586 
   10200   -939.45431    53.092795   -886.36151    1901.5914    492.28718    2.1581547   0.56955546 
   10300   -947.28913    48.920609   -898.36852    1752.1588   -659.99292    2.1741919   0.26614062 
   10400   -943.25531    48.087006    -895.1683    1722.3022    7279.2139    2.1856679   0.21100586 
   10500   -942.68688    50.790368   -891.89651    1819.1268   -696.26476    2.1668952   0.52381701 
   10600   -940.37712    54.291124     -886.086    1944.5112   -7455.0359    2.1429015   0.42772462 
   10700   -935.21877    47.562584   -887.65619    1703.5193   -2476.3148    2.1459997   0.21999153 
   10800   -941.99266     48.59472   -893.39794    1740.4866     3662.229    2.1710843   0.18401026 
   10900   -942.09924    48.714124   -893.38512    1744.7633    7636.8652    2.1870782   0.29769287 
   11000   -938.47665    50.207332   -888.26932    1798.2446    1653.9504    2.1602083   0.18025282 
   11100   -947.08415    52.232116   -894.85204     1870.765   -19203.978    2.1311667 0.0087126399 
   11200   -943.89267    49.694962   -894.19771    1779.8933    1414.3626    2.1718067   0.44635756 
   11300   -944.16619    54.400857   -889.76534    1948.4414    14441.535    2.2026267   0.20974189 
   11400   -942.01427    47.512117   -894.50215    1701.7117   -3904.1439    2.1579435   0.11259385 
   11500   -937.69237    52.304152   -885.38822     1873.345   -10638.688     2.128954   0.26474571 
   11600   -937.14592     50.91823   -886.22769    1823.7063   -997.26082    2.1509608   0.60608627 
   11700   -944.41486     50.62422   -893.79064     1813.176    6475.6331    2.1848973   0.19457487 
   11800   -945.21491    53.078551   -892.13636    1901.0812    7174.9951    2.1847395   0.21662089 
   11900   -936.49876    52.858067   -883.64069    1893.1843    -204.2605    2.1489262   0.10905718 
   12000   -938.91662    51.288899   -887.62772    1836.9824   -13244.492    2.1238298   0.12939698 
   12100   -942.02909    51.336839   -890.69225    1838.6994   -2596.9101    2.1594071  0.071130706 
   12200   -941.88133    45.086719   -896.79461    1614.8428    13402.467    2.2025167   0.52048361 
   12300   -948.78557    50.625892   -898.15967    1813.2359    3413.2022    2.1865222   0.19764622 
   12400   -937.86359    50.583233   -887.28036    1811.7079   -5428.8851    2.1406041   0.21990878 
   12500    -940.0975    51.069111   -889.02839    1829.1103   -10568.097    2.1308295   0.27685524 
   12600   -941.55765    53.212457   -888.34519    1905.8772    3892.3719    2.1695474   0.39245662 
   12700   -948.79292      50.4043   -898.38862    1805.2992    5105.9474    2.1923057   0.29710303 
   12800   -941.36262    49.263653   -892.09897    1764.4454    4892.8446    2.1752536   0.14903169 
   12900   -941.92278    53.759565   -888.16322    1925.4726   -9510.8977    2.1389283   0.35487422 
   13000   -942.89512    50.597651   -892.29746    1812.2244   -11925.587    2.1409911    0.7533181 
   13100   -945.96732    46.268991   -899.69833    1657.1875    7263.5303    2.1925657   0.35312839 
   13200   -941.77892    50.594456   -891.18447    1812.1099    15870.147    2.2064223   0.22896375 
   13300   -941.79181    48.982095   -892.80971     1754.361   -7585.6752    2.1436493   0.19031112 
   13400   -941.42042    48.868132   -892.55229    1750.2793   -15804.167    2.1228318  0.060031065 
   13500    -937.6034    51.343453   -886.25995    1838.9363    6681.0992    2.1737969   0.42042474 
   13600   -943.57966    49.901725   -893.67793    1787.2988    10308.818    2.1922285   0.38800625 
   13700   -945.91819    51.683299   -894.23489    1851.1084    -5577.539    2.1609615   0.64765547 
   13800     -936.099    50.286536   -885.81247    1801.0814   -4413.2162    2.1377965   0.13539702 
   13900   -938.14811    46.832443   -891.31566    1677.3683   -1537.7364    2.1484914    0.4627632 
   14000   -941.41548    46.475337   -894.94014     1664.578    7364.1935    2.1832138    0.2041177 
   14100   -938.73039    49.538192    -889.1922    1774.2784    10510.369    2.1850847   0.67157049 
   14200    -939.0291    47.927776   -891.10132    1716.5991   -8485.8283    2.1390765   0.36441806 
   14300   -941.84996     45.80975   -896.04021    1640.7391   -11106.497    2.1390707   0.33062683 
   14400    -942.3093    53.305847   -889.00346    1909.2221    12909.138    2.1925353   0.30860837 
   14499   -943.52579    47.498204   -896.02758    1701.2134    7477.6145     2.188668   0.12358694 
Loop time of 9.95431 on 1 procs for 14499 steps with 217 atoms

Performance: 130.197 ns/day, 0.184 hours/ns, 1456.555 timesteps/s
100.0% CPU use with 1 MPI tasks x no OpenMP threads

MPI task timing breakdown:
Section |  min time  |  avg time  |  max time  |%varavg| %total
---------------------------------------------------------------
Pair    | 9.662      | 9.662      | 9.662      |   0.0 | 97.06
Neigh   | 0.074078   | 0.074078   | 0.074078   |   0.0 |  0.74
Comm    | 0.061975   | 0.061975   | 0.061975   |   0.0 |  0.62
Output  | 0.0041447  | 0.0041447  | 0.0041447  |   0.0 |  0.04
Modify  | 0.13076    | 0.13076    | 0.13076    |   0.0 |  1.31
Other   |            | 0.02139    |            |       |  0.21

Nlocal:    217 ave 217 max 217 min
Histogram: 1 0 0 0 0 0 0 0 0 0
Nghost:    957 ave 957 max 957 min
Histogram: 1 0 0 0 0 0 0 0 0 0
Neighs:    4232 ave 4232 max 4232 min
Histogram: 1 0 0 0 0 0 0 0 0 0
FullNghs:  8464 ave 8464 max 8464 min
Histogram: 1 0 0 0 0 0 0 0 0 0

Total # of neighbors = 8464
Ave neighs/atom = 39.0046
Neighbor list builds = 126
Dangerous builds = 0
Total wall time: 0:00:09
