LAMMPS (3 Mar 2020)

# ---------- 1. Initialize simulation ----------
units metal
atom_style atomic
dimension 3
boundary p p p
read_data /home/modeler/RemLabs/Project/Si_3x3x3_supercell_MD/1800/20201204-035757/lammps.data
  orthogonal box = (0 0 0) to (17.469 17.469 17.469)
  1 by 1 by 1 MPI processor grid
  reading atoms ...
  217 atoms
  read_data CPU = 0.00105651 secs

pair_style meam/c
pair_coeff * * library.meam Li Si LiSi.meam Li Si
Reading potential file library.meam with DATE: 2012-06-29
Reading potential file LiSi.meam with DATE: 2020-11-07

group Li type 1
1 atoms in group Li

velocity all create 1800 3320 dist gaussian

# ---------- 2. Describe computed properties----------
compute msdli Li msd
thermo_style custom step pe ke etotal temp press density c_msdli[4]
thermo 100

# ---------- 3. Specify ensemble  ----------
#fix 1 all nve
fix 1 all nvt temp 1800 1800 0.11603972084031941
#fix 1 all npt temp 1800 1800 0.11603972084031941 tchain 2 iso 1.0 1.0 1.0 pchain 2

# ---------- 4. Run -------------
timestep 0.002320794416806388
run 2155
Neighbor list info ...
  update every 1 steps, delay 10 steps, check yes
  max neighbors/atom: 2000, page size: 100000
  master list distance cutoff = 6
  ghost atom cutoff = 6
  binsize = 3, bins = 6 6 6
  2 neighbor lists, perpetual/occasional/extra = 2 0 0
  (1) pair meam/c, perpetual
      attributes: full, newton on
      pair build: full/bin/atomonly
      stencil: full/bin/3d
      bin: standard
  (2) pair meam/c, perpetual, half/full from (1)
      attributes: half, newton on
      pair build: halffull/newton
      stencil: none
      bin: none
Per MPI rank memory allocation (min/avg/max) = 9.266 | 9.266 | 9.266 Mbytes
Step PotEng KinEng TotEng Temp Press Density c_msdli[4] 
       0   -951.06911    50.256344   -900.81276         1800    -114182.3    1.8918427            0 
     100   -919.84686    35.747056    -884.0998    1280.3299   -82310.568    1.8918427  0.025645582 
     200   -905.42684    46.161241    -859.2656    1653.3283   -69248.969    1.8918427  0.017181858 
     300   -903.15293    57.751228    -845.4017    2068.4395   -60273.299    1.8918427   0.07688473 
     400   -901.71803    45.488463   -856.22957    1629.2318   -66299.533    1.8918427   0.60117667 
     500   -904.46018    48.462335   -855.99785    1735.7451   -66305.894    1.8918427  0.025488859 
     600   -903.82568    55.213559   -848.61213    1977.5495   -63380.911    1.8918427  0.059428778 
     700   -903.53214    49.188932   -854.34321    1761.7692   -66497.281    1.8918427   0.26685083 
     800   -906.46624    49.873329   -856.59291    1786.2818   -66377.235    1.8918427   0.16224793 
     900   -903.63298    55.535075    -848.0979     1989.065   -63471.041    1.8918427  0.032119447 
    1000   -904.94928    51.054743   -853.89454    1828.5957    -67115.41    1.8918427   0.11041321 
    1100   -904.64648     50.85823   -853.78825    1821.5574   -66809.575    1.8918427   0.14404213 
    1200   -899.41361    49.192446   -850.22116     1761.895   -61906.708    1.8918427  0.038615627 
    1300   -902.71627    52.623675   -850.09259    1884.7892   -63887.967    1.8918427   0.27390213 
    1400   -905.77094    48.059676   -857.71126    1721.3233   -69408.175    1.8918427  0.088112048 
    1500   -897.85929     49.92619    -847.9331    1788.1751   -62396.244    1.8918427  0.072352295 
    1600   -904.35189    52.481475   -851.87042    1879.6961   -64532.417    1.8918427  0.057058494 
    1700   -906.42851    50.228825   -856.19969    1799.0144   -69263.815    1.8918427  0.024478565 
    1800   -901.79344    55.690886   -846.10255    1994.6456   -61024.582    1.8918427   0.20888786 
    1900   -903.75234    49.475448   -854.27689    1772.0311    -63710.21    1.8918427  0.081006952 
    2000   -906.01864    51.530578   -854.48806    1845.6384   -70087.803    1.8918427  0.090652344 
    2100   -898.86346    55.462435   -843.40103    1986.4633   -58578.401    1.8918427   0.31831975 
    2155   -898.47073    55.385311   -843.08542     1983.701     -59337.8    1.8918427   0.68453286 
Loop time of 1.1936 on 1 procs for 2155 steps with 217 atoms

Performance: 362.024 ns/day, 0.066 hours/ns, 1805.457 timesteps/s
100.0% CPU use with 1 MPI tasks x no OpenMP threads

MPI task timing breakdown:
Section |  min time  |  avg time  |  max time  |%varavg| %total
---------------------------------------------------------------
Pair    | 1.1401     | 1.1401     | 1.1401     |   0.0 | 95.52
Neigh   | 0.031082   | 0.031082   | 0.031082   |   0.0 |  2.60
Comm    | 0.0098523  | 0.0098523  | 0.0098523  |   0.0 |  0.83
Output  | 0.00063397 | 0.00063397 | 0.00063397 |   0.0 |  0.05
Modify  | 0.0092587  | 0.0092587  | 0.0092587  |   0.0 |  0.78
Other   |            | 0.002695   |            |       |  0.23

Nlocal:    217 ave 217 max 217 min
Histogram: 1 0 0 0 0 0 0 0 0 0
Nghost:    906 ave 906 max 906 min
Histogram: 1 0 0 0 0 0 0 0 0 0
Neighs:    3611 ave 3611 max 3611 min
Histogram: 1 0 0 0 0 0 0 0 0 0
FullNghs:  7222 ave 7222 max 7222 min
Histogram: 1 0 0 0 0 0 0 0 0 0

Total # of neighbors = 7222
Ave neighs/atom = 33.2811
Neighbor list builds = 57
Dangerous builds = 0
Total wall time: 0:00:01
