LAMMPS (3 Mar 2020)

    # ---------- Initialize simulation ---------------------
    units metal
    atom_style atomic
    dimension  3
    boundary   p p p
    read_data /home/modeler/RemLabs/Lab4/ProblemEC1_v2_size_4/temp_1000/lammps.data
  orthogonal box = (0 0 0) to (16.36 16.36 16.36)
  1 by 1 by 1 MPI processor grid
  reading atoms ...
  256 atoms
  read_data CPU = 0.00105808 secs

    pair_style eam
    pair_coeff * * /usr/share/lammps-stable/potentials/Ag_u3.eam
Reading potential file /usr/share/lammps-stable/potentials/Ag_u3.eam with DATE: 2007-06-11

    velocity  all create 1000 87287 dist gaussian

    # ---------- Describe computed properties------------------
    compute msdall all msd
    thermo_style custom step pe ke etotal temp press density c_msdall[4]
    thermo 100

    # ---------- Specify ensemble  ---------------------
    #fix  1 all nve
    #fix  1 all nvt temp 1000 1000 0.25
    fix 1 all npt temp 1000 1000 0.25 tchain 2 iso 1.0 1.0 1.0 pchain 2

    # --------- Compute RDF ---------------
    compute rdfall all rdf 100 1 1
    fix 2 all ave/time 1 125000 125000 c_rdfall[*] file /home/modeler/RemLabs/Lab4/ProblemEC1_v2_size_4/temp_1000/lammps.rdf mode vector

    # --------- Run -------------
    timestep 0.005
    run 500000
Neighbor list info ...
  update every 1 steps, delay 10 steps, check yes
  max neighbors/atom: 2000, page size: 100000
  master list distance cutoff = 7.55
  ghost atom cutoff = 7.55
  binsize = 3.775, bins = 5 5 5
  2 neighbor lists, perpetual/occasional/extra = 1 1 0
  (1) pair eam, perpetual
      attributes: half, newton on
      pair build: half/bin/atomonly/newton
      stencil: half/bin/3d/newton
      bin: standard
  (2) compute rdf, occasional, copy from (1)
      attributes: half, newton on
      pair build: copy
      stencil: none
      bin: none
Per MPI rank memory allocation (min/avg/max) = 3.744 | 3.744 | 3.744 Mbytes
Step PotEng KinEng TotEng Temp Press Density c_msdall[4] 
       0       -729.6    32.961337   -696.63866         1000    8040.2746    10.472245            0 
     100   -710.02306    16.865502   -693.15756     511.6753   -14588.095    9.9743228  0.061110676 
     200   -709.63513     19.45197   -690.18316    590.14504    9397.1675    10.211566   0.05634674 
     300    -708.0156    20.745777   -687.26982     629.3973    -9697.672    9.9803848  0.069971475 
     400   -708.16997    23.683043   -684.48693    718.50979    5005.0277     10.13247  0.061269397 
     500   -703.26938    21.425301   -681.84408    650.01309   -5674.6866     9.944881  0.086736927 
     600   -704.76277      25.7136   -679.04918    780.11398    2853.2402    10.044987  0.080935308 
     700   -701.83214    25.435586   -676.39655    771.67945   -4797.7768    9.9210579  0.096483016 
     800   -700.96795    27.363519   -673.60443    830.17018    96.406196    9.9513401  0.093379347 
     900   -697.42096    26.480324   -670.94063    803.37529    1064.1975    9.9134816   0.11258669 
    1000    -696.4682    28.192062   -668.27614    855.30699   -3651.4532     9.834663   0.12055353 
    1100   -696.03877    30.499049   -665.53972    925.29771    2435.6706     9.885928   0.10613507 
    1200   -692.85891    29.516961   -663.34194    895.50253   -882.07069    9.8061073   0.14261378 
    1300    -690.9625    30.126817   -660.83568    914.00469   -2059.9394    9.7567919   0.16889784 
    1400   -692.52907      34.4345   -658.09457    1044.6937     1903.645    9.8167804   0.14169896 
    1500   -690.65185    33.387564   -657.26429    1012.9311   -9412.2742    9.6638254   0.17105339 
    1600    -694.0611    32.222874   -661.83823    977.59608    4420.1916    9.8736925   0.12293897 
    1700   -691.76034     30.10167   -661.65867    913.24179    333.75391    9.8000008   0.13240561 
    1800   -690.42006    33.020406   -657.39965    1001.7921   -5247.2687    9.7100884   0.15922881 
    1900    -691.6654    34.784869   -656.88053    1055.3234    11350.909    9.8979661    0.1341569 
    2000   -693.18909    31.291753   -661.89734    949.34719   -7410.0189    9.7433076   0.14471903 
    2100   -692.78829    31.258906   -661.52938    948.35066    8464.6457    9.9002011   0.10982408 
    2200   -688.73357    30.941059   -657.79251    938.70764   -1911.0319    9.7289079   0.15943654 
    2300   -690.45062     33.39334   -657.05728    1013.1064   -3341.3138    9.7291435   0.15573639 
    2400   -693.26132    32.919528   -660.34179    998.73157    2040.8924    9.8356891   0.13898917 
    2500   -693.68756    30.709533   -662.97803    931.68348   -351.47225    9.8175387   0.13302553 
    2600   -692.66214    34.591359   -658.07078    1049.4525   -2947.9713    9.7631445   0.13535971 
    2700    -691.7403    34.068448   -657.67185    1033.5882     -2802.31    9.7616841   0.14396247 
    2800   -691.06298    34.940657   -656.12232    1060.0497    697.26233    9.7680944   0.14024321 
    2900   -686.28129    36.075006   -650.20628    1094.4643   -664.69646    9.6760568   0.17887467 
    3000   -689.63404    33.361679   -656.27236    1012.1458    1576.9353    9.7596295   0.15612683 
    3100   -689.34455    31.522488   -657.82206    956.34737    2097.7629    9.7828826   0.13995814 
    3200    -690.5598    30.887819   -659.67198    937.09241    3482.1426     9.801109    0.1300031 
    3300   -695.18931    33.623045   -661.56627    1020.0753   -6099.9859    9.7734686    0.1240388 
    3400   -691.45472     37.02588   -654.42884    1123.3124   -592.84606    9.7646418   0.15206162 
    3500   -692.31299     36.28951   -656.02348     1100.972    231.29552    9.7868467    0.1360236 
    3600   -693.08637    34.959044   -658.12733    1060.6076   -6213.2693    9.7382339   0.13963578 
    3700   -692.31868    32.683933   -659.63474    991.58397   -586.99703     9.790708   0.12709441 
    3800   -687.03467    34.039742   -652.99493    1032.7173    917.26836    9.7045218   0.15539559 
    3900   -686.93573    31.235012   -655.70071    947.62576    2532.7773    9.7208482   0.16372189 
    4000   -692.76047    34.097069    -658.6634    1034.4565    -3682.009    9.7565638   0.14192456 
    4100    -693.9883    36.361847   -657.62645    1103.1666    861.83264    9.8246472   0.12532365 
    4200   -683.88596    33.093916   -650.79204    1004.0223   -1104.9486    9.6366034    0.1764835 
    4300   -688.68302    33.393829   -655.28919    1013.1212    6377.7807    9.8085056   0.14472744 
    4400   -689.44508    31.443861   -658.00122    953.96193   -5449.8964    9.6874475    0.1680002 
    4500   -689.89602    32.326099   -657.56992     980.7278    1941.0356    9.7767303    0.1489922 
    4600   -691.13081    34.423561   -656.70725    1044.3618    4305.6996    9.8268294   0.13380877 
    4700   -685.18558    34.892825   -650.29276    1058.5986   -3174.5423    9.6320784   0.18430258 
    4800   -690.55275    34.936415   -655.61634    1059.9211    1023.0538    9.7695279   0.14185821 
    4900   -690.71999    32.695627   -658.02437    991.93874   -2096.7173    9.7373273   0.15346636 
    5000   -690.31558    30.876864   -659.43871    936.76005   -92.086781    9.7711369   0.15264858 
    5100   -689.72063    34.724937   -654.99569    1053.5051    3579.0913    9.7911624   0.15103628 
    5200   -688.69967    35.262702   -653.43697    1069.8201   -6265.1184    9.6522776   0.16647761 
    5300   -692.49905    34.439479   -658.05957    1044.8447   -40.177414    9.7884101   0.14748864 
    5400   -692.18294    33.353365   -658.82958    1011.8936    2068.7884    9.8185808   0.13858058 
    5500   -687.03257    33.722639   -653.30993    1023.0968   -1762.5198    9.6902741   0.15819793 
    5600   -690.95492    34.586089   -656.36884    1049.2927    4254.2623    9.8117587   0.13870276 
    5700   -690.08182    30.470486   -659.61133    924.43112    416.50175    9.7690851    0.1345334 
    5800    -689.1774    33.039201   -656.13819    1002.3623   -932.72236    9.7273306    0.1528723 
    5900    -690.4763    34.645117   -655.83118    1051.0835   -612.31797    9.7523163   0.14622562 
    6000   -695.83128    34.755326   -661.07596    1054.4271    3662.3408    9.8822161   0.12669109 
    6100   -690.09047    31.944406   -658.14606    969.14777    -2402.919    9.7442288   0.17131915 
    6200   -688.76184     33.97384     -654.788    1030.7179   -403.84441    9.7301248    0.1708559 
    6300   -691.18057    31.585471    -659.5951    958.25819   -7505.4497    9.7070198   0.16551648 
    6400   -691.96125    31.266706   -660.69454    948.58732    9659.2356    9.9029791   0.15248219 
    6500   -688.55453    32.631336    -655.9232    989.98823   -12223.884    9.6162518   0.19026952 
    6600   -690.35454    33.414483   -656.94005    1013.7478    5432.4984    9.8183262   0.14525569 
    6700   -692.61649    30.580731   -662.03576    927.77581     1446.236    9.8145138    0.1342611 
    6800    -690.4321    32.464449   -657.96765    984.92513     -1001.08    9.7494773   0.15441161 
    6900   -691.22253    34.967344   -656.25519    1060.8594    3305.7556    9.8108877   0.14050886 
    7000   -691.64588     31.97956   -659.66632    970.21428    2746.3775      9.80256    0.1307154 
    7100   -691.65611    29.653154   -662.00295    899.63445   -3293.1188    9.7480058   0.13599682 
    7200   -689.48109    34.618072   -654.86302     1050.263    4063.2908    9.7805134   0.15392937 
    7300   -689.22626    32.360962    -656.8653    981.78548   -5725.2781    9.6924381   0.16765693 
    7400   -692.06461    30.909699   -661.15491    937.75621    6003.6205    9.8535751   0.13861899 
    7500   -689.71886    33.261957   -656.45691    1009.1204    4109.4752    9.8000762    0.1651279 
    7600   -688.36752    33.077137   -655.29038    1003.5132   -2000.0331    9.7026243   0.19275121 
    7700   -692.23685    32.084292   -660.15256    973.39171    1893.6066    9.8160001   0.13985843 
    7800    -691.3301    32.133281   -659.19682    974.87797    6478.9407    9.8390659   0.12895233 
    7900   -687.97677    33.088532   -654.88824    1003.8589   -546.09017    9.7226996   0.18013374 
    8000   -690.34974    30.726809   -659.62293     932.2076    2843.4616    9.7938539   0.13995577 
    8100   -692.47876    33.360932   -659.11783    1012.1231     4842.358    9.8424909   0.11602356 
    8200   -689.56609    33.987966   -655.57812    1031.1465   -1712.7908    9.7271769   0.14640389 
    8300   -690.58899    31.947752   -658.64124    969.24928   -1740.9833    9.7484999   0.15258053 
    8400   -693.58988     32.93167   -660.65821    999.09996    8665.1294    9.9061725   0.12442512 
    8500   -687.72832    31.295868   -656.43245    949.47204   -12349.468    9.5819651   0.18346374 
    8600   -690.71564    33.499111   -657.21652    1016.3153    7797.5273    9.8503125   0.13895051 
    8700    -693.7373    31.972821   -661.76448    970.00983   -6102.9195    9.7573508   0.14484488 
    8800   -688.96491    32.637515   -656.32739    990.17572    1883.5048     9.771505   0.15152952 
    8900   -691.73697    33.868614   -657.86836    1027.5255   -3323.3503    9.7478346   0.16243574 
    9000   -692.81557    32.040755   -660.77481    972.07086    1909.8092    9.8291089   0.12902536 
    9100   -690.90619    34.494125   -656.41207    1046.5026     4331.703    9.8128916   0.12670478 
    9200   -687.62736    32.207923   -655.41944    977.14249   -1248.3075    9.7023365   0.17005971 
    9300   -691.98386     32.62386      -659.36    989.76142    4569.6651    9.8418339   0.14612592 
    9400   -688.40205    31.050921   -657.35113    942.04069   -4306.4605    9.6861357   0.17367347 
    9500   -687.33875    33.828693   -653.51006    1026.3143   -1522.0178    9.6907866   0.17098569 
    9600   -693.76724    34.796604   -658.97064    1055.6794    6339.2868    9.8857993   0.13167344 
    9700   -689.64415    31.639568   -658.00458     959.8994   -9272.7737    9.6639587   0.16416623 
    9800   -691.09588    37.193229   -653.90265    1128.3896     4835.379    9.8225155   0.13411461 
    9900   -688.83257    32.903436   -655.92914    998.24336   -1987.8485    9.7144309   0.16395001 
   10000   -691.50304    31.605324   -659.89771    958.86049   -7787.3632    9.7030561   0.15782744 
   10100   -691.07807    34.312296   -656.76578    1040.9862    9261.8728    9.8708077   0.13236587 
   10200   -689.75708    33.505879    -656.2512    1016.5206   -5571.1316     9.689255   0.16379143 
   10300   -694.53379    31.754723   -662.77906    963.39304    2653.8956    9.8696531   0.12003617 
   10400   -692.78864    32.392669   -660.39598    982.74742   -1805.5796    9.7852515   0.13086045 
   10500   -690.45296    33.037941   -657.41502    1002.3241    4648.0691    9.8193848   0.13345747 
   10600   -691.93859    33.500984   -658.43761    1016.3721     1670.335     9.806814   0.14495329 
   10700     -693.765     29.32747   -664.43753    889.75365   -5747.4227    9.7605211   0.12585881 
   10800   -691.94822    33.214742   -658.73348    1007.6879    2980.3849    9.8137101   0.13129406 
   10900   -690.66154    33.428167   -657.23337     1014.163   -1854.0965    9.7382719   0.14194411 
   11000   -693.05754    34.890684   -658.16686    1058.5337   -6350.2266    9.7322644   0.12771212 
   11100   -695.26518    32.450056   -662.81513    984.48845     7339.899    9.9221736   0.12294025 
   11200   -688.76026    31.256293   -657.50396     948.2714   -6221.4364    9.6720547    0.1678117 
   11300   -690.52697    33.122132   -657.40484    1004.8783    788.25574    9.7768305   0.15803622 
   11400   -692.72486    31.373078   -661.35179    951.81448    2878.6884    9.8301878   0.13308831 
   11500   -690.80794    32.224462   -658.58348    977.64427   -2380.2653    9.7519392   0.14851951 
   11600   -689.66059    33.621157   -656.03943     1020.018   -667.20822     9.746944   0.16174671 
   11700   -689.73461    31.566423   -658.16818     957.6803   -3992.9191     9.717474   0.15479082 
   11800   -691.36275    29.538005   -661.82474    896.14097    5382.4106     9.848314   0.12559236 
   11900   -692.53243    30.491248   -662.04119    925.06103     3129.405    9.8325162   0.12335899 
   12000   -688.84374     31.48464    -657.3591    955.19911   -487.72533    9.7352958   0.15277322 
   12100    -689.6235    31.810795    -657.8127    965.09419    9474.5405    9.8538211   0.14119005 
   12200   -690.36227    31.792566   -658.56971    964.54116   -8746.5397     9.666567   0.16089991 
   12300   -694.70017    30.230996   -664.46917    917.16535    2488.2717    9.8710473   0.11664116 
   12400   -693.88374      33.4998   -660.38394    1016.3362    6016.6121    9.8769318   0.11670729 
   12500   -689.66278    31.861766   -657.80101    966.64057   -8844.2484    9.6647087   0.16180809 
   12600   -690.43656    33.948579   -656.48798    1029.9515    1868.1341    9.7905888    0.1409267 
   12700    -693.2833       31.785    -661.4983    964.31161   -2203.9273    9.7902986   0.11942296 
   12800   -692.14737    31.441342   -660.70602    953.88553    5225.9315     9.842357   0.12657941 
   12900   -688.67501    32.138447   -656.53656    975.03469   -7597.6275    9.6589401   0.17090152 
   13000   -690.08329    31.072971   -659.01032    942.70967    5847.9446    9.8218752   0.15302343 
   13100    -693.2744    32.428763   -660.84563    983.84248    5529.8418    9.8680269   0.12566136 
   13200   -688.84027    34.024685   -654.81558    1032.2605   -11189.594    9.6225851   0.17490937 
   13300    -690.2371    32.535358   -657.70174    987.07642    5016.3408    9.8162128   0.14289122 
   13400   -692.18326    31.483702   -660.69956    955.17066    2479.0132    9.8179586   0.12775359 
   13500   -689.43324    32.904721   -656.52852    998.28236    4626.0268    9.8022373   0.14707457 
   13600   -688.81997    33.486533   -655.33343    1015.9337   -6410.5778    9.6559039   0.14737793 
   13700   -691.42882    32.650538   -658.77828     990.5708    10647.271     9.898175   0.12897515 
   13800   -692.91758    33.847474   -659.07011    1026.8841   -6243.1237    9.7351646   0.15261298 
   13900   -683.90608    31.674053   -652.23202    960.94564    4984.8046    9.6937606   0.21882469 
   14000   -690.12542    33.690822    -656.4346    1022.1315   -4339.9335    9.7029545   0.15872467 
   14100   -691.16114     32.36195   -658.79919    981.81547   -133.46116    9.7682532   0.13650467 
   14200   -691.46367    33.112526   -658.35115    1004.5868    3400.0451     9.819348   0.14035503 
   14300   -686.02433     33.30166   -652.72267    1010.3249     -2998.22    9.6496993   0.18335418 
   14400   -691.22713     33.79948   -657.42765    1025.4281   -3670.5953    9.7422402   0.15967906 
   14500   -691.34861    33.049374   -658.29923    1002.6709    7745.9116    9.8688861   0.12672762 
   14600   -688.17521    31.338711   -656.83649    950.77185   -3190.5543    9.6919156   0.16769994 
   14700    -687.5156    34.563963   -652.95164    1048.6214    566.36411    9.7146715   0.15850298 
   14800   -691.07191    33.342828   -657.72908    1011.5739    81.259064    9.7791265   0.14715103 
   14900   -691.10972    31.816537   -659.29318    965.26841      2481.46    9.8115922   0.15877341 
   15000   -685.56084    31.979693   -653.58114    970.21832   -3047.4454    9.6454155   0.18871074 
   15100   -690.32779    34.778248   -655.54954    1055.1225   -316.23343     9.760213   0.17101594 
   15200   -693.08184    33.332187   -659.74965    1011.2511   -2562.5655     9.787213   0.14784575 
   15300   -691.59687    33.843003   -657.75387    1026.7485   -3019.2301    9.7443322   0.15448765 
   15400   -689.49162    35.723591   -653.76802    1083.8029   -1686.7088    9.7193438   0.15162539 
   15500   -693.14417    33.685101   -659.45907     1021.958   -675.91723    9.8057136   0.13220025 
   15600   -691.56666    33.163644   -658.40301    1006.1377    3583.5486    9.8231868   0.15212369 
   15700    -686.4081    31.827686   -654.58041    965.60666   -8628.8727    9.6073379   0.18601531 
   15800   -693.64836    34.297506   -659.35085    1040.5375    4787.9657    9.8634463   0.12314405 
   15900   -691.83811    31.704819   -660.13329    961.87903   -1140.7819    9.7769014   0.13054394 
   16000   -687.43958     32.86367   -654.57591    997.03691    -6656.141    9.6413227   0.16757211 
   16100   -690.95508    33.457366   -657.49771    1015.0488    2561.3099    9.7987254   0.15105518 
   16200   -690.85087     30.87866   -659.97221    936.81456    2264.0737    9.8007214   0.15134051 
   16300   -688.00003    32.929033     -655.071    999.01994   -3764.8707    9.6788379   0.17993851 
   16400   -690.56477    34.675473   -655.88929    1052.0044     299.5374    9.7628571   0.15106776 
   16500   -691.80638    31.366457   -660.43992    951.61361    4738.7144    9.8367555   0.14274759 
   16600   -690.41415    32.888334   -657.52581     997.7852    -12204.62    9.6371053   0.15254446 
   16700   -689.52468     33.86497   -655.65971    1027.4149    9471.0877    9.8413783   0.15582063 
   16800   -691.54477    33.225421   -658.31935    1008.0119   -2235.2203    9.7537053   0.13455252 
   16900   -692.88984    31.452889   -661.43695    954.23585   -2790.1608    9.7771615   0.13550978 
   17000    -692.1915    33.675377   -658.51613     1021.663    2032.8075    9.8090926   0.13340385 
   17100   -690.13588      33.0773   -657.05858    1003.5181   -1634.0494    9.7331719   0.15684402 
   17200   -690.13287    32.480594   -657.65227    985.41495    1589.6519    9.7749338   0.15382028 
   17300   -695.67217    32.526533   -663.14563    986.80866   -5644.5449    9.7988777   0.11971366 
   17400   -691.90625    32.827149   -659.07911    995.92891    763.79556    9.7942516    0.1405479 
   17500   -688.75976    31.784167   -656.97559    964.28635    5043.0366    9.7859775   0.15767198 
   17600   -688.33865     33.44421   -654.89444    1014.6497   -4871.5205    9.6656681   0.17000093 
   17700   -685.40633    37.374321     -648.032    1133.8836   -2063.6708    9.6465729   0.17872475 
   17800   -689.17244    35.898939    -653.2735    1089.1227    9754.9699    9.8446502   0.14240976 
   17900   -689.99405    33.731387   -656.26267    1023.3622   -6148.4876    9.6898078   0.14942038 
   18000   -690.67335    32.297684   -658.37566    979.86571    4811.7949    9.8260587   0.14817006 
   18100   -692.17569    35.387249   -656.78844    1073.5987   -2387.6552     9.763821   0.13895841 
   18200   -687.30504    35.362204   -651.94284    1072.8389   -417.37334    9.7047785   0.16042977 
   18300   -693.53725    35.438357    -658.0989    1075.1492    2077.6316    9.8240824   0.13104502 
   18400   -692.22397    33.013478   -659.21049    1001.5819   -10536.693    9.6804261   0.14167906 
   18500   -692.16187    38.320618   -653.84125     1162.593   -2548.5272    9.7483249   0.14040755 
   18600   -690.07137    34.453265    -655.6181     1045.263    7623.6104    9.8379184   0.13731507 
   18700   -692.84798    33.624387   -659.22359     1020.116   -8910.8255    9.7021949   0.15175169 
   18800   -690.86621    34.609378   -656.25683    1049.9992    3389.1988    9.8032133   0.13662451 
   18900   -686.95636    33.508451   -653.44791    1016.5986    -4603.498    9.6553161   0.17877367 
   19000   -692.26777    32.287291   -659.98048    979.55039    1056.5644    9.8181219    0.1266597 
   19100     -690.422    32.028917   -658.39308    971.71171    3315.9446    9.8021955   0.14678484 
   19200   -688.87872    34.732287   -654.14643    1053.7281   -5217.0424    9.6823859   0.15485921 
   19300   -692.54315    33.989451    -658.5537    1031.1915    10391.672    9.9135687   0.11140954 
   19400   -690.30179    30.095935   -660.20586    913.06777    -7339.687    9.6992979   0.15065354 
   19500   -690.14179    34.041958   -656.09983    1032.7845    2602.6681    9.7885417   0.13036559 
   19600   -691.60629    35.144076   -656.46221    1066.2212    3304.5899    9.8104426    0.1237263 
   19700   -690.12484    28.473423   -661.65141    863.84309   -2456.0353    9.7387363   0.13469991 
   19800   -692.48474    34.899319   -657.58542    1058.7956    5637.3906    9.8530853   0.13439784 
   19900    -688.5061     33.03435   -655.47175    1002.2151   -3761.7379    9.6818399   0.17853557 
   20000   -689.34263    31.731734   -657.61089     962.6956    -3903.093    9.7074641     0.167111 
   20100   -694.67808    33.039428   -661.63866    1002.3692    5804.6052    9.8984124   0.12248393 
   20200   -691.53406    34.288511   -657.24555    1040.2646   -8306.4746    9.6892215   0.14875569 
   20300   -689.92457    33.337247   -656.58732    1011.4046     1519.692      9.76978   0.15244197 
   20400    -693.9395    32.277545   -661.66196    979.25472   -4614.0211     9.771271   0.13266568 
   20500   -691.88772    32.829819    -659.0579    996.00992    5952.1561     9.849759   0.13094746 
   20600   -688.93327    32.006857   -656.92641    971.04245   -1014.0451    9.7345985   0.16586871 
   20700   -689.67604    30.532197   -659.14384    926.30335    1860.1998    9.7827634   0.14919241 
   20800   -693.48334    32.668279   -660.81506    991.10904    3665.3943    9.8554624    0.1303275 
   20900   -687.97499    34.208885   -653.76611    1037.8488   -5036.3438    9.6627433   0.16440623 
   21000   -690.86622    34.739034   -656.12719    1053.9328     4888.154    9.8153138   0.15420072 
   21100   -689.13969    30.805091    -658.3346    934.58256   -2559.4121    9.7186501   0.17328937 
   21200   -691.62388    32.495424   -659.12846    985.86486     4677.453    9.8287873   0.15532291 
   21300   -684.81601    32.333913   -652.48209    980.96485   -2057.3095    9.6528471   0.19285505 
   21400   -689.91057    33.997581   -655.91299    1031.4382    1026.6805    9.7592584   0.16522875 
   21500   -691.56432      32.5811   -658.98322    988.46415   -317.30533    9.7910374   0.15299733 
   21600   -690.10159    33.023911   -657.07768    1001.8984    -457.5887    9.7560984   0.16135107 
   21700   -687.14073     35.41726   -651.72347    1074.5092   -167.79113    9.7058037     0.169648 
   21800   -691.65187    34.494214   -657.15766    1046.5053    2072.8099    9.7920125   0.13954405 
   21900   -692.15604    34.080103   -658.07593    1033.9418   -2021.5783    9.7678447   0.14823768 
   22000   -687.62709    32.877848   -654.74924    997.46706    1041.6454    9.7258171   0.17195843 
   22100   -687.79851    34.014632   -653.78388    1031.9555   -3140.7477    9.6832045    0.1785151 
   22200   -690.60357    32.034358   -658.56921    971.87679    1665.9374     9.789684   0.15049631 
   22300   -688.39611    30.180803   -658.21531    915.64257    2652.9426    9.7641071   0.15822855 
   22400   -688.84984    36.241472   -652.60837    1099.5146    6507.4372     9.801925   0.14610897 
   22500   -691.46941     34.14265   -657.32676    1035.8394   -3794.3996    9.7354446   0.14100608 
   22600    -692.3904    32.658464   -659.73194    990.81128   -4294.5664    9.7503589     0.148581 
   22700   -690.38307    34.876889   -655.50618    1058.1151    335.35679     9.772135   0.14276317 
   22800   -687.76264    32.876448   -654.88619     997.4246    3075.2953    9.7539023   0.15573096 
   22900   -692.64228    30.880304   -661.76198    936.86444   -2923.0055    9.7707802   0.14592105 
   23000   -690.75049    31.789917   -658.96057    964.46078     4738.492    9.8222601   0.15308218 
   23100   -690.31453    34.297041   -656.01749    1040.5234   -5786.9519    9.6947323   0.16140784 
   23200   -692.57998    32.108067   -660.47191    974.11299    1059.8506    9.8043904   0.13616549 
   23300     -693.123    32.505288   -660.61771    986.16411    1906.7433    9.8344793   0.12925006 
   23400   -688.21297     32.02957    -656.1834     971.7315   -984.08581    9.7319634    0.1725078 
   23500   -690.41044    32.177728   -658.23271    976.22641   -8458.0194    9.6730453    0.1652301 
   23600   -693.53889    32.732586    -660.8063    993.06003    18223.135    10.017866   0.11271797 
   23700    -686.9213    32.116497    -654.8048    974.36876   -9981.1175    9.5998959   0.18655448 
   23800   -692.03648    35.276433   -656.76005    1070.2367    251.49911    9.7823943   0.15934639 
   23900   -693.34242     32.75482    -660.5876    993.73458   -2266.3637    9.7897863   0.13312805 
   24000   -692.36569    34.614631   -657.75106    1050.1586    912.53644    9.7931601   0.13146313 
   24100   -688.72112    34.062708   -654.65841     1033.414   -1527.2575    9.7196695   0.16038993 
   24200   -691.41059    32.089927   -659.32066    973.56267    3329.4161    9.8175729   0.15161324 
   24300   -690.44849    30.686343   -659.76215    930.97992   -2314.0078    9.7507296   0.15694994 
   24400   -687.82321    33.938593   -653.88461    1029.6486    5055.7209    9.7782424    0.1656864 
   24500   -691.30081    32.915815     -658.385    998.61892   -2252.0761    9.7602455   0.15741159 
   24600   -690.25378    30.644638   -659.60914    929.71466    7057.4663    9.8307311   0.14712745 
   24700   -688.11319    34.369913   -653.74328    1042.7342   -3686.6174    9.6668192   0.18520614 
   24800   -688.47429     31.74116   -656.73313    962.98156   -3184.5253    9.7095823   0.15988953 
   24900   -694.85071    35.664238   -659.18647    1082.0022    4925.7214    9.8788411   0.11911047 
   25000   -689.20165    33.897074   -655.30458    1028.3889   -7324.2546    9.6518482    0.1598431 
   25100   -686.85396    31.937127   -654.91683    968.92694    2094.8905    9.7396443   0.17605265 
   25200   -692.66039    32.765123   -659.89526    994.04716    3342.7462    9.8426947   0.12744632 
   25300   -691.65393    34.285752   -657.36818    1040.1809    -4946.935    9.7370157   0.14313839 
   25400   -688.23525    35.361953   -652.87329    1072.8313    1763.3271    9.7387807   0.16693906 
   25500   -688.02272    28.971232   -659.05149    878.94589    47.735605    9.7395653   0.18477603 
   25600   -692.48121    34.626418   -657.85479    1050.5162    8227.3658    9.8828444   0.13561875 
   25700   -688.13462    32.208766   -655.92586    977.16808    -4678.378    9.6773558   0.16468614 
   25800    -689.5784    29.947547   -659.63085     908.5659    -5855.234    9.6868231   0.17005954 
   25900   -691.84774    30.951449   -660.89629    939.02287    6209.2801    9.8690096    0.1362711 
   26000   -689.16072     31.74806   -657.41266    963.19092    3800.3477    9.7849432   0.14770157 
   26100   -689.39734    32.577502   -656.81984    988.35501    4183.7805    9.7910256   0.14880814 
   26200   -693.62406    30.292303   -663.33175    919.02533   -1544.5984     9.802487   0.13642602 
   26300   -693.73347    33.734484   -659.99899    1023.4562    876.93523    9.8320581   0.12216091 
   26400   -691.01677    33.381096   -657.63567    1012.7349    2058.8619     9.792299   0.13933274 
   26500   -688.42886    32.125169   -656.30369    974.63186   -10089.732    9.6286127   0.17593732 
   26600   -691.68931    35.542564   -656.14675    1078.3108    7438.8308    9.8594271   0.15079285 
   26700   -692.92953    30.509519   -662.42001    925.61535   -7899.6472    9.7279542   0.14417584 
   26800   -689.58753    30.501262   -659.08627    925.36484    7828.8857     9.838561   0.14737338 
   26900   -690.43762    34.150186   -656.28744     1036.068   -7059.6984    9.6908194   0.15297046 
   27000   -690.39642    32.992323    -657.4041    1000.9401    7779.8003    9.8358576   0.14447172 
   27100   -694.68573    31.960412   -662.72532    969.63336   -2544.0754    9.8099194   0.12587229 
   27200   -692.14543    34.831974   -657.31346    1056.7525   -6933.1502     9.712697   0.15605321 
   27300   -690.45783    34.337036   -656.12079    1041.7367    6346.6708    9.8365739   0.14247326 
   27400   -694.20845    33.226748    -660.9817    1008.0522   -11533.238    9.7076884    0.1525377 
   27500   -691.90185    32.856622   -659.04522    996.82309    9257.0918      9.88726   0.14028924 
   27600   -690.59827    35.387961   -655.21031    1073.6203   -2548.8861     9.735617   0.14319982 
   27700   -690.07067    30.688032   -659.38264    931.03117   -3908.9642    9.7214247   0.15864035 
   27800   -693.93221     34.84801    -659.0842     1057.239   -2205.3654    9.7911553   0.11928535 
   27900   -688.63245    36.194806   -652.43765    1098.0988    7787.1865    9.7993701   0.13814586 
   28000   -688.10678    30.706017   -657.40076     931.5768   -2189.7629    9.6963012   0.16379156 
   28100   -692.34826     33.14061   -659.20765    1005.4389    3120.3134    9.8213908   0.15458272 
   28200   -688.62228    33.655868   -654.96641    1021.0711    63.078799    9.7387905   0.16222069 
   28300   -688.62978    33.363625   -655.26616    1012.2049   -2213.7828    9.7037053   0.16179214 
   28400   -690.99962    30.913822    -660.0858     937.8813    2631.1043    9.8103571   0.14386503 
   28500     -690.449    33.169662   -657.27934    1006.3203   -616.04978    9.7614207   0.15608384 
   28600   -687.57913     34.11205   -653.46708     1034.911    2790.1873    9.7457024   0.16768814 
   28700   -690.62563    31.184564   -659.44106    946.09524   -587.39258    9.7669811    0.1565819 
   28800   -694.43968    35.431607   -659.00807    1074.9445    6061.3708     9.902231   0.12037186 
   28900    -688.4216    33.777001    -654.6446    1024.7461   -8646.1955    9.6445746   0.17202635 
   29000   -692.65215    35.265516   -657.38664    1069.9055    2105.7379    9.8187605   0.14563619 
   29100   -692.42321    31.828848   -660.59436    965.64188    3778.6191    9.8376831   0.13837474 
   29200   -690.16183     34.53298   -655.62885    1047.6814     -2589.19    9.7272313   0.15442604 
   29300   -689.99643    31.391648   -658.60478    952.37786    1582.6482     9.769583   0.15402669 
   29400   -692.28883    31.486404   -660.80242    955.25264    -2144.077    9.7773449   0.14637238 
   29500   -690.50348    35.826131   -654.67735    1086.9138    3569.3945    9.7979456    0.1501421 
   29600   -690.22427    32.636403   -657.58787    990.14197   -4389.4741    9.7178881   0.14858419 
   29700    -691.7113    30.890582   -660.82072    937.17625    4063.9865    9.8338862   0.12807967 
   29800    -688.6242    33.598485   -655.02571    1019.3302    2389.8355    9.7488327   0.16005962 
   29900   -690.13897    33.957034   -656.18193     1030.208   -4806.1089    9.6988748   0.14983992 
   30000   -692.33939    32.086168   -660.25322    973.44861   -226.28656    9.7939518   0.12134573 
   30100   -690.10103    33.034249   -657.06679    1002.2121   -295.66703    9.7501635    0.1471773 
   30200   -688.38574    33.641556   -654.74419    1020.6369   -7779.4841    9.6381775   0.17738289 
   30300   -690.56513    31.333052   -659.23208    950.60014    6960.3617    9.8470302   0.13953485 
   30400   -692.74603    33.860238   -658.88579    1027.2714   -4997.8135    9.7455963   0.14408031 
   30500   -689.58799    37.129314   -652.45868    1126.4505    1756.2746    9.7590589   0.15334566 
   30600   -690.95431    33.509497   -657.44481    1016.6304    589.67016    9.7799595   0.15685489 
   30700   -692.71662    33.094201   -659.62242    1004.0309    -4375.094    9.7619772   0.15206848 
   30800   -688.17409    32.412414   -655.76167    983.34646    4103.9745    9.7718533   0.16674466 
   30900   -688.72801    34.322886   -654.40513    1041.3075   -4345.4007    9.6941181   0.16811574 
   31000   -691.29297    32.479719   -658.81325     985.3884    10341.362    9.8908755    0.1358761 
   31100   -689.10794    32.381186   -656.72675    982.39903    -9056.584    9.6430438   0.15938324 
   31200    -688.6076    35.722316   -652.88528    1083.7642   -767.72168     9.712519   0.16219547 
   31300   -691.04848    31.566153   -659.48233     957.6721   -825.07452    9.7736138   0.14103399 
   31400   -692.78457    33.920582   -658.86398    1029.1021   -2107.5058    9.7802325   0.14437338 
   31500   -688.14556    34.303033   -653.84253    1040.7051    3228.0191    9.7694125   0.16105074 
   31600   -690.96313    32.405924    -658.5572    983.14956   -1535.3536    9.7453145   0.14928069 
   31700   -692.02693    32.203966   -659.82296    977.02246    1971.8545    9.8198968   0.12653272 
   31800   -688.07263    33.170833    -654.9018    1006.3558    816.93817    9.7343989    0.1668983 
   31900   -691.36581    35.406414    -655.9594    1074.1802   -7703.8968    9.6845157   0.15048323 
   32000   -693.10744    32.713079   -660.39436    992.46821    3973.5193    9.8517393   0.13056449 
   32100   -691.50103    33.923551   -657.57748    1029.1922   -2971.3908     9.753014   0.14416547 
   32200   -688.38818    33.848978    -654.5392    1026.9298   -1425.3601    9.6986238   0.16787694 
   32300   -692.15516     32.08944   -660.06572     973.5479    5642.7025    9.8506409   0.12280029 
   32400   -692.80707    32.940569    -659.8665    999.36993   -3169.0104    9.7728433   0.13315919 
   32500   -688.18388    31.634264   -656.54961     959.7385    842.47844    9.7389987   0.14632236 
   32600   -689.73216    33.215558    -656.5166    1007.7127    4463.6215    9.7925714   0.14855504 
   32700   -690.37894    28.885583   -661.49335    876.34744    1033.8194    9.7816219   0.14938576 
   32800   -689.76309    32.928795   -656.83429    999.01274    2638.7981    9.7783313   0.16138714 
   32900   -689.77258     34.60212   -655.17046     1049.779    1675.3292    9.7698011   0.14656798 
   33000   -693.14469    32.553813   -660.59088    987.63629    178.55594    9.8097385   0.14235586 
   33100   -690.60414    34.061801   -656.54233    1033.3865   -3264.2137    9.7232625   0.14896242 
   33200   -689.02433    33.480853   -655.54348    1015.7614     1422.247    9.7471948   0.15357753 
   33300   -692.02024    30.442796   -661.57745    923.59105   -5981.6802    9.7303137   0.13097637 
   33400   -691.78791    32.918962   -658.86895    998.71439     10627.42    9.8996579   0.13108821 
   33500   -687.92907    32.698095   -655.23098    992.01363    391.31287    9.7353344   0.16734004 
   33600   -690.83897    31.520646   -659.31833    956.29148   -707.27391    9.7645151   0.15748732 
   33700   -692.23612    31.959599   -660.27652    969.60868    4380.6343    9.8383721   0.13683779 
   33800   -690.43954    35.512376   -654.92716    1077.3949    423.02375    9.7606776   0.15799432 
   33900   -689.67014    32.068559   -657.60158    972.91439   -11270.079    9.6356735   0.16763879 
   34000   -694.38202    33.570685   -660.81133    1018.4867    9207.5188    9.9378485   0.12908865 
   34100    -691.6969    36.083744   -655.61316    1094.7294   -8114.7103    9.6854787   0.15122355 
   34200   -689.65843     31.94396   -657.71447    969.13423    -3065.479    9.7215306   0.16097886 
   34300   -694.23486    33.406336   -660.82853    1013.5006    1177.1452    9.8376466   0.12861993 
   34400   -689.20897    34.366231   -654.84273    1042.6225   -1149.8235    9.7346941   0.15600682 
   34500   -687.74779    30.878657   -656.86913    936.81445     5789.047    9.7863771   0.14813398 
   34600   -690.38345    29.809808   -660.57364    904.38711    25.689309    9.7783551   0.15436191 
   34700   -687.10763    31.060068   -656.04756     942.3182   -3290.8454    9.6727179   0.17298159 
   34800   -688.64239    33.500916   -655.14148    1016.3701    2194.1846     9.756474   0.15229841 
   34900   -694.70728    35.781191   -658.92609    1085.5503    -836.5612    9.8210804   0.13606637 
   35000    -691.2191    31.852794    -659.3663    966.36838   -3455.6716    9.7382063   0.16700469 
   35100   -688.77739    34.333636   -654.44376    1041.6336    2363.3237     9.768945   0.16093575 
   35200   -691.45957    32.284915   -659.17465    979.47832   -242.38785    9.7884925   0.16616106 
   35300   -690.99942    31.314563   -659.68486    950.03923   -3838.7358    9.7349303   0.16509452 
   35400   -687.99191     33.96918   -654.02273    1030.5765   -3086.3697    9.6852154   0.19524121 
   35500   -690.51371    32.731739   -657.78197    993.03432    1813.2354    9.7813211   0.15804996 
   35600   -690.20342    31.120118    -659.0833    944.14003    5798.4821    9.8281383   0.15102724 
   35700   -690.20327    35.015342   -655.18792    1062.3156   -7982.8825     9.669529   0.15818225 
   35800   -694.16885    36.976246    -657.1926    1121.8066    599.90365    9.8222843   0.12946437 
   35900   -692.18679    31.872849   -660.31394    966.97681    -3732.733      9.75056   0.14022976 
   36000   -689.51745     31.68384   -657.83361    961.24257   -6640.2809     9.672742   0.16097786 
   36100   -690.41595     35.70408   -654.71187    1083.2109     8729.828    9.8475436   0.14107728 
   36200   -692.75322    31.794375   -660.95885    964.59603   -11708.406    9.6750977   0.13788171 
   36300    -693.9442    34.524588   -659.41962    1047.4268    430.62118    9.8332872     0.115716 
   36400   -690.58314    34.114719   -656.46842     1034.992    710.38267    9.7719592   0.14663605 
   36500   -690.26307    32.686781   -657.57629    991.67035   -110.90411    9.7652785   0.16156124 
   36600   -694.28445    31.739231   -662.54522    962.92303    -522.0003    9.8283009   0.13228845 
   36700   -691.82738    34.264193   -657.56319    1039.5268   -4526.1045    9.7334202   0.15168601 
   36800   -689.67348    33.071081    -656.6024    1003.3295    1095.1811    9.7595308   0.14990228 
   36900   -692.18474    31.275576   -660.90916    948.85642   -2215.5347    9.7740823   0.14538281 
   37000   -692.19103    32.281501   -659.90953    979.37473    1207.4183    9.8064347    0.1366115 
   37100   -688.93559    32.644838   -656.29075    990.39786   -2751.4064    9.7082993   0.16402859 
   37200   -692.36912     34.28098   -658.08814    1040.0361    3146.4442    9.8168229   0.12576943 
   37300    -696.1545    34.693185   -661.46132    1052.5418   -1183.2119    9.8458593     0.125512 
   37400   -690.29341    33.529998   -656.76341    1017.2524   -3060.3493     9.725933    0.1560742 
   37500   -689.05871    30.115928   -658.94278    913.67436    3322.6919    9.7849735   0.14684998 
   37600   -693.27879    32.411568   -660.86722     983.3208    5685.4271     9.864609   0.11910705 
   37700   -688.58766    34.070113   -654.51754    1033.6387   -2499.0592    9.7046794   0.16311146 
   37800    -689.1465    32.426559   -656.71994    983.77561    4863.1562    9.8024517   0.13750461 
   37900   -691.92023    32.038268   -659.88196    971.99542   -228.74824    9.7886583   0.13091707 
   38000   -689.36417    33.432036   -655.93213    1014.2803   -2953.4776    9.7064802   0.17164725 
   38100   -687.70691    33.448488   -654.25842    1014.7795   -4406.1527    9.6616961   0.19298783 
   38200   -694.43489    34.413571   -660.02132    1044.0587    4136.6514    9.8693802   0.13358621 
   38300   -689.81655     31.71353   -658.10302    962.14332   -2995.1991    9.7230344    0.1593104 
   38400    -687.7913    33.446253   -654.34505    1014.7117    1067.4714    9.7364501   0.15238817 
   38500   -693.88228    33.760925   -660.12135    1024.2584    659.51107      9.83433   0.13505342 
   38600   -691.29895    32.879612   -658.41934    997.52058   -4989.6246    9.7193582   0.14871605 
   38700   -688.64118     33.73618     -654.905    1023.5076    11809.602    9.8595384   0.15227718 
   38800   -692.03447    31.426393   -660.60807    953.43199   -4440.9417     9.741083     0.156642 
   38900   -692.90741    33.583894   -659.32352    1018.8875    176.05602    9.8105496   0.15118579 
   39000   -689.03821    33.126998   -655.91121    1005.0259    171.40542    9.7406887   0.16052299 
   39100   -692.08221    33.252498   -658.82971    1008.8334   -2148.3168     9.764915   0.13349497 
   39200   -693.35908    31.473126   -661.88596    954.84979    3520.5389    9.8526283   0.12865121 
   39300    -688.8545    32.435403    -656.4191    984.04391   -3547.2948    9.7003157   0.16304519 
   39400   -693.77887    35.880918   -657.89795    1088.5759   -893.32445    9.8074959   0.12891949 
   39500   -693.93142    31.596795   -662.33463    958.60174   -1467.4493     9.807677   0.12647054 
   39600   -689.67272    33.194973   -656.47774    1007.0882    -690.7392     9.754924   0.15164262 
   39700   -692.20116    35.500623   -656.70054    1077.0383    4212.0735    9.8408222   0.13598396 
   39800   -691.33443    30.632679   -660.70175    929.35182   -3110.7419     9.754894   0.13961784 
   39900   -689.40078    33.566464   -655.83432    1018.3587    1198.3433    9.7517521   0.16056813 
   40000   -688.19683    32.674755   -655.52208     991.3055     6492.773    9.7899074   0.15489464 
   40100   -690.89434    31.210202   -659.68414    946.87306   -11246.131    9.6609655    0.1598605 
   40200   -690.43766    32.164332   -658.27333    975.82002     13588.71    9.9084591   0.15526461 
   40300    -687.4585    32.812194   -654.64631    995.47522   -6207.0228    9.6409056   0.18810441 
   40400   -693.97151    35.793498   -658.17801    1085.9237   -732.27185    9.8094666   0.13934875 
   40500   -691.62837    30.892067    -660.7363     937.2213   -719.31333    9.7805944    0.1621696 
   40600   -687.66678    32.684669   -654.98211    991.60628   -3059.1642    9.6855924   0.16328989 
   40700   -690.82004    35.637626   -655.18242    1081.1948    4708.5816    9.8126939   0.12817767 
   40800   -689.15321    30.086184   -659.06703    912.77196   -2136.5771    9.7315972   0.13996038 
   40900   -692.78189    34.146509   -658.63538    1035.9564     461.7542    9.8002834    0.1429444 
   41000   -687.62193    34.385673   -653.23626    1043.2123   -3263.7875    9.6791677   0.16424911 
   41100   -692.05096    33.591067   -658.45989    1019.1051    7989.4917    9.8763627   0.12638702 
   41200   -692.52972    32.885299   -659.64442     997.6931   -5732.5345    9.7359903   0.13698505 
   41300   -688.91658    34.765425   -654.15116    1054.7335   -3867.5231    9.6872484   0.15453394 
   41400   -690.57252    33.235576   -657.33695      1008.32    4739.5726    9.8106335   0.12929309 
   41500   -693.64165    33.748673   -659.89298    1023.8867   -8649.1228    9.7305561   0.12916422 
   41600   -688.65116    33.291887   -655.35927    1010.0284    10900.162    9.8484625   0.13498831 
   41700   -689.01884    32.640841     -656.378     990.2766   -3673.4496    9.7022286   0.17473258 
   41800   -693.47807    32.350973    -661.1271    981.48241   -4197.3696    9.7637665   0.14127109 
   41900   -689.57538    33.246664   -656.32871    1008.6564    4945.8072     9.797234   0.16056756 
   42000   -689.35335     33.51056   -655.84279    1016.6626   -3601.3827    9.7008675   0.16401397 
   42100   -693.43951     33.54589   -659.89362    1017.7345    48.388792     9.810941   0.13736565 
   42200   -690.03153    33.640555   -656.39098    1020.6065     9399.669    9.8600536   0.15945218 
   42300   -686.94828    32.021531   -654.92675    971.48762   -7697.1617    9.6219996   0.18064441 
   42400   -692.64443    32.279788   -660.36465    979.32276    7213.2674    9.8846981   0.12657781 
   42500   -690.58102    32.299889   -658.28113     979.9326   -4793.3223    9.7162934   0.16223233 
   42600   -687.87762     33.30745   -654.57017    1010.5006    922.08667    9.7286861   0.17197804 
   42700   -693.41567    33.666585   -659.74908    1021.3962   -2264.6683    9.7904961    0.1405193 
   42800   -691.73704    33.040383   -658.69666    1002.3981   -719.51796    9.7766461   0.12955738 
   42900   -688.58161    35.010251   -653.57136    1062.1611    3669.7917    9.7642392    0.1557261 
   43000   -688.89213    29.349126     -659.543    890.41067     2007.061    9.7625621   0.15931737 
   43100   -690.33451    31.029972   -659.30454    941.40514   -416.34399    9.7620019   0.14783661 
   43200   -689.29929    34.202111   -655.09718    1037.6433    6255.6853    9.8012779   0.13923283 
   43300   -690.50139    33.240466   -657.26092    1008.4684   -403.26277    9.7630355   0.16517608 
   43400   -691.94138    30.863542   -661.07784    936.35589    2792.5645    9.8229595   0.13142976 
   43500   -690.62183     33.52012   -657.10171    1016.9527      1647.77    9.7862492   0.13404654 
   43600   -688.16124    31.559174   -656.60206    957.46039    623.64636    9.7395005   0.15731744 
   43700   -693.40239    30.979112   -662.42328    939.86211   -2714.5829    9.8066083   0.13161307 
   43800   -690.92068    33.266645   -657.65404    1009.2626    1164.9362    9.7990449   0.14239788 
   43900   -689.87063    32.334127    -657.5365    980.97134   -4255.1631    9.7049211   0.16134657 
   44000   -693.03674    32.261079   -660.77566    978.75516    1323.2736    9.8218181      0.13332 
   44100   -691.37523    28.898414   -662.47681    876.73672    4176.4049    9.8391672   0.12125299 
   44200   -689.85499    33.061111   -656.79388     1003.027    -4470.631    9.7089875   0.16151293 
   44300   -691.70988    34.023354   -657.68653    1032.2201   -537.17924    9.7778283   0.15057441 
   44400   -690.99474    30.468131   -660.52661    924.35968   -5064.3018    9.7376973   0.14813873 
   44500   -692.78172    29.441569   -663.34015    893.21526    9619.9809    9.9250311    0.1338452 
   44600   -689.33182    32.246534   -657.08528    978.31391   -857.45906    9.7455246   0.15015027 
   44700   -689.83893     32.01753    -657.8214    971.36625    4201.5281    9.8113814   0.13742724 
   44800   -693.21828    33.898566   -659.31971    1028.4342    1187.9705    9.8173188   0.13422266 
   44900   -689.53134      35.6286   -653.90274     1080.921   -9706.7416     9.638747   0.17156368 
   45000   -689.16067    34.537422   -654.62324    1047.8162    2487.5548    9.7631619   0.15813054 
   45100   -690.62379    32.714542   -657.90925     992.5126    3601.9121    9.8128905   0.13851769 
   45200   -690.67583    31.112818   -659.56301    943.91857   -2665.6386    9.7404284   0.15075891 
   45300   -690.44712    35.779201   -654.66792      1085.49    2821.0301    9.7968636   0.15305412 
   45400   -686.30083    32.042558   -654.25827    972.12555   -2781.7612     9.675686   0.18841521 
   45500   -691.60685    33.532732   -658.07411    1017.3353    2339.1293    9.8093705   0.15355171 
   45600   -690.30662    31.017475   -659.28914    941.02601    742.57033    9.7747566   0.13593383 
   45700   -695.41235     30.94966   -664.46269    938.96859   -766.77779    9.8468131   0.12080747 
   45800   -691.14693    30.564975   -660.58195     927.2978    6286.6831    9.8521359   0.13948909 
   45900   -690.84717    32.728911   -658.11826    992.94854    -3576.944    9.7322238   0.15954038 
   46000    -692.0282    34.400211   -657.62799    1043.6534    3677.3056      9.82533   0.14540948 
   46100   -691.14848    32.199567   -658.94891    976.88899   -4653.3258    9.7313367   0.16466918 
   46200   -696.19622    31.738884   -664.45734    962.91251    2458.8631    9.8868344    0.1247206 
   46300   -691.54085    32.099249    -659.4416    973.84548    1217.7418    9.7990887   0.15670134 
   46400   -690.02154    32.839983   -657.18156    996.31831   -518.90961    9.7457746   0.15318144 
   46500    -692.2574    33.337207    -658.9202    1011.4034    2380.4133    9.8150796   0.14629025 
   46600   -694.87333    31.140737   -663.73259     944.7656   -4458.3893     9.799806   0.13455399 
   46700   -691.71071    34.217274   -657.49344    1038.1033   -3217.2733    9.7490255   0.14313974 
   46800    -691.4266    33.874977   -657.55163    1027.7185    -384.4364    9.7688531   0.13480897 
   46900   -692.55207    33.099386   -659.45269    1004.1882     3318.283    9.8321045   0.12675932 
   47000   -695.75896    31.090498   -664.66846    943.24141   -10925.148    9.7476437    0.1268772 
   47100   -691.74589    33.460417   -658.28547    1015.1414    234.34716     9.779958   0.13608082 
   47200   -692.82798    35.675828   -657.15215    1082.3538    5248.0037     9.856029   0.12389287 
   47300   -690.14216    30.979248   -659.16291    939.86626   -3919.4474    9.7219881   0.15768228 
   47400   -694.63804    31.552567   -663.08547    957.25993    7209.9015    9.9192206   0.12579712 
   47500   -689.83509     29.87272   -659.96237    906.29576   -665.86085    9.7563744   0.16025377 
   47600   -689.96082    32.589356   -657.37146    988.71463   -7460.2383    9.6814637   0.15746978 
   47700   -690.53673    32.205415   -658.33131    977.06639    6317.2236    9.8376683   0.13157075 
   47800   -690.15506    31.693877   -658.46119    961.54707   -386.33043    9.7597294   0.15380466 
   47900   -686.35435    33.358283   -652.99607    1012.0428   -1681.3679    9.6724966    0.1912382 
   48000   -692.64672    33.879495   -658.76723    1027.8556     -1444.01    9.7820092   0.13857661 
   48100   -691.38433    32.424292   -658.96004    983.70682    1880.0143    9.7948559   0.13350965 
   48200   -689.05963    34.336344   -654.72329    1041.7157    5265.4923    9.7974362   0.15803034 
   48300   -686.54138      32.2903   -654.25108     979.6417    3980.4129     9.742413   0.17219214 
   48400   -690.67194      30.5235   -660.14844    926.03949   -7335.4845    9.6992331   0.16487857 
   48500   -693.03991    35.678039   -657.36187    1082.4209    9130.7915    9.9013844   0.12371694 
   48600   -688.70965     32.11258   -656.59707    974.24992   -7395.2941    9.6632104   0.16891583 
   48700   -694.04815    31.629976   -662.41817     959.6084    6347.0298    9.8958155   0.13004858 
   48800    -691.1536    30.180188   -660.97341    915.62389   -1151.8172    9.7611098   0.15835706 
   48900   -688.36074    31.501519   -656.85922     955.7112   -1727.3498    9.7167269   0.17183549 
   49000   -690.47161    34.480235   -655.99137    1046.0812    7665.3306    9.8422088   0.12380681 
   49100   -694.09942    32.640823   -661.45859    990.27607    441.65061    9.8322414     0.126964 
   49200   -689.85171    32.121914   -657.72979    974.53309    564.39568    9.7621019   0.14785965 
   49300   -687.77104    31.465529   -656.30552    954.61932    3264.1574    9.7600424   0.16438761 
   49400   -691.32583    30.948431    -660.3774     938.9313    1141.6437    9.7904442   0.14777677 
   49500   -691.11737    31.439949   -659.67742    953.84325   -558.43035     9.779621   0.15378242 
   49600   -690.04697    34.742311   -655.30465    1054.0322    2197.8023    9.7808904   0.14146676 
   49700   -690.64424    31.858481   -658.78576    966.54092   -2329.4921    9.7508618   0.14031963 
   49800   -692.06075      29.7902   -662.27055    903.79221    5327.2563    9.8511167   0.12395894 
   49900   -690.99591    35.208897   -655.78701    1068.1878    3927.0704     9.808425   0.13930412 
   50000   -688.79753     31.64164   -657.15589    959.96227    -2292.503    9.7168552    0.1634539 
   50100   -690.56627    32.553565   -658.01271    987.62878     1382.742    9.7758297    0.1527964 
   50200   -688.74441    35.335737   -653.40868    1072.0359    8896.6131    9.8279107   0.14384441 
   50300   -688.69942    34.917844   -653.78157    1059.3576   -7499.0146    9.6384223   0.15255485 
   50400   -692.56683    33.919325   -658.64751     1029.064    3921.4523    9.8467324   0.13182372 
   50500     -691.357    34.753756   -656.60324    1054.3794   -658.04135    9.7665685   0.13936371 
   50600   -689.68872    33.214519    -656.4742    1007.6812    503.92045    9.7542524   0.14416776 
   50700   -691.27201     28.85692   -662.41509    875.47783    2694.3233    9.8170818   0.14078552 
   50800   -692.17596    34.108333   -658.06762    1034.7982    1275.1616    9.8061834   0.14843481 
   50900   -688.81588     32.92317   -655.89271    998.84208   -1009.8198    9.7325859   0.16017586 
   51000   -692.01491    31.624817   -660.39009    959.45189   -4106.0604    9.7508694   0.14568712 
   51100   -694.41841    33.187937   -661.23047    1006.8747     6722.396     9.896118   0.12553072 
   51200   -691.62127    35.914621   -655.70665    1089.5984   -3689.6008    9.7412231    0.1414539 
   51300   -692.54521    34.481464   -658.06375    1046.1185    418.80694    9.8013731    0.1243347 
   51400   -692.43586    32.454641   -659.98122    984.62755     2206.182    9.8329453   0.13238464 
   51500   -686.55151    32.920531   -653.63098      998.762   -1483.2653    9.6872696   0.18117487 
   51600   -690.98372     33.55701   -657.42671    1018.0719    46.159456    9.7686713   0.14734411 
   51700   -691.95046    32.820209   -659.13026    995.71837    2510.2693     9.819645   0.14357858 
   51800   -688.98328    34.032948   -654.95033    1032.5112   -7982.8068    9.6524025   0.17345323 
   51900   -689.29671    35.898146   -653.39856    1089.0986    3939.2911     9.789195   0.15437878 
   52000   -691.25877    32.762407   -658.49637    993.96475    2573.1885    9.8043801   0.15149865 
   52100   -689.23894    31.088461   -658.15048    943.17961   -2763.7233     9.725928   0.16343151 
   52200   -690.66177    35.863256   -654.79851    1088.0401    2055.9238    9.7817381   0.13027159 
   52300   -688.16656      37.3608   -650.80576    1133.4734    1814.2471    9.7318596   0.16583901 
   52400   -687.28762    29.456028   -657.83159    893.65392   -2016.6257    9.6942246   0.17655741 
   52500   -691.57401    33.565075   -658.00893    1018.3166   -699.13825    9.7700292   0.13203532 
   52600   -689.57706      30.7405   -658.83656    932.62298    8369.9691    9.8450325   0.12697157 
   52700   -688.89855    33.974213   -654.92433    1030.7292   -4690.7129    9.6770219   0.14941638 
   52800   -687.40625    34.083035   -653.32322    1034.0307    2011.0101    9.7240586   0.15638822 
   52900   -690.63735    33.911202   -656.72615    1028.8175    5107.9235    9.8244388   0.12534865 
   53000   -690.48348    31.173852   -659.30963    945.77025   -6163.1974    9.7048608   0.16563219 
   53100   -687.75074    32.343011   -655.40773    981.24088     3559.553    9.7511408   0.15535022 
   53200   -688.20364    33.706878   -654.49676    1022.6186    4546.6704    9.7741647   0.15697091 
   53300   -690.63351    31.241525   -659.39199    947.82337   -7682.2872    9.6869638   0.14997375 
   53400   -693.44165     35.59902   -657.84263    1080.0235    13448.493    9.9519475   0.11968703 
   53500   -686.92957    33.919563      -653.01    1029.0712   -767.79417    9.7013086   0.17048124 
   53600   -689.36722    31.340215     -658.027    950.81748   -1601.3182    9.7412273   0.15396278 
   53700   -694.30632    34.423821    -659.8825    1044.3697    773.62357     9.832725   0.12443945 
   53800   -688.19704     33.50044    -654.6966    1016.3556   -5014.0635    9.6672997   0.16292073 
   53900   -691.85894     35.16892   -656.69002    1066.9749   -4983.9701    9.7304335   0.14199234 
   54000   -692.74485    32.539084   -660.20577    987.18945    6326.3271    9.8676473   0.11680279 
   54100   -689.42146    33.818112   -655.60335    1025.9933   -7197.3047    9.6725219   0.15950517 
   54200   -693.07447    36.165435   -656.90904    1097.2078    556.97647    9.8004582   0.14499232 
   54300   -692.88678      31.5805   -661.30628    958.10737     446.2409    9.8170849    0.1347901 
   54400   -689.73904    33.112768   -656.62627    1004.5942   -570.22633    9.7388186   0.15069188 
   54500   -689.45625    33.801822   -655.65443    1025.4991    5259.1209    9.8156276   0.13702254 
   54600   -693.21044    32.665948   -660.54449    991.03831   -494.62871    9.8075964   0.13627881 
   54700   -689.61339    32.905152   -656.70823    998.29543   -6797.1035    9.6753665   0.15938118 
   54800   -687.44715    33.759449    -653.6877    1024.2136    13535.475    9.8648407   0.15663839 
   54900   -689.65801    29.632135   -660.02588    898.99675   -9734.5631    9.6496987   0.15819566 
   55000   -691.17413    32.662688   -658.51145    990.93941    8861.8829    9.8696741   0.13003067 
   55100   -686.40277      32.3566   -654.04617    981.65315    3857.9455    9.7317049   0.16171251 
   55200   -691.05011    31.524031   -659.52608    956.39419   -1392.5872    9.7623765   0.14758161 
   55300   -692.00727     32.78776   -659.21951    994.73391    710.59019    9.8006196   0.16325985 
   55400   -690.55355    35.127663   -655.42588    1065.7232   -8460.8026    9.6663517   0.16743898 
   55500   -692.01642    32.141615    -659.8748    975.13079    8138.5815    9.8747261   0.12651061 
   55600   -692.89643    31.913404   -660.98302    968.20721   -7404.5643    9.7230736   0.15011989 
   55700   -689.44346     33.13981   -656.30365    1005.4146    9261.0946    9.8462097   0.13825178 
   55800   -691.39836    33.220466    -658.1779    1007.8616   -2555.1073    9.7510167   0.15216206 
   55900   -691.92091    29.112783   -662.80813    883.24036    404.61698    9.8022557    0.1393909 
   56000   -692.35746    32.070944   -660.28652    972.98673    9732.1102    9.9108701   0.14157214 
   56100    -689.0741    31.855101     -657.219    966.43837   -11197.757     9.615397   0.18642205 
   56200   -691.76979    34.543266   -657.22652    1047.9935    8113.9957    9.8546387   0.13741813 
   56300    -690.8663    29.810301     -661.056    904.40206   -3247.0886    9.7514876    0.1494557 
   56400   -693.96157    31.765346   -662.19622    963.71533   -3259.6665    9.7881774   0.14297953 
   56500   -691.86277    35.235196   -656.62758    1068.9857    3204.6362    9.8239799   0.14000206 
   56600   -687.57609    30.773111   -656.80298    933.61235   -8861.0601    9.6243277       0.1717 
   56700   -692.34636    33.476152   -658.87021    1015.6188    12858.924    9.9259292     0.135072 
   56800   -692.76859    30.270933   -662.49765    918.37698   -4397.3628    9.7691076   0.13403153 
   56900    -690.1786    32.724425   -657.45418    992.81243   -2723.4884    9.7232942   0.16123462 
   57000   -690.27967    32.987311   -657.29236     1000.788    3073.9505    9.7973024   0.14830779 
   57100   -695.85723    33.046523   -662.81071    1002.5844    -2107.223    9.8276786   0.11741427 
   57200   -692.07209    31.943908   -660.12818    969.13264   -2380.4959    9.7810913   0.14634047 
   57300   -690.55635    33.727392   -656.82896     1023.241   -92.852231    9.7501844   0.14334935 
   57400   -691.85015    33.843642   -658.00651    1026.7679    6569.2375    9.8458263   0.14884074 
   57500   -692.05534    28.325049   -663.73029    859.34163   -8341.2624    9.7078438   0.15982381 
   57600   -690.89315    31.843977   -659.04918    966.10089    10699.701    9.8989438   0.13889304 
   57700   -690.35089    33.144741   -657.20615    1005.5642   -4314.8128    9.7128739   0.15057722 
   57800   -689.70851    31.441913    -658.2666    953.90285    3311.1704    9.7928618   0.13188148 
   57900   -694.61195    30.930515   -663.68144    938.38775    3674.2756    9.8833318   0.11509622 
   58000   -691.92521    33.642789   -658.28242    1020.6743   -6405.3808    9.7164598   0.16018992 
   58100   -691.58432    34.421275   -657.16305    1044.2924   -2554.2985    9.7502066   0.13771945 
   58200   -694.99236    35.442191   -659.55017    1075.2656   -4543.1062    9.7907557   0.12745041 
   58300   -693.45622    29.452715    -664.0035    893.55342    7982.4649    9.9153495    0.1164118 
   58400   -688.83846    31.085704   -657.75276    943.09598   -9755.2988    9.6415922   0.16872526 
   58500   -689.30025    32.564984   -656.73527    987.97522    9803.9227    9.8679964    0.1432623 
   58600   -689.98273    30.846885   -659.13585    935.85055   -7125.3219    9.6828424   0.16900043 
   58700   -691.99188    31.153759   -660.83812    945.16065    9578.5703    9.8982585    0.1415655 
   58800   -685.90315     31.33804   -654.56511    950.75148   -2585.9379    9.6669374   0.18161066 
   58900   -691.29762    34.986831   -656.31079    1061.4506    1273.1642    9.7830171   0.14303018 
   59000   -689.26794     30.12301   -659.14493    913.88921   -1149.4558    9.7330396   0.17426805 
   59100   -689.20623    33.358257   -655.84798     1012.042   -2769.0789      9.70658   0.17194206 
   59200   -687.07645    33.366479   -653.70997    1012.2914    4914.2674    9.7621887   0.17583343 
   59300   -688.98443    29.554216   -659.43021    896.63281   -2186.9911    9.7178139   0.16374276 
   59400   -691.89281    33.238743   -658.65407    1008.4161    -3345.933    9.7564716   0.14584977 
   59500   -690.94712    37.699669   -653.24745    1143.7542    6696.9332    9.8318195   0.15181558 
   59600   -688.42083    32.586473   -655.83436    988.62716   -7945.2372    9.6523292   0.18155236 
   59700    -692.1683     33.03488   -659.13342    1002.2312    3276.2295    9.8250409   0.13622151 
   59800   -689.69202     32.64118   -657.05084    990.28689    4075.6443    9.8025424   0.14578118 
   59900   -689.63842    36.098267   -653.54015      1095.17   -11566.593    9.6261783    0.1763437 
   60000   -693.02398    32.934231   -660.08975    999.17763    3214.1851    9.8281606   0.14044924 
   60100    -688.4801    29.179417   -659.30069    885.26194   -1330.7842    9.7336931   0.15182723 
   60200   -689.78746    35.106275   -654.68118    1065.0744    1781.1755    9.7691937   0.14870665 
   60300   -691.86374    32.388711   -659.47503    982.62734   -3466.8552    9.7531385   0.14404854 
   60400   -694.53512     34.25761   -660.27751    1039.3271   -6624.8423     9.760785   0.12401479 
   60500    -691.6577     35.62519   -656.03251    1080.8175    3643.8323    9.8121799   0.13052745 
   60600   -689.34514    32.843652   -656.50149    996.42959   -2311.5881    9.7170336   0.14544768 
   60700   -693.35648    31.810933   -661.54554     965.0984   -1752.2796    9.8001882   0.12352798 
   60800   -692.65108    35.595945   -657.05514    1079.9303   -4414.3656    9.7470275   0.13239991 
   60900   -691.13149    34.171562   -656.95993    1036.7165   -235.56545    9.7717659   0.15196993 
   61000   -693.00037    31.026012   -661.97436    941.28501   -3747.4703    9.7684036   0.14968795 
   61100   -692.58117    35.710537   -656.87064    1083.4068    1360.4839     9.810956   0.12878356 
   61200    -690.2949    33.865971   -656.42893    1027.4453   -2296.8132    9.7423704    0.1544051 
   61300   -692.20323    30.219758   -661.98348    916.82441    3503.3797     9.840201   0.13461791 
   61400   -688.82947    30.442713   -658.38676    923.58854   -436.04173    9.7378769   0.16215943 
   61500   -691.82171    36.352164   -655.46954    1102.8729   -9111.9044    9.6890246   0.15057783 
   61600   -692.85637    33.345327   -659.51104    1011.6497    10402.042    9.9205328   0.13120905 
   61700   -690.30791    32.601069   -657.70684    989.06999   -6717.6118    9.6949651   0.16596148 
   61800   -689.89818    36.010391   -653.88779     1092.504     3491.038    9.7831198    0.1566318 
   61900   -692.19851    33.325781   -658.87273    1011.0567   -1928.1584    9.7669443   0.13950075 
   62000   -691.35517    31.780598   -659.57457    964.17805   -3503.9582    9.7506329   0.14993455 
   62100   -689.22584    36.131809   -653.09403    1096.1876     2205.529    9.7638946   0.15286879 
   62200   -691.16087    33.397385   -657.76348    1013.2291   -4512.1755    9.7331926   0.14621358 
   62300   -690.20223    30.933714   -659.26851     938.4848   -1394.9539    9.7605908   0.14918294 
   62400   -686.78009    32.177345   -654.60274    976.21479    3123.3041    9.7534507   0.15445419 
   62500   -690.22723    33.879014   -656.34822     1027.841   -3107.2503    9.7231444   0.15208087 
   62600   -693.87846    34.649808   -659.22865    1051.2258   -14.236806    9.8156219   0.14537161 
   62700   -690.74017     33.85357    -656.8866    1027.0691   -4878.9002    9.7109435   0.15056388 
   62800   -687.30327    32.519737   -654.78353    986.60248    4429.9032    9.7572709   0.15899517 
   62900   -685.53076     33.68529   -651.84547    1021.9637   -1133.4833    9.6586739   0.17244115 
   63000    -690.3477     31.90017   -658.44753     967.8057    251.29361    9.7614538    0.1629522 
   63100   -691.57252    33.934443   -657.63807    1029.5226   -4644.1423    9.7350233   0.15510384 
   63200    -690.9803     33.03246   -657.94784    1002.1578   -1340.1903    9.7592043    0.1400769 
   63300   -694.91547    31.016343   -663.89913    940.99164    -144.0319    9.8442773   0.12332051 
   63400   -691.03522    32.129004   -658.90621    974.74821    1883.3389    9.7994004   0.14234992 
   63500   -688.85219    31.856753   -656.99544    966.48849    7579.7105    9.8267206   0.14310406 
   63600   -691.37788    33.774092   -657.60379    1024.6578    699.40682    9.7751857   0.13206753 
   63700   -695.90052    33.173445   -662.72708    1006.4351   -7381.3202      9.77564   0.12240525 
   63800   -692.57981    35.541303   -657.03851    1078.2725     5610.027    9.8548835   0.12782249 
   63900   -689.18144    32.038412   -657.14303    971.99977   -9532.1858    9.6446218   0.16186639 
   64000   -690.96772    31.031739   -659.93598    941.45874    2150.1899    9.8050135   0.12931627 
   64100   -694.38305     31.14391   -663.23914    944.86186    4209.0103    9.8726897   0.11503392 
   64200   -689.45368    32.240408   -657.21327    978.12804   -3213.0216    9.7236639   0.14315409 
   64300   -691.40425    33.957356    -657.4469    1030.2178    7658.9631    9.8632737   0.13701315 
   64400   -692.06927    31.683577   -660.38569    961.23457   -7464.5182    9.7147456   0.15110548 
   64500   -696.18472    31.498225    -664.6865    955.61126    3307.5869    9.8954302   0.11404612 
   64600    -690.8511    32.922367   -657.92873    998.81769   -1259.8285    9.7578351   0.14604779 
   64700   -690.83924    33.039357   -657.79988     1002.367    2290.4075    9.7954812   0.14234967 
   64800   -692.35412    34.914736   -657.43938    1059.2634   -4401.4204    9.7346967   0.13336948 
   64900   -688.41846    34.865863    -653.5526    1057.7806    9172.3557    9.8158615   0.14036327 
   65000    -684.0187    32.319584   -651.69912    980.53014   -9356.9836    9.5553591   0.19539646 
   65100   -691.77621    34.406108    -657.3701    1043.8323    -1311.207    9.7702669   0.13191619 
   65200   -692.52793    33.634485   -658.89344    1020.4224   -623.36683    9.7942825    0.1381544 
   65300   -688.76678    33.281723   -655.48505    1009.7201   -2670.0697    9.6979009   0.16854352 
   65400   -688.40276    34.142998   -654.25976    1035.8499   -1639.2436     9.712397   0.17614443 
   65500   -692.91723    33.059693   -659.85753     1002.984   -5784.5307    9.7519911   0.14691199 
   65600   -691.67827    33.913462   -657.76481    1028.8861     3244.177    9.8195627   0.14033418 
   65700   -686.28715    30.835499   -655.45165    935.50511   -6967.3468    9.6273708   0.20039506 
   65800   -689.77573    32.451948   -657.32378    984.54587    6622.1259    9.8207381   0.14553011 
   65900   -691.89875    31.177921   -660.72083    945.89369    760.04686    9.7973481   0.13449632 
   66000   -692.90076    35.411102   -657.48966    1074.3224    577.08541    9.7991675   0.13821685 
   66100   -690.27792    35.157535   -655.12038    1066.6295   -1743.5422     9.741837   0.14404359 
   66200   -692.87203    31.622844   -661.24919    959.39204    4511.5598     9.856172   0.13117194 
   66300   -691.23676    30.980427   -660.25633    939.90201   -2481.6354    9.7568439   0.14799516 
   66400   -689.92559     33.55553   -656.37006     1018.027    4952.7404    9.7966254   0.14848884 
   66500   -693.69783    35.174818   -658.52301    1067.1539   -8576.4392      9.71733   0.14389575 
   66600   -692.07313    30.534917   -661.53821    926.38587    5607.4115    9.8541599   0.14031473 
   66700   -687.89729    31.383775   -656.51351    952.13902   -3150.9052    9.6984843   0.17719318 
   66800   -689.16059    31.619489    -657.5411    959.29025   -74.839269    9.7384682    0.1499119 
   66900    -692.6257    30.997878   -661.62782    940.43144    11972.791    9.9294861   0.11214409 
   67000    -689.0118    32.477286   -656.53451    985.31459   -3345.3177    9.7057932   0.14577724 
   67100    -692.0567    36.411671   -655.64503    1104.6782    5799.6707    9.8380754   0.12610473 
   67200   -691.08746    31.559075   -659.52839    957.45738    390.79997    9.7864764    0.1452189 
   67300   -691.43058    32.328198   -659.10238    980.79147   -7450.7587    9.6996806   0.16282282 
   67400   -690.39319    36.712199   -653.68099    1113.7958    4550.3552    9.8047879    0.1498784 
   67500   -690.37071     32.01031    -658.3604    971.14721   -6459.9787    9.6985119     0.163651 
   67600    -692.3854    33.320238   -659.06516    1010.8886     3052.111    9.8248435   0.13569719 
   67700   -688.01162    35.056748   -652.95487    1063.5718   -3331.7625    9.6859676   0.15762362 
   67800   -690.20203    32.553176   -657.64886    987.61697    827.43016    9.7694539   0.13589944 
   67900   -691.21977    32.212523   -659.00724    977.28206   -800.95333    9.7713954   0.15220355 
   68000   -690.07044    34.553756   -655.51669    1048.3117    863.11823    9.7673412   0.14721209 
   68100   -690.56906    35.963402   -654.60566    1091.0784    2733.7917    9.7759491   0.13743588 
   68200   -690.47008    30.019664   -660.45042    910.75383   -10390.514    9.6623019   0.15155663 
   68300   -692.98083    35.959873   -657.02096    1090.9713    8185.7857    9.8915879    0.1198354 
   68400   -688.22368    31.758769   -656.46491     963.5158    5100.2356    9.7991844   0.15035628 
   68500   -694.33198    32.423795   -661.90818    983.69173   -10764.151    9.7217497   0.14118268 
   68600     -691.359    31.170177   -660.18882    945.65876    7417.3126    9.8652018    0.1379132 
   68700   -689.33786    32.622482   -656.71538    989.71962   -73.731743    9.7478895   0.15298794 
   68800   -692.04951    32.526633   -659.52287     986.8117   -1553.4103    9.7673918   0.13825241 
   68900   -691.98932    30.247703   -661.74162    917.67221    5341.1665    9.8467312   0.12761999 
   69000   -689.18748    34.544723   -654.64276    1048.0377   -4778.2471    9.6906474   0.15267079 
   69100   -691.08159    34.656112   -656.42548     1051.417    11712.083    9.9097865   0.11980965 
   69200   -689.07003     29.27599   -659.79404    888.19182   -10496.869    9.6350787   0.16110163 
   69300   -692.74613    35.625952   -657.12018    1080.8406    7421.0856    9.8726961   0.13409381 
   69400   -686.47657    32.768997   -653.70758    994.16466    767.73626    9.7057348   0.16485465 
   69500   -691.09676    32.367067    -658.7297    981.97069    -1383.625    9.7488386   0.15611828 
   69600   -692.26195    33.353176   -658.90878    1011.8878    7320.4561    9.8674862   0.14386461 
   69700   -688.97844    35.193258   -653.78518    1067.7133   -5538.6122    9.6802061   0.16490218 
   69800   -689.87575    34.145577   -655.73017    1035.9281    10521.391    9.8751079   0.14103967 
   69900    -692.0715    32.657049   -659.41445    990.76833   -3368.1706    9.7558899   0.14755838 
   70000   -688.00998    31.910507   -656.09948    968.11931    2045.4999    9.7425266   0.17489281 
   70100   -688.67198     33.64779   -655.02419     1020.826     1930.884    9.7425989   0.13828141 
   70200   -689.82016    28.815029   -661.00513    874.20693   -3205.3874    9.7235211   0.14327236 
   70300   -690.75942    32.223361   -658.53606    977.61085     6771.063    9.8360739   0.14518962 
   70400   -689.02829    32.785176   -656.24311    994.65552     -9956.89    9.6470804   0.17671341 
   70500   -693.65294    32.517418   -661.13552    986.53214    2947.5304    9.8543118   0.14232482 
   70600   -692.86398    32.518641   -660.34534    986.56924   -105.21987    9.8080663   0.14071662 
   70700   -690.89523     35.22274   -655.67249    1068.6077    261.27921    9.7741529   0.13054394 
   70800   -692.23586    33.451901   -658.78396     1014.883    3183.8536    9.8277098   0.12078347 
   70900   -694.33802    33.312135   -661.02588    1010.6427    -6333.525    9.7593076   0.13607592 
   71000   -688.60637    33.771499   -654.83487    1024.5792    2871.1616    9.7565452   0.15708097 
   71100   -689.97032    33.158479   -656.81184     1005.981    680.03155     9.767612   0.15238235 
   71200   -690.91785     29.77284   -661.14501    903.26554   -980.37413    9.7778509   0.14816663 
   71300   -691.26968    33.815146   -657.45454    1025.9034    1246.5071    9.7922784   0.13173572 
   71400   -688.81086    32.954901   -655.85596    999.80473    1387.4679    9.7553143   0.15423707 
   71500   -692.41854    32.257991   -660.16055    978.66147    1648.0402    9.8233181   0.13483314 
   71600   -693.75375     34.26063   -659.49312    1039.4187    -3603.251    9.7803617   0.13221942 
   71700   -688.56741    33.548488   -655.01893    1017.8133   -3815.4566    9.6908912   0.16520729 
   71800   -689.69416    30.628776   -659.06538    929.23342    6896.9169    9.8273417   0.15052845 
   71900   -689.67166    29.764419   -659.90724    903.01006    6259.1035    9.8299355   0.14854766 
   72000    -688.5401    34.527752   -654.01235    1047.5228   -6090.8173    9.6635569   0.16344141 
   72100   -692.06941    33.733516    -658.3359    1023.4268    9425.1035    9.9007448   0.13869992 
   72200   -692.13467    32.984713   -659.14995    1000.7092   -9873.4979    9.6915472   0.15320527 
   72300   -688.00584    34.377413   -653.62843    1042.9617    2513.4129    9.7456125   0.17236503 
   72400    -691.9277    34.163317   -657.76438    1036.4664    71.657053    9.7897858   0.14313258 
   72500   -690.50025    30.666509   -659.83374     930.3782    261.38971     9.771668    0.1443435 
   72600   -689.84987    34.692967   -655.15691    1052.5352   -4179.0288    9.7126788   0.16259436 
   72700   -689.04891    33.032605    -656.0163    1002.1622   -1035.1126    9.7300518    0.1570476 
   72800   -692.54281    32.245371   -660.29744     978.2786    1227.5685    9.8164538   0.14141135 
   72900   -691.89832    35.370176   -656.52815    1073.0807   -4339.8323     9.742887   0.14178041 
   73000    -690.5288    36.459366   -654.06944    1106.1252   -1993.0523    9.7372608   0.15472013 
   73100     -693.785    33.544451   -660.24055    1017.6908   -2843.7695     9.783912   0.13281383 
   73200    -692.5327    34.530108    -658.0026    1047.5943    4310.3565    9.8382674   0.14536423 
   73300   -688.98834    33.938977   -655.04936    1029.6602   -14946.294    9.5733198   0.17026471 
   73400   -690.16942    31.545125    -658.6243    957.03414    10705.992    9.8728704   0.15744479 
   73500     -692.512    32.426749   -660.08525    983.78137   -6592.6613    9.7266288   0.14763679 
   73600   -691.65484    36.588194   -655.06665    1110.0337   -862.73016    9.7640179   0.14920071 
   73700     -690.284    32.060331   -658.22367    972.66477   -1082.8555    9.7510002   0.15470327 
   73800   -693.10263    32.847494   -660.25514    996.54618   -5994.7568    9.7467254   0.14861228 
   73900   -691.60244    36.113295   -655.48914    1095.6259    3368.0477    9.8077841   0.14770623 
   74000    -687.5841    29.048716   -658.53538    881.29665   -8252.1867     9.633751   0.17961759 
   74100    -693.2812    32.244774   -661.03643     978.2605     6920.616    9.8946759   0.13046696 
   74200   -688.47617    33.224277   -655.25189    1007.9772    2786.2883    9.7531551   0.16740135 
   74300   -689.16895     31.54812   -657.62083    957.12502    -1087.037    9.7262736   0.16764863 
   74400   -691.63835    31.228607   -660.40974    947.43146    4667.5151    9.8423225   0.13761259 
   74500   -687.57607    32.910767    -654.6653    998.46579   -1867.6294    9.7058637   0.18138007 
   74600   -689.30159    32.956618   -656.34497    999.85683   -458.27642    9.7465253   0.15079642 
   74700   -692.54205    32.680023   -659.86202    991.46534    4035.9224    9.8483205   0.12887423 
   74800   -689.35626    33.313147   -656.04312    1010.6734   -2472.2968    9.7090478   0.15052692 
   74900    -686.8933    31.927247   -654.96605     968.6272   -836.27042    9.7024609   0.16835204 
   75000   -694.45626    33.626489   -660.82978    1020.1798   -4297.8438    9.7901612    0.1355383 
   75100   -689.48357    32.208114   -657.27546    977.14829    133.60303    9.7584331    0.1460909 
   75200   -690.42952    35.571802   -654.85772    1079.1978   -2600.5192    9.7403911   0.15862784 
   75300   -693.32536    32.214779   -661.11058    977.35051    3299.9088    9.8513116   0.13412071 
   75400   -690.93633    32.019353   -658.91698    971.42156   -8443.3546    9.6851473   0.16011453 
   75500   -689.61439    34.151881   -655.46251    1036.1194   -267.09214    9.7445235   0.15838232 
   75600   -692.87615    32.717242   -660.15891     992.5945   -2155.8832    9.7859655    0.1268545 
   75700   -692.42288    32.141583    -660.2813    975.12985    2965.9228    9.8318691   0.12091091 
   75800   -688.49132    32.659871   -655.83144    990.85396    1864.4888    9.7520766   0.15156599 
   75900   -688.20714    31.218673   -656.98846    947.13005     2678.339     9.753591    0.1554015 
   76000   -691.76414    30.257309   -661.50683    917.96364   -949.41725     9.784515   0.13395073 
   76100   -690.94145    35.016386   -655.92507    1062.3473    7461.0724    9.8520792   0.12662748 
   76200   -691.55728    34.634697   -656.92258    1050.7674   -8975.9846     9.684923    0.1540954 
   76300   -693.60007     31.96358   -661.63649    969.72947    5912.0801    9.8855415   0.10998508 
   76400   -690.75024    33.004826   -657.74542    1001.3194   -4042.7161    9.7282582    0.1633943 
   76500   -689.61136    33.137269   -656.47409    1005.3375   -885.66751     9.727643   0.15503269 
   76600   -692.27306    34.637593   -657.63547    1050.8552   -5397.3035    9.7409421   0.14085828 
   76700   -692.66239      29.3203   -663.34209    889.53612    1526.7143    9.8237032   0.14291971 
   76800   -691.90622    33.160951   -658.74527     1006.056   -880.59209    9.7737221   0.15868043 
   76900   -688.50255    31.268071   -657.23448    948.62873    1730.9822    9.7477392   0.17070959 
   77000    -692.0735     32.26432   -659.80918     978.8535    -593.0372    9.7780355   0.14092844 
   77100   -695.90668    33.026775    -662.8799    1001.9853   -3977.9445    9.8099774   0.12771569 
[...]
  481400   -693.82359    33.948124   -659.87547    1029.9377   -2929.0246    9.7888863   0.13004306 
  481500   -688.18529    34.109004   -654.07629    1034.8186    1330.4478    9.7289585   0.15158508 
  481600   -690.70444    33.737932   -656.96651    1023.5608    6654.9702      9.82842   0.14169914 
  481700   -690.43047     30.69832   -659.73215    931.34329   -8248.3066    9.6759452   0.16925535 
  481800   -690.13589    35.798341   -654.33755    1086.0707    12388.304    9.8856101   0.14215904 
  481900   -690.40173     34.66019   -655.74154    1051.5408   -4787.5557    9.7028812   0.15654863 
  482000   -693.99946    33.890616   -660.10884     1028.193   -11027.263    9.7037554   0.14220342 
  482100   -690.78953    34.160739   -656.62879    1036.3882    2341.6429    9.7991582   0.13452708 
  482200   -689.69472    35.090191   -654.60453    1064.5864   -2717.2061    9.7135058   0.15983052 
  482300   -692.68493    32.032571   -660.65235    971.82257   -3212.2316     9.763514   0.14026687 
  482400   -691.11625    33.423788   -657.69247    1014.0301    7995.9839    9.8544819   0.14522676 
  482500   -687.56346    32.222954    -655.3405    977.59852   -6708.2814    9.6432995   0.16787626 
  482600   -692.68473    31.495278   -661.18945    955.52186    3408.3252    9.8408761   0.13376075 
  482700   -690.66356    32.051443   -658.61212    972.39512   -1390.9728    9.7443173    0.1413723 
  482800   -690.21495    34.802017   -655.41293    1055.8436     4456.055    9.7968441   0.13136823 
  482900   -692.02636    31.845242   -660.18111    966.13927    3172.5212    9.8300449   0.13031844 
  483000   -690.48987    30.949236   -659.54064    938.95571   -1025.3036    9.7600237   0.14107825 
  483100   -686.80814    32.483523   -654.32462    985.50379     9620.841    9.8134672   0.16586177 
  483200   -690.23941    31.479813   -658.75959    955.05266   -11213.282    9.6455663   0.17823266 
  483300   -693.39808    34.179401   -659.21868    1036.9543    8744.4538    9.9060091   0.13107701 
  483400   -685.90003    32.678821   -653.22121    991.42886   -6908.6319    9.6042636   0.19307549 
  483500    -689.3212    32.796009   -656.52519    994.98419    3996.5409    9.7813271   0.14482773 
  483600   -691.25361    32.804308    -658.4493    995.23596    3712.5011    9.8235514   0.13259571 
  483700   -690.16579    33.657373   -656.50842    1021.1167     -6208.83    9.6812612   0.15666417 
  483800   -686.06104    32.197204   -653.86384    976.81729    -3228.269    9.6597302   0.18533715 
  483900   -694.57366    35.001186   -659.57248    1061.8861   -2424.7952    9.8047484   0.13490469 
  484000   -691.06531    32.530142   -658.53517    986.91816   -3229.1153    9.7448895   0.14967321 
  484100   -688.46264    34.711481   -653.75116    1053.0969    4923.6693    9.7811597   0.15594363 
  484200   -691.26165    31.603807   -659.65784    958.81448    169.85891    9.7761814   0.15130018 
  484300   -693.26861    33.947573   -659.32104     1029.921   -4438.0505    9.7657886   0.12900874 
  484400   -689.65306    34.619633   -655.03343    1050.3103    7977.3954    9.8430439   0.14472503 
  484500   -688.34624    31.759507   -656.58673    963.53818   -13329.875    9.5937354   0.18535832 
  484600    -693.5797    32.753495   -660.82621    993.69438    7433.1592    9.8956009   0.12695737 
  484700   -689.03668    32.661361   -656.37532    990.89917   -556.52534    9.7307153   0.15558214 
  484800   -690.94448    35.445655   -655.49882    1075.3707   -3589.1049    9.7355732   0.16106567 
  484900   -692.36337      31.5762   -660.78717    957.97691    3825.6799    9.8402254   0.13173463 
  485000   -689.98076    32.313174   -657.66759    980.33565   -1923.9506    9.7346539     0.147296 
  485100   -686.23331    31.980765   -654.25255    970.25084    252.91096    9.7068135   0.19230883 
  485200   -692.50864     34.68608   -657.82256    1052.3262    6725.4734    9.8624699   0.12734495 
  485300   -693.11438    32.946235   -660.16815    999.54181   -1836.7551    9.7952478   0.13878716 
  485400   -690.49304    33.064308   -657.42873     1003.124   -5783.3548    9.7035629   0.15182017 
  485500    -693.4333    39.190655   -654.24265    1188.9886    10249.843    9.9082885   0.10968539 
  485600   -690.07715    29.560066   -660.51709    896.81029   -9687.9047    9.6654614   0.15302386 
  485700   -693.60939    33.742543   -659.86685    1023.7007    1779.4801    9.8334782   0.13587292 
  485800    -688.7251    32.244375   -656.48073    978.24838    3152.6388    9.7793544   0.15848146 
  485900   -689.47906    31.443955   -658.03511    953.96478   -208.03702     9.749145   0.16246904 
  486000   -692.35606    29.819294   -662.53677    904.67489   -1064.6296    9.7911697   0.13176543 
  486100   -690.09224    33.410732   -656.68151     1013.634    2704.3181    9.7967175   0.14890806 
  486200   -689.76496    33.021316   -656.74364    1001.8197    -1328.463    9.7349643    0.1657803 
  486300   -690.11328    28.229796   -661.88349    856.45178    2340.5035    9.7866582   0.15148598 
  486400   -690.54602    31.732303   -658.81372    962.71286    5062.3739    9.8185671    0.1388019 
  486500   -688.35192    32.286505   -656.06542    979.52655   -3468.2807    9.6920612   0.15722676 
  486600   -691.53003    31.950652   -659.57938    969.33725    1351.4561    9.8077851   0.14894375 
  486700   -692.83192    31.583388   -661.24853    958.19498    1707.5328    9.8220009   0.13566904 
  486800    -688.4988    33.279465   -655.21933    1009.6516    2171.6996    9.7504646   0.14192991 
  486900   -691.98523    33.919326   -658.06591     1029.064   -7039.9032    9.7247814   0.16146596 
  487000   -691.61239     31.64597   -659.96642    960.09364    3059.9326    9.8065778   0.13697303 
  487100   -685.64731    31.851783   -653.79553    966.33772    4204.5303    9.7252238   0.17277455 
  487200   -688.32642    33.162581   -655.16384    1006.1055    5936.4931    9.7898954    0.1451469 
  487300   -691.88458    33.231736   -658.65284    1008.2035    -222.7643    9.7915833   0.14207957 
  487400     -690.575    32.545265   -658.02974    987.37698   -4767.3635    9.7248834   0.16084336 
  487500   -687.95224    36.001496   -651.95074    1092.2341    7539.8293     9.799933   0.15128936 
  487600   -691.18829    32.998071   -658.19022    1001.1144   -6055.8076    9.7130077   0.15417891 
  487700   -689.59251    30.539955   -659.05255    926.53872     4537.244     9.808184   0.15642126 
  487800   -688.93655    34.089836   -654.84671    1034.2371    3157.7475    9.7770105     0.176845 
  487900   -687.55994    33.096866   -654.46307    1004.1118     -4100.12    9.6682222   0.18205912 
  488000   -691.00404    32.095448   -658.90859    973.73015    6485.5761    9.8431542      0.13778 
  488100   -692.01355    34.386263   -657.62729    1043.2302   -5913.8089    9.7198378   0.14494997 
  488200   -687.75616    34.586298   -653.16986     1049.299    4475.2462    9.7722046   0.16342859 
  488300     -688.289    36.296197    -651.9928    1101.1749   -8144.0724    9.6427979    0.1586878 
  488400   -690.60308    33.199384    -657.4037     1007.222   -807.79056    9.7562515   0.14983348 
  488500   -690.68601    32.990386   -657.69562    1000.8813    1760.1749    9.7827864   0.13806792 
  488600    -690.3005     31.49549   -658.80501    955.52829    406.97251    9.7595879   0.14065161 
  488700   -694.30396    29.362341   -664.94162    890.81158    1664.3462    9.8569831   0.12379561 
  488800    -691.5276    31.680615   -659.84698    961.14471    -626.4237    9.7814132   0.13984663 
  488900   -690.62633    32.768257   -657.85807    994.14222    93.056594    9.7713735   0.14115281 
  489000    -689.5189    33.582037   -655.93686    1018.8312   -2149.3362    9.7268946   0.15790073 
  489100    -688.8659    36.518215   -652.34768    1107.9106   -1428.9387     9.718932   0.16367795 
  489200   -691.74539    32.607936   -659.13745    989.27833   -1556.5704    9.7777838   0.12627231 
  489300   -693.33641    35.110239   -658.22618    1065.1946    1008.6985    9.8196022   0.13860724 
  489400    -686.7003    31.742612   -654.95769    963.02562    9709.4805    9.8194661   0.14482684 
  489500   -688.57771    32.694551   -655.88316    991.90611    861.80407    9.7429708   0.15435659 
  489600   -693.24883    33.308391   -659.94044    1010.5291   -3270.6118    9.7777544    0.1394954 
  489700   -690.11754    32.004937    -658.1126     970.9842    7099.7401    9.8330097    0.1493246 
  489800   -687.17612    32.585375   -654.59075    988.59386   -11157.203    9.5875332   0.16810531 
  489900   -692.45946    32.135155    -660.3243    974.93481    12468.856    9.9342565   0.12524333 
  490000   -690.99667    31.540325   -659.45634    956.88852   -5581.3911    9.7222385   0.14399851 
  490100   -686.35848    30.651249   -655.70723    929.91521   -35.946555    9.7009949   0.18191825 
  490200     -690.399    31.516401    -658.8826     956.1627    6074.2287     9.828779   0.15876189 
  490300   -693.16707    31.814795   -661.35227    965.21556   -366.76342    9.8101691   0.13184596 
  490400   -689.95056    33.723453   -656.22711    1023.1215   -608.10397    9.7579725    0.1569253 
  490500   -689.34584    31.760929   -657.58491    963.58133   -2553.8934     9.730781   0.17345631 
  490600   -693.72271    31.352429   -662.37028    951.18803    3246.6658    9.8628516   0.13216252 
  490700   -687.99841    30.749561   -657.24885    932.89787    729.48745    9.7264748   0.16674958 
  490800    -687.5379    30.237002    -657.3009    917.34756    3259.1692    9.7571059   0.18558518 
  490900   -692.58302    31.788025   -660.79499    964.40337    5315.6608    9.8591704   0.13897811 
  491000   -689.40307    30.117074   -659.28599    913.70912   -197.70138    9.7501491   0.15013407 
  491100   -689.99775    34.579068   -655.41868    1049.0796    2183.2673    9.7731022   0.13679106 
  491200   -691.58666    32.996653   -658.59001    1001.0714   -2776.8795    9.7530408   0.13688097 
  491300   -692.40256    31.751495   -660.65107    963.29511    2908.3465    9.8363147   0.12820514 
  491400   -685.18823    30.595429    -654.5928    928.22173   -5592.3481    9.6152932   0.18278479 
  491500   -689.60432    33.794641   -655.80968    1025.2812    2981.7914    9.7856282   0.13945215 
  491600   -691.61072    32.511941   -659.09878    986.36598    3767.6206    9.8315186   0.12486687 
  491700   -691.06689    33.925609   -657.14128    1029.2547   -7345.6874    9.6909642   0.13981663 
  491800   -687.47353    34.448003   -653.02552    1045.1033    6042.6019    9.7640604   0.14751516 
  491900   -690.86928    31.579646   -659.28964    958.08145   -2713.7461    9.7482664   0.14679756 
  492000   -694.22451     36.16933   -658.05518    1097.3259   -3501.6155    9.7895072   0.14339868 
  492100   -690.58764    35.113911   -655.47373     1065.306   -2530.1678    9.7365995   0.15616766 
  492200   -689.05863    38.763326   -650.29531    1176.0241    592.13698     9.738007   0.16967515 
  492300    -686.2853    33.197765   -653.08754    1007.1729     -1539.62    9.6686869   0.18025198 
  492400   -689.64533     33.43126   -656.21407    1014.2568    3145.6363    9.7814383   0.15390122 
  492500   -691.32791     33.74207   -657.58584    1023.6863   -2449.1075    9.7551815   0.14061781 
  492600   -690.57404    32.229618   -658.34442    977.80068     8994.014    9.8700183   0.13953572 
  492700   -688.88608     36.63235   -652.25373    1111.3733    164.26043    9.7317613    0.1506415 
  492800   -689.64917    34.574066   -655.07511    1048.9279    4709.6973    9.7931337   0.14158044 
  492900   -692.91933    34.035121   -658.88421    1032.5771   -2494.0709     9.772136   0.13179122 
  493000   -690.64892    32.666041   -657.98288    991.04113    2664.3186    9.7865301    0.1399776 
  493100   -687.01157    34.873615   -652.13796    1058.0158   -6135.1675    9.6399901   0.17787475 
  493200   -693.31933    35.477286   -657.84204    1076.3303    2567.1589     9.837622   0.13392389 
  493300   -688.79092    30.412021    -658.3789    922.65737   -2564.8717    9.7131238   0.15958586 
  493400   -689.29202    33.486172   -655.80585    1015.9227    3845.5386     9.791929   0.14982676 
  493500   -685.77089    34.532047   -651.23884    1047.6531    4408.8694    9.7300546   0.18669293 
  493600   -689.95515    31.407661   -658.54749    952.86368   -8131.7609    9.6692016   0.15323589 
  493700   -691.33092     32.59558   -658.73534    988.90344    9051.5749    9.8797087     0.150119 
  493800   -692.11186    35.249688   -656.86217    1069.4253   -4337.4058    9.7369725   0.15143267 
  493900    -688.5798    32.866515   -655.71328    997.12322   -315.06768     9.738831   0.16476452 
  494000   -690.47504    28.628398   -661.84664    868.54479    6812.8647    9.8571461   0.15221476 
  494100   -693.08416    32.304157      -660.78    980.06209   -3256.0442    9.7838782    0.1308193 
  494200   -692.88539    35.478195    -657.4072    1076.3579    1461.8934    9.8188306   0.13007092 
  494300   -686.82527    30.194108   -656.63117    916.04621    6298.6111    9.7815385   0.16100196 
  494400   -691.65264    30.177115   -661.47553    915.53066   -6717.0221    9.7226836    0.1463941 
  494500   -691.41379    30.107279   -661.30651    913.41195    11390.621    9.9103819   0.12588556 
  494600   -689.59686    31.902998   -657.69386    967.89152   -6484.2144    9.6745406   0.14798922 
  494700   -690.45483    34.425592   -656.02923    1044.4234    4140.8268    9.8111614   0.14420578 
  494800    -694.8733     34.54165   -660.33165    1047.9444   -5239.6256    9.7767801   0.12771533 
  494900   -692.74101    31.462264   -661.27874    954.52026    3003.4113    9.8356604    0.1277184 
  495000   -691.88188    34.366484    -657.5154    1042.6302   -4316.0722    9.7371955    0.1407989 
  495100   -689.27123    33.448777   -655.82245    1014.7882    5571.9168    9.7996526    0.1363632 
  495200    -693.2533    31.980807   -661.27249    970.25212   -5799.5401    9.7556342   0.13076976 
  495300    -693.0521    32.482406   -660.56969    985.46992     6221.913     9.874851   0.11423794 
  495400    -689.6861    33.300862   -656.38524    1010.3007   -9747.6377    9.6430292   0.17086296 
  495500   -693.92754    36.355365   -657.57217      1102.97    3215.7799    9.8438376   0.12305545 
  495600   -691.52238    30.127784    -661.3946    914.03404   -7193.1669    9.7091824   0.13528261 
  495700   -687.95303    32.028604   -655.92443    971.70222    8993.5344    9.8235045   0.15391921 
  495800   -690.26213    34.615384   -655.64674    1050.1814   -892.47907    9.7403135   0.14707975 
  495900   -692.47103    31.894446   -660.57658    967.63205   -2922.0769    9.7650992   0.13451768 
  496000   -688.54033    31.833614   -656.70671     965.7865     9723.553     9.828832   0.15216012 
  496100   -689.19823    34.490603   -654.70763    1046.3957   -3383.5706    9.7066049   0.17089274 
  496200   -691.00774    32.559436    -658.4483     987.8069     4703.238    9.8210103    0.1401032 
  496300     -691.486     31.18452   -660.30148    946.09392    1977.9737    9.8086644   0.14129386 
  496400   -684.95271    31.100289   -653.85242    943.53847   -4555.2109    9.6228386   0.18208065 
  496500   -689.90453    33.211033    -656.6935    1007.5754    4392.2583    9.8060377   0.15735338 
  496600   -692.34806    33.617779   -658.73028    1019.9155   -5034.9638    9.7477933    0.1573957 
  496700   -690.28204    33.900582   -656.38146    1028.4954   -6807.8185    9.6912033   0.17452732 
  496800   -688.27573    36.353108   -651.92263    1102.9015    7799.6033    9.8001895   0.15935296 
  496900   -688.51811    30.190203    -658.3279    915.92774   -1318.1915    9.7171095   0.16168241 
  497000   -688.77356    30.071318   -658.70224    912.32095     7710.404    9.8252225    0.1346936 
  497100   -688.93879     34.59845   -654.34034    1049.6677   -1599.5847    9.7070173   0.14963568 
  497200   -689.71461    35.964103   -653.75051    1091.0997   -3808.2371    9.7039809    0.1454597 
  497300   -691.78191    33.622089   -658.15982    1020.0463    7022.3014    9.8620864   0.13565318 
  497400   -689.61782    32.068416    -657.5494    972.91006   -5037.4579    9.6964961   0.14330536 
  497500   -690.65816    33.478293   -657.17986    1015.6837    954.05526    9.7771706   0.17095215 
  497600   -684.49368    33.996896   -650.49679    1031.4174   -5883.4803    9.5943018   0.21380949 
  497700   -690.90697    35.197083   -655.70989    1067.8294    4506.6813    9.8189476   0.16635219 
  497800   -689.66026     31.32866    -658.3316    950.46692    493.48319    9.7695556   0.16397796 
  497900   -692.00351    32.479392   -659.52411    985.37847   -68.863566    9.7928062   0.13976084 
  498000   -688.35682    35.823546   -652.53327    1086.8354   -2669.9834    9.7010375    0.1679033 
  498100   -687.90315    32.329103   -655.57405    980.81892    4524.0626    9.7717522   0.17263794 
  498200    -689.7571    30.854878   -658.90222    936.09303   -2785.8024    9.7231699   0.14887095 
  498300   -690.20266    30.551649   -659.65101    926.89349    6352.9172    9.8278774   0.13931393 
  498400   -687.21119    34.295226   -652.91596    1040.4683   -3104.3215    9.6615097   0.17231496 
  498500   -691.14992    34.160536   -656.98938     1036.382    2594.2173    9.8032351   0.15308772 
  498600   -690.08963    31.618179   -658.47145    959.25049     5181.055    9.8137992   0.15262545 
  498700   -689.45408    35.312229   -654.14185    1071.3227   -8608.4676     9.648284   0.16529274 
  498800   -690.98382    33.211206   -657.77261    1007.5807    5231.8608    9.8291665   0.15421475 
  498900   -690.74274    31.496707   -659.24604    955.56523   -3139.5875    9.7396284    0.1575657 
  499000   -690.23503    33.587832    -656.6472     1019.007    2896.4082    9.7872878   0.15393489 
  499100   -688.05491    33.664073   -654.39084      1021.32    -2214.015    9.6932205   0.17805404 
  499200   -693.79868    32.986989   -660.81169    1000.7783    3948.6508    9.8679773    0.1214519 
  499300   -690.62626    32.540253   -658.08601     987.2249   -128.12213     9.777175   0.13567728 
  499400   -691.58367    35.783455   -655.80021    1085.6191    1238.8686      9.78333   0.13178396 
  499500    -692.8189    30.962844   -661.85606    939.36856   -4086.7888    9.7620756   0.12934524 
  499600   -692.46514    33.970814   -658.49432    1030.6261    5506.6443    9.8593141   0.12694862 
  499700   -688.90743    33.318375   -655.58906     1010.832      390.164    9.7457709   0.15301633 
  499800   -690.94841     30.72672   -660.22169    932.20489   -2985.7136    9.7450898   0.16360562 
  499900   -690.18932    30.808943   -659.38037    934.69943    703.36206    9.7761007   0.16099317 
  500000   -688.62065    33.571971   -655.04868    1018.5258    1486.8526    9.7595813   0.16668209 
Loop time of 358.597 on 1 procs for 500000 steps with 256 atoms

Performance: 602.348 ns/day, 0.040 hours/ns, 1394.324 timesteps/s
100.0% CPU use with 1 MPI tasks x no OpenMP threads

MPI task timing breakdown:
Section |  min time  |  avg time  |  max time  |%varavg| %total
---------------------------------------------------------------
Pair    | 216.76     | 216.76     | 216.76     |   0.0 | 60.45
Neigh   | 11.434     | 11.434     | 11.434     |   0.0 |  3.19
Comm    | 3.781      | 3.781      | 3.781      |   0.0 |  1.05
Output  | 0.15701    | 0.15701    | 0.15701    |   0.0 |  0.04
Modify  | 125.59     | 125.59     | 125.59     |   0.0 | 35.02
Other   |            | 0.8688     |            |       |  0.24

Nlocal:    256 ave 256 max 256 min
Histogram: 1 0 0 0 0 0 0 0 0 0
Nghost:    1431 ave 1431 max 1431 min
Histogram: 1 0 0 0 0 0 0 0 0 0
Neighs:    11789 ave 11789 max 11789 min
Histogram: 1 0 0 0 0 0 0 0 0 0

Total # of neighbors = 11789
Ave neighs/atom = 46.0508
Neighbor list builds = 20727
Dangerous builds = 0
    
Total wall time: 0:05:58
