LAMMPS (3 Mar 2020)

# ---------- 1. Initialize simulation ----------
units metal
atom_style atomic
dimension 3
boundary p p p
read_data /home/modeler/RemLabs/Project/test_equil/n3_T1800_timestep3.000000e-03_eqsteps3200_time60/20201204-100414/lammps.data
  orthogonal box = (0 0 0) to (17.469 17.469 17.469)
  1 by 1 by 1 MPI processor grid
  reading atoms ...
  217 atoms
  read_data CPU = 0.000986641 secs

pair_style meam/c
pair_coeff * * library.meam Li Si LiSi.meam Li Si
Reading potential file library.meam with DATE: 2012-06-29
Reading potential file LiSi.meam with DATE: 2020-11-07

group Li type 1
1 atoms in group Li
group Si type 2
216 atoms in group Si

velocity all create 1800 3320 dist gaussian

# ---------- 2. Specify equilibration ensemble  ----------
fix 1 all npt temp 1800 1800 0.15 tchain 2 iso 1.0 1.0 1.0 pchain 2

# ---------- 3. Run equilibration -------------
timestep 0.003
run 3200
Neighbor list info ...
  update every 1 steps, delay 10 steps, check yes
  max neighbors/atom: 2000, page size: 100000
  master list distance cutoff = 6
  ghost atom cutoff = 6
  binsize = 3, bins = 6 6 6
  2 neighbor lists, perpetual/occasional/extra = 2 0 0
  (1) pair meam/c, perpetual
      attributes: full, newton on
      pair build: full/bin/atomonly
      stencil: full/bin/3d
      bin: standard
  (2) pair meam/c, perpetual, half/full from (1)
      attributes: half, newton on
      pair build: halffull/newton
      stencil: none
      bin: none
Per MPI rank memory allocation (min/avg/max) = 8.895 | 8.895 | 8.895 Mbytes
Step Temp E_pair E_mol TotEng Press Volume 
       0         1800   -951.06911            0   -900.81276    -114182.3    5330.9442 
    3200    1712.8394    -944.8974            0   -897.07459   -13276.272    4719.8081 
Loop time of 2.27694 on 1 procs for 3200 steps with 217 atoms

Performance: 364.278 ns/day, 0.066 hours/ns, 1405.392 timesteps/s
100.0% CPU use with 1 MPI tasks x no OpenMP threads

MPI task timing breakdown:
Section |  min time  |  avg time  |  max time  |%varavg| %total
---------------------------------------------------------------
Pair    | 2.1727     | 2.1727     | 2.1727     |   0.0 | 95.42
Neigh   | 0.053901   | 0.053901   | 0.053901   |   0.0 |  2.37
Comm    | 0.015087   | 0.015087   | 0.015087   |   0.0 |  0.66
Output  | 2.5191e-05 | 2.5191e-05 | 2.5191e-05 |   0.0 |  0.00
Modify  | 0.030242   | 0.030242   | 0.030242   |   0.0 |  1.33
Other   |            | 0.005011   |            |       |  0.22

Nlocal:    217 ave 217 max 217 min
Histogram: 1 0 0 0 0 0 0 0 0 0
Nghost:    957 ave 957 max 957 min
Histogram: 1 0 0 0 0 0 0 0 0 0
Neighs:    4129 ave 4129 max 4129 min
Histogram: 1 0 0 0 0 0 0 0 0 0
FullNghs:  8258 ave 8258 max 8258 min
Histogram: 1 0 0 0 0 0 0 0 0 0

Total # of neighbors = 8258
Ave neighs/atom = 38.0553
Neighbor list builds = 91
Dangerous builds = 1

# ---------- 4. Describe computed properties----------
compute msdli Li msd
compute msdsi Si msd
thermo_style custom step pe ke etotal temp press density c_msdli[4] c_msdsi[4]
thermo 100

# ---------- 3. Run production -------------
timestep 0.003
run 20000
Per MPI rank memory allocation (min/avg/max) = 9.664 | 9.664 | 9.664 Mbytes
Step PotEng KinEng TotEng Temp Press Density c_msdli[4] c_msdsi[4] 
    3200    -944.8974    47.822803   -897.07459    1712.8394   -13276.272    2.1368047            0 3.2648079e-32 
    3300    -939.7828    47.705481   -892.07732    1708.6373    4601.0663    2.1723737   0.33859106   0.13476233 
    3400   -940.79104    52.238806   -888.55223    1871.0046    9765.9141     2.179718   0.41408581   0.11678515 
    3500   -937.34861     49.11217   -888.23644    1759.0198    -8259.599    2.1290936    0.6367277   0.13415245 
    3600   -943.84771    44.382769   -899.46494    1589.6298   -2639.7643    2.1620688   0.36006681    0.1462541 
    3700   -948.14605    54.106781   -894.03927    1937.9087    3308.5817    2.1833787  0.064945291   0.10829417 
    3800   -942.07808    52.565334   -889.51275    1882.6996    -3401.607    2.1524391  0.045489941   0.11291329 
    3900    -941.0828    51.354838   -889.72796    1839.3441   -8285.4945    2.1378911   0.12251609   0.11606413 
    4000   -948.45963    49.705612   -898.75402    1780.2747    6478.1466    2.1911029  0.091686789   0.10199395 
    4100   -942.13919    52.811961   -889.32723    1891.5329    -2116.403    2.1583312  0.067911338   0.11104745 
    4200   -940.57078    51.050648   -889.52013    1828.4491   -6263.7282    2.1432643   0.15951092   0.11942707 
    4300   -943.31274    50.219626   -893.09311    1798.6849    2744.8788    2.1714224   0.17788618   0.12247816 
    4400   -944.37827    44.851359   -899.52691     1606.413     7185.353    2.1858245   0.32387692   0.12712659 
    4500   -939.21629    50.648862   -888.56742    1814.0586   -7455.5436    2.1316668  0.065506048   0.12427902 
    4600   -941.47381    51.763746   -889.71006    1853.9897    982.06552     2.167037  0.039840172   0.15427153 
    4700   -944.02654     50.35492   -893.67162    1803.5306     6649.196    2.1869871   0.14088137   0.11145945 
    4800   -937.42962    49.914744   -887.51488    1787.7651   -4292.0494    2.1425663  0.029626671   0.14084187 
    4900   -938.83499    53.420676   -885.41431    1913.3349   -4496.4692    2.1441735  0.068103122   0.12866558 
    5000   -938.82165    48.648994   -890.17265    1742.4305    5576.0395    2.1720239    0.1587635   0.14041613 
    5100   -940.37128     47.29845   -893.07283     1694.059    624.07189    2.1634851   0.15435606   0.13056166 
    5200   -937.18281    54.821366   -882.36145    1963.5025   -7510.5865     2.133007  0.088619421    0.1372416 
    5300    -939.8896    52.040927   -887.84867    1863.9173    5427.0201    2.1711349   0.11903441   0.11362146 
    5400   -943.94806    52.105014   -891.84305    1866.2126   -2579.4707    2.1588515   0.15067356    0.1222062 
    5500   -938.93898    50.169093   -888.76988     1796.875   -3319.0124    2.1445383   0.10317901   0.11952433 
    5600   -933.52805    54.150878   -879.37717    1939.4881    4354.1126    2.1503688   0.11297283   0.14155642 
    5700    -945.4683    55.383842   -890.08446    1983.6484    4720.6587      2.17961   0.02899748   0.12755457 
    5800   -938.49658    47.023385   -891.47319    1684.2071   -7996.2936    2.1373865  0.090225362   0.12442973 
    5900   -934.48261    48.524619   -885.95799    1737.9759    1388.2885    2.1497281   0.10573206   0.13323005 
    6000   -941.51121    50.380949   -891.13026    1804.4629    9097.1848    2.1828552   0.20539367   0.12243489 
    6100   -944.17168    49.013044   -895.15863    1755.4695   -4240.8283    2.1532392   0.13999277   0.11996518 
    6200    -938.9755    48.134784   -890.84071    1724.0134   -1785.9917    2.1555127  0.090370606   0.11778008 
    6300   -939.31926    53.010496   -886.30877    1898.6437    6802.1516    2.1757195  0.074284191   0.13278139 
    6400   -943.40516    48.797869   -894.60729    1747.7627   -5040.1628     2.159312  0.019444748   0.11950622 
    6500   -944.59839    49.676417   -894.92198    1779.2291   -10441.112    2.1487444   0.13104136   0.12894544 
    6600   -941.09819    53.694112   -887.40408    1923.1284    9994.6109    2.1838423   0.10729968   0.12075168 
    6700   -942.95713    52.724567   -890.23256    1888.4028    220.96509    2.1620844   0.17791293   0.11669169 
    6800   -944.59406    46.078902   -898.51516    1650.3792   -17405.422    2.1263568   0.14143215  0.099279108 
    6900   -943.12929    51.038779   -892.09051     1828.024    9707.6032    2.1862488  0.073316065   0.11727766 
    7000   -940.04481    54.515842   -885.52897    1952.5597    13232.192    2.1922095  0.029000581    0.1318061 
    7100   -942.77692    50.273513   -892.50341    1800.6149   -15662.543    2.1247216   0.12751743   0.12310309 
    7200   -938.46424    47.577835   -890.88641    1704.0655    3073.4202    2.1601206   0.13456629   0.12792106 
    7300   -937.97525    56.902175   -881.07307    2038.0295    5340.7098    2.1637417   0.36393147   0.12492227 
    7400   -941.24407    51.280904   -889.96316     1836.696   -1872.7806    2.1559633   0.13283614    0.1162527 
    7500   -940.24801    47.746765   -892.50125     1710.116   -3840.5188    2.1517153  0.069836029    0.1156128 
    7600    -936.1384    52.088509   -884.04989    1865.6215    5502.5891    2.1652018   0.09130093   0.12797817 
    7700   -939.82028    53.169279     -886.651    1904.3308     720.8309     2.158437  0.059942664   0.12884535 
    7800   -939.72053    46.315531     -893.405    1658.8543   -6227.4277    2.1452987  0.020774668   0.13473233 
    7900   -936.22872    48.171857   -888.05687    1725.3412     5563.031    2.1689936   0.19844299   0.14892134 
    8000   -940.97383     56.09861   -884.87522    2009.2488    2635.2916    2.1610915   0.54688119     0.134445 
    8100   -942.30922    47.319076   -894.99014    1694.7977   -7309.4435    2.1480281   0.19120258   0.11395253 
    8200   -936.53516    42.917334   -893.61782    1537.1433    690.36159    2.1574784   0.24420552   0.13936956 
    8300   -942.64298    54.892293   -887.75069    1966.0429    8806.2716    2.1862968  0.095030463   0.11394909 
    8400   -942.15142    51.009352   -891.14207      1826.97   -6254.0181     2.148753    0.1064791   0.12020867 
    8500   -946.14968     46.15884   -899.99084    1653.2423   -6413.1213    2.1603279  0.072411391   0.13284806 
    8600   -944.57435     53.99544   -890.57891    1933.9209    4790.8997    2.1781712  0.039314201   0.12150438 
    8700   -941.66162    52.570564   -889.09106     1882.887    913.63896    2.1660288  0.092715992   0.14418762 
    8800   -940.04123    45.935797   -894.10543    1645.2536   -7658.7821    2.1449275  0.048874863   0.14824406 
    8900   -943.97285    46.621301   -897.35155    1669.8059    5004.2859    2.1829208   0.14464288   0.12017095 
    9000   -941.44234    54.153596   -887.28874    1939.5854    5391.2605    2.1761828  0.067416433   0.12911537 
    9100   -940.17503    50.190124    -889.9849    1797.6282   -13820.781    2.1214004   0.20241083   0.12210961 
    9200   -939.94994    48.362428   -891.58751    1732.1668    63.081459    2.1611953  0.050648389   0.12167213 
    9300   -943.03944    46.327853   -896.71159    1659.2957    22735.981    2.2290148  0.016915665   0.13883427 
    9400   -935.11798    49.505906   -885.61208     1773.122   -12975.808    2.1174422  0.096477073   0.15487425 
    9500   -938.69793    48.846512   -889.85142    1749.5049   -3693.7236    2.1479691   0.12657172   0.14551002 
    9600   -945.39238    54.587505   -890.80487    1955.1265    9983.1344     2.195591   0.26760439   0.13864196 
    9700   -939.50159    52.969401   -886.53218    1897.1718    1043.5507    2.1549997   0.53066481   0.14076466 
    9800   -935.45032    52.118511    -883.3318     1866.696   -9240.0258    2.1257928    0.3775702   0.14699617 
    9900   -940.26592    49.451239   -890.81468    1771.1641     6852.268    2.1755654   0.23108496   0.13070181 
   10000   -941.81379     51.07113   -890.74266    1829.1827    5918.2878    2.1806277   0.47932571   0.12361013 
   10100   -932.58672    50.330751   -882.25597     1802.665   -7008.4202    2.1276276   0.42173386   0.14286264 
   10200    -934.2437     46.45491   -887.78879    1663.8464   -87.557748    2.1540912   0.10631947    0.1535236 
   10300   -938.83067    48.004366    -890.8263    1719.3423    7617.4339    2.1807543   0.29536685     0.161677 
   10400   -937.53722      47.4701   -890.06712    1700.2068   -2838.1223    2.1561948  0.093207258   0.16152295 
   10500   -934.17811    51.663807   -882.51431    1850.4102   -3753.2071    2.1364647   0.24431891   0.14881766 
   10600    -939.4294    50.191478   -889.23792    1797.6767    6503.2383    2.1749634   0.31635851   0.12926999 
   10700   -941.54507    49.492367    -892.0527    1772.6371   -2602.7343    2.1612487   0.45546002   0.13796919 
   10800   -941.06454    50.651416   -890.41312      1814.15   -4584.8032    2.1523081   0.14976142   0.12053769 
   10900   -938.03614    52.384183   -885.65196    1876.2115      3795.28    2.1660803   0.36031821    0.1409504 
   11000   -935.67777     58.27762   -877.40015     2087.293   -656.80238    2.1454803  0.099832369   0.14027507 
   11100   -940.72111    51.409452   -889.31166    1841.3001   -4675.8203    2.1480468  0.092126888   0.12071687 
   11200   -943.20068    52.877095   -890.32358    1893.8658   -1273.4134    2.1641584   0.14933377   0.12397134 
   11300   -939.95332    50.339304   -889.61402    1802.9713    5027.9054    2.1742486   0.37227413   0.14071676 
   11400   -942.29058     50.12855   -892.16203    1795.4229   -7715.9244    2.1472435  0.054555932   0.12411525 
   11500   -944.78524    44.682465   -900.10277    1600.3639    1694.0742    2.1776451   0.26280076   0.13628682 
   11600   -942.58657    50.908645   -891.67793     1823.363    5651.9626    2.1812853  0.095729478   0.13567611 
   11700   -939.61537    50.219938   -889.39543    1798.6961   -5639.6803    2.1447199  0.018957052    0.1287055 
   11800    -937.6906    50.393207   -887.29739    1804.9019   -3642.1777    2.1436221   0.37862016   0.12210166 
   11900   -945.61417    46.965856   -898.64831    1682.1466    11963.855    2.2049998   0.13654723   0.14078952 
   12000   -938.38732    45.621023    -892.7663    1633.9796   -2730.4831    2.1507751   0.34925729   0.14202054 
   12100   -941.43495    51.554082   -889.88087    1846.4803   -7888.7017    2.1453676  0.040530855   0.12747539 
   12200   -940.45244    52.853012   -887.59943    1893.0032    8654.2413    2.1796587   0.16206763   0.14723373 
   12300   -934.70412    57.144199   -877.55993     2046.698      1916.12    2.1481206  0.037258927   0.13527529 
   12400    -935.3687    52.476893   -882.89181     1879.532   -8372.2443    2.1258196   0.18895131   0.14154295 
   12500   -942.85278    54.516084    -888.3367    1952.5684   -1649.8152    2.1627753      2.53942   0.14338769 
   12600   -938.41702    50.766853   -887.65017    1818.2846    6968.2396    2.1774292    4.2867602   0.16587747 
   12700   -937.29925    45.728643    -891.5706    1637.8342   -7182.8789    2.1380996    6.8184062   0.16221142 
   12800   -944.75315    47.894835   -896.85832    1715.4193   -2013.1361    2.1677047    3.9934746   0.15391363 
   12900   -941.36681    53.446357   -887.92046    1914.2547    6557.0489     2.177357    3.6595599   0.15992496 
   13000   -939.72145    50.845245   -888.87621    1821.0923   -7014.8132     2.144314    10.059018    0.1301647 
   13100   -940.40791    47.320329   -893.08758    1694.8426   -2892.6284    2.1526831    11.482091   0.12899928 
   13200   -942.97205    45.265009   -897.70704    1621.2285    7110.5232    2.1892359     14.74572   0.14436487 
   13300   -936.16394    47.124655   -889.03929    1687.8342   -441.05241    2.1539603    15.627076   0.15555915 
   13400   -941.13662     51.15454   -889.98208    1832.1701   -3374.1112    2.1536819     16.37235   0.13029223 
   13500   -946.71385    48.850131   -897.86372    1749.6346    662.07222    2.1787983    16.423024   0.12509711 
   13600   -939.60543    48.953088   -890.65234    1753.3221    766.76389    2.1646446    16.509753   0.13956719 
   13700   -935.40288    47.163243   -888.23964    1689.2163    4327.1038    2.1576975    13.950807    0.1300061 
   13800   -945.22367    53.144781   -892.07889    1903.4533   -6063.1096    2.1546412    15.240698   0.14027744 
   13900   -942.80181    47.692097   -895.10971     1708.158    4022.1552    2.1755029    15.711654   0.13292303 
   14000   -940.36777    56.590324   -883.77744    2026.8602   -589.64485    2.1546854    16.799337   0.12032528 
   14100   -941.71119    54.461573   -887.24961     1950.616   -321.37685    2.1632073    15.856601   0.14107238 
   14200   -941.06919    49.643781   -891.42541    1778.0602   -4430.2374    2.1536324    18.317647    0.1258466 
   14300   -941.79261     48.98724   -892.80537    1754.5453   -399.04076    2.1611607    17.618105    0.1383023 
   14400   -935.82552    54.743446   -881.08208    1960.7117    2389.1055    2.1545454    18.488643   0.15913299 
   14500   -933.73384    48.563028   -885.17081    1739.3515    3808.8321     2.160595     24.95069   0.17690887 
   14600   -937.89176    46.962925   -890.92884    1682.0416   -5239.2024    2.1444789    37.691898   0.16990429 
   14700   -940.08877    50.930277   -889.15849    1824.1378    1921.9086    2.1649847    29.697913   0.17281377 
   14800   -932.30285    53.956177   -878.34668    1932.5146      5171.84     2.151285    26.978676    0.1750196 
   14900   -936.91332    49.200423    -887.7129    1762.1807   -4364.4283    2.1439757    33.614426   0.16338526 
   15000   -940.32485    49.606246    -890.7186    1776.7158   -3502.0863    2.1560007    28.272677   0.16219105 
   15100   -941.44989    52.751087   -888.69881    1889.3526    5642.7648    2.1789558    25.943444   0.16308303 
   15200   -934.30972    55.361433   -878.94828    1982.8458   -6803.5747    2.1288169    31.772737   0.17843642 
   15300   -940.07849    50.315671   -889.76282    1802.1249   -4000.8187    2.1491782    23.486658   0.15742773 
   15400   -938.14657    49.133517   -889.01305    1759.7844    10966.337      2.18512    22.641364   0.16184116 
   15500   -940.87196    50.929645   -889.94232    1824.1152   -871.79111    2.1608181    27.935332   0.15217301 
   15600   -934.77931    56.965251   -877.81405    2040.2887   -10335.957    2.1168104    32.175135   0.15817478 
   15700   -932.68074    48.609047   -884.07169    1740.9998    11656.589    2.1772064    26.618937   0.15900235 
   15800   -938.37464    50.003187   -888.37145    1790.9328   -1756.1513    2.1541243    25.692212   0.14284028 
   15900   -938.67958    46.211001   -892.46858    1655.1105   -7464.2688    2.1404703    21.659694   0.14263971 
   16000   -943.33859    50.235154   -893.10344     1799.241    6344.8823    2.1863715    21.500626   0.12787798 
   16100   -935.33003    52.816558   -882.51347    1891.6976    1640.5291    2.1512278    23.466335   0.14030154 
   16200   -941.08133    51.212512   -889.86881    1834.2465   -8133.9564    2.1426763    25.442297   0.14498163 
   16300   -939.96663    48.268479   -891.69815    1728.8019    5548.5304    2.1771379    24.031071   0.14979062 
   16400   -939.76373    51.063717   -888.70001    1828.9172    6745.0927     2.180891    22.901062    0.1564102 
   16500   -933.93893    50.903274   -883.03566    1823.1707   -17125.659    2.1057545    20.772721   0.15740286 
   16600   -942.11072    48.814455   -893.29626    1748.3568    908.93062    2.1650902    22.234728   0.12448307 
   16700   -941.40505    52.400298   -889.00475    1876.7887    22333.372    2.2148288    22.423907   0.13924629 
   16800   -938.83411    49.315779   -889.51833    1766.3123   -10166.741    2.1327551    22.422891    0.1470059 
   16900   -932.72532     51.54934   -881.17598    1846.3104   -4982.9093    2.1313785    25.225372   0.16945887 
   17000   -938.89776    54.655092   -884.24267    1957.5472    8276.4257     2.172182    24.370536   0.14988932 
   17100   -941.93158    52.127604   -889.80398    1867.0217   -718.28327    2.1582344    20.139968   0.13296518 
   17200    -941.3068    50.809358   -890.49744     1819.807   -3396.9557    2.1535876    20.562914   0.12327972 
   17300   -937.84658    48.762732   -889.08385    1746.5042    5392.7627    2.1673044    20.098527   0.15255782 
   17400   -934.43987    56.715942   -877.72393    2031.3594     516.4987    2.1437775    21.513475   0.14250394 
   17500   -937.72214    50.730918   -886.99122    1816.9975    -646.9592     2.154404    22.328635   0.15186504 
   17600     -943.258    52.440865   -890.81714    1878.2416   -7412.8843    2.1458174    21.710433   0.13160822 
   17700   -941.38323      51.8101   -889.57313    1855.6499    3535.5108     2.170798    22.451276   0.13190676 
   17800   -937.24983    55.745618   -881.50421    1996.6059    4010.5142    2.1611722    21.664974   0.13833386 
   17900   -932.91372     49.26415   -883.64957    1764.4632   -7074.7171    2.1274579    22.115231   0.14138344 
   18000   -940.07004    49.049819   -891.02022    1756.7866   -2016.1287    2.1584443    22.216687   0.14739661 
   18100   -942.45951    53.349087   -889.11042    1910.7708    13850.275    2.1955574    21.977828    0.1505475 
   18200   -935.59928    48.736627   -886.86265    1745.5692   -4237.3102    2.1356004    21.543896   0.13106714 
   18300   -931.04359     51.45405   -879.58954    1842.8975   -11943.315    2.1130852    28.156105   0.15598832 
   18400   -942.38244     52.69958   -889.68286    1887.5078    14911.123    2.2005162    22.396488   0.13855766 
   18500   -941.91327    50.899213   -891.01406    1823.0252    345.29631    2.1636852    24.590134   0.13075003 
   18600   -940.04751    53.456194   -886.59131     1914.607    -10374.59    2.1354277    22.430869   0.14638315 
   18700   -936.21317    58.114657   -878.09851    2081.4563    2016.0354    2.1552624    21.265124   0.15737688 
   18800   -938.75714     49.06652   -889.69062    1757.3848    7836.5871     2.178125    25.983798   0.13642126 
   18900   -937.46254    46.684796   -890.77775    1672.0801    -5540.091    2.1414168    21.714741    0.1311185 
   19000   -940.50447     51.99791   -888.50656    1862.3766   -759.51422    2.1616982    19.613698   0.14060537 
   19100   -945.50436    49.862852   -895.64151    1785.9065    4321.7198    2.1830078    21.799609   0.13607726 
   19200   -944.70468     47.69309   -897.01159    1708.1935   -6105.3148    2.1591929    25.892037   0.14096207 
   19300   -939.74529    48.978853   -890.76644    1754.2449    953.53212    2.1634371    20.954938   0.14019817 
   19400   -939.32485    51.202331   -888.12251    1833.8818    4029.0877    2.1711861     21.73562   0.15362685 
   19500   -939.97897    44.276794   -895.70218    1585.8342   -1620.8292    2.1580774    23.288659   0.13080919 
   19600   -942.94356    47.623339   -895.32022    1705.6953   -2290.2943    2.1639757    20.087224   0.14560492 
   19700   -939.19369     51.35226   -887.84143    1839.2517    6617.0975    2.1764506    23.795464    0.1443064 
   19800   -938.91651    47.220799   -891.69571    1691.2778   -2546.7959    2.1525495    24.134549   0.14443064 
   19900    -946.8471     48.04056   -898.80654    1720.6386   -10100.043    2.1498549    22.071765   0.13813948 
   20000   -946.46092    55.166494   -891.29443    1975.8637    9558.2897    2.1973911    24.186986   0.14759631 
   20100   -938.67188    50.784465   -887.88741    1818.9154    4398.3076    2.1665453    21.284092   0.14235848 
   20200    -938.1427    45.352594   -892.79011    1624.3654    -14748.28     2.118594    21.656935   0.14751075 
   20300   -940.01995    50.990907   -889.02904    1826.3094    6955.6941    2.1781641    22.576156   0.13643865 
   20400   -936.47432    55.454926    -881.0194    1986.1944    5622.8543    2.1628989    22.949618   0.13882258 
   20500    -942.8075    51.863466   -890.94404    1857.5613    -6879.785    2.1466862     23.23212   0.12087253 
   20600   -941.24186     49.99726    -891.2446    1790.7205   -802.51864    2.1611486    21.181886   0.13584616 
   20700   -937.97157    53.315819   -884.65575    1909.5793    5760.7121     2.169587    20.622315   0.14299296 
   20800   -938.49223     54.21835   -884.27388    1941.9047   -5036.8483    2.1412275    19.470538   0.13914788 
   20900   -939.05761     46.52995   -892.52766    1666.5341   -697.75677    2.1557027    21.454292   0.12433966 
   21000   -942.59812     53.59593   -889.00219    1919.6119    6115.2668    2.1760886    24.613982   0.12663964 
   21100   -938.90076    53.974384   -884.92637    1933.1667   -2299.3689    2.1470143    22.671508   0.12483469 
   21200   -935.76196    55.022454   -880.73951    1970.7048   -8207.7664    2.1258611    22.433694   0.12039089 
   21300    -942.0996    50.206988   -891.89261    1798.2322     9949.644    2.1917879    19.802882   0.12334402 
   21400    -938.3417    48.109816   -890.23188    1723.1191    2166.3358    2.1621405    21.448077   0.13280387 
   21500    -938.3204    47.757003    -890.5634    1710.4827   -9620.6188    2.1320598    20.710633   0.12265848 
   21600   -943.34935     45.58948   -897.75987    1632.8498    7264.7685     2.188091    22.238964   0.12486385 
   21700   -945.00559    47.720571   -897.28502    1709.1778    6833.9949     2.189047    22.421958   0.13313282 
   21800   -939.86684    48.874737    -890.9921    1750.5158   -4848.5508    2.1487178    18.830976   0.12918388 
   21900   -943.43765    54.217324   -889.22033    1941.8679   -3614.0164    2.1560301    23.861218   0.13352318 
   22000   -947.02641    53.407319   -893.61909    1912.8565    -234.7059    2.1777284    22.349364   0.12949947 
   22100   -945.08503    46.651348   -898.43368    1670.8821    1446.6816     2.177945    21.839018   0.11010827 
   22200    -940.8699    50.154042   -890.71586    1796.3359   -2680.3406    2.1548417    20.434764   0.13033019 
   22300   -935.78701     46.77878   -889.00823    1675.4463    2854.5312    2.1613599    21.876392    0.1286769 
   22400   -944.62828    48.357716   -896.27057     1731.998    2116.8707    2.1746114    21.655567   0.12501983 
   22500   -944.51165    48.239799   -896.27185    1727.7747    -1763.453    2.1696866    20.550495    0.1249626 
   22600   -940.20321    50.708527   -889.49469    1816.1955   -2851.4204    2.1579379    22.316378   0.14481755 
   22700   -942.39985    51.812766   -890.58708    1855.7454   -2124.1446     2.159536    24.711761   0.13211892 
   22800   -946.33275    47.254805   -899.07794    1692.4957    66.247194    2.1747214     23.79558   0.12338545 
   22900   -941.21425    48.458602   -892.75565    1735.6114    708.17271    2.1626839    23.249388   0.12608158 
   23000   -939.00401    49.875249   -889.12877    1786.3505    4118.2151    2.1665932    20.121805   0.12873498 
   23100   -938.79177    47.465947   -891.32582    1700.0581   -2507.9689    2.1508274    20.656443    0.1255662 
   23200   -946.68734    50.879656   -895.80769    1822.3248   -4875.0383    2.1598276    21.288118   0.12513263 
Loop time of 14.069 on 1 procs for 20000 steps with 217 atoms

Performance: 368.470 ns/day, 0.065 hours/ns, 1421.567 timesteps/s
100.0% CPU use with 1 MPI tasks x no OpenMP threads

MPI task timing breakdown:
Section |  min time  |  avg time  |  max time  |%varavg| %total
---------------------------------------------------------------
Pair    | 13.394     | 13.394     | 13.394     |   0.0 | 95.20
Neigh   | 0.35808    | 0.35808    | 0.35808    |   0.0 |  2.55
Comm    | 0.093722   | 0.093722   | 0.093722   |   0.0 |  0.67
Output  | 0.0067266  | 0.0067266  | 0.0067266  |   0.0 |  0.05
Modify  | 0.18675    | 0.18675    | 0.18675    |   0.0 |  1.33
Other   |            | 0.03011    |            |       |  0.21

Nlocal:    217 ave 217 max 217 min
Histogram: 1 0 0 0 0 0 0 0 0 0
Nghost:    953 ave 953 max 953 min
Histogram: 1 0 0 0 0 0 0 0 0 0
Neighs:    4170 ave 4170 max 4170 min
Histogram: 1 0 0 0 0 0 0 0 0 0
FullNghs:  8340 ave 8340 max 8340 min
Histogram: 1 0 0 0 0 0 0 0 0 0

Total # of neighbors = 8340
Ave neighs/atom = 38.4332
Neighbor list builds = 607
Dangerous builds = 4
Total wall time: 0:00:16
