LAMMPS (3 Mar 2020)
Reading data file ...
  orthogonal box = (0 0 0) to (17.469 17.469 17.469)
  1 by 1 by 1 MPI processor grid
  reading atoms ...
  217 atoms
  read_data CPU = 0.000980146 secs
Reading potential file library.meam with DATE: 2012-06-29
Reading potential file LiSi.meam with DATE: 2020-11-07
1 atoms in group Li
Neighbor list info ...
  update every 1 steps, delay 10 steps, check yes
  max neighbors/atom: 2000, page size: 100000
  master list distance cutoff = 6
  ghost atom cutoff = 6
  binsize = 3, bins = 6 6 6
  2 neighbor lists, perpetual/occasional/extra = 2 0 0
  (1) pair meam/c, perpetual
      attributes: full, newton on
      pair build: full/bin/atomonly
      stencil: full/bin/3d
      bin: standard
  (2) pair meam/c, perpetual, half/full from (1)
      attributes: half, newton on
      pair build: halffull/newton
      stencil: none
      bin: none
Setting up Verlet run ...
  Unit style    : metal
  Current step  : 0
  Time step     : 0.00347596
Per MPI rank memory allocation (min/avg/max) = 9.27 | 9.27 | 9.27 Mbytes
Step PotEng KinEng TotEng Temp Press Density c_msdli[4] 
       0   -951.06911    50.256344   -900.81276         1800    -114182.3    1.8918427            0 
     100   -955.30148    39.638152   -915.66333    1419.6949   -9847.6888    2.1647914    0.1737553 
     200   -949.19639    39.899016   -909.29737    1429.0381    26549.909    2.2450528    0.4046387 
     300   -949.89508    46.084418   -903.81066    1650.5767    21250.767    2.2336221   0.32406052 
     400   -946.27094     46.29024    -899.9807    1657.9485   -6697.0287    2.1550936    0.1097786 
     500   -939.85643     44.73861   -895.11782    1602.3748   -20120.584    2.1066804  0.070050225 
     600   -937.75786    45.269748   -892.48812    1621.3982   -7227.9309    2.1362029  0.079276817 
     700   -940.13499    52.103411   -888.03158    1866.1552    11214.502    2.1898283   0.34741188 
     800   -940.87099    51.805835   -889.06515    1855.4971    13835.168     2.198754   0.07448833 
     900   -945.64441    46.717011    -898.9274    1673.2339    635.08339    2.1748802   0.26754688 
    1000   -940.47063    50.359809   -890.11082    1803.7057   -18785.581    2.1186511  0.054943276 
    1100   -936.36026    47.847531   -888.51273     1713.725   -8738.8044    2.1317628   0.14750256 
    1200    -943.4152    51.954522   -891.46068    1860.8226    6287.8773     2.182075   0.69755827 
    1300   -942.58571    45.094128   -897.49158    1615.1081    20328.501    2.2165813   0.12632327 
    1400   -935.49943    48.636445   -886.86299    1741.9811    2873.6165    2.1577395   0.36715856 
    1500   -938.54894    49.378208   -889.17073    1768.5483   -12805.859    2.1249781  0.084550515 
    1600   -943.45932    50.543065   -892.91626    1810.2693    -10229.98     2.135523   0.20424035 
    1700   -945.00562    49.256249   -895.74937    1764.1802    4574.9842    2.1822306   0.09771164 
    1800   -938.47676    53.663753   -884.81301     1922.041    6467.9299    2.1713468   0.22333554 
    1900   -941.25728    52.801497   -888.45579    1891.1581    605.27107    2.1583648   0.14129692 
    2000   -939.40217    46.797916   -892.60426    1676.1316    -6663.705    2.1404639   0.23334408 
    2100   -941.53629    53.201616   -888.33468     1905.489   -7759.9177    2.1416957  0.070336968 
    2200   -938.47447    55.204358   -883.27011    1977.2199    3237.1084    2.1592839   0.11268746 
    2300   -937.86038    48.007623   -889.85275     1719.459    6559.8753     2.173367   0.19048085 
    2400   -938.87583    46.573417   -892.30241    1668.0909    576.32168    2.1614005   0.36529731 
    2500   -934.58146    52.937342   -881.64411    1896.0236   -5295.8053     2.129339   0.10381345 
    2600   -940.70294    52.705442    -887.9975    1887.7178   -665.51245    2.1567529   0.07716684 
    2700   -940.19403    48.770387   -891.42364    1746.7784    5881.1121    2.1767224   0.41514323 
    2800   -938.04033    51.013354   -887.02698    1827.1133    3139.3691    2.1672934  0.099999118 
    2900   -940.05057    57.304952   -882.74562    2052.4556   -7481.9831    2.1364723   0.36661599 
    3000   -938.70327    45.439814   -893.26346    1627.4894   -3249.9782    2.1555596   0.27759363 
    3100   -940.22452    50.355011   -889.86951    1803.5339    301.16846    2.1671297   0.09936958 
    3200   -937.92161    54.085547   -883.83606    1937.1482    5156.8534    2.1676715   0.21206024 
    3300   -940.50886    48.075517   -892.43334    1721.8907    128.24847    2.1688133   0.24168086 
    3400    -941.3346    48.127579   -893.20702    1723.7554   -8368.9641    2.1424886   0.25203911 
    3500   -937.27649    49.109946   -888.16655    1758.9402    -5941.453    2.1413799   0.42216239 
    3600   -934.92865    48.304643     -886.624    1730.0971    7092.9576    2.1675156   0.76241512 
    3700   -948.44207    51.605592   -896.83648    1848.3252    11100.568    2.2044346   0.49328052 
    3800   -943.21489    53.400938   -889.81395    1912.6279   -2299.6355    2.1623894  0.090024953 
    3900   -944.96966    56.539211   -888.43045    2025.0295   -16116.913    2.1298722     0.202983 
    4000   -945.22473    49.621312   -895.60342    1777.2555   -9779.2391    2.1475148   0.21718586 
    4100   -944.22379    50.477362   -893.74643     1807.916    3818.3674    2.1761176  0.034556574 
    4200   -938.62241    52.227264   -886.39515    1870.5912    11021.217    2.1862234   0.30625166 
    4300    -942.3793    50.696638   -891.68266    1815.7697    2187.2489    2.1702528    0.1656926 
    4316    -944.6132    52.514804   -892.09839    1880.8899      9171.15    2.1899662   0.45862537 
Loop time of 3.05266 on 1 procs for 4316 steps with 217 atoms

Performance: 424.611 ns/day, 0.057 hours/ns, 1413.847 timesteps/s
100.1% CPU use with 1 MPI tasks x no OpenMP threads

MPI task timing breakdown:
Section |  min time  |  avg time  |  max time  |%varavg| %total
---------------------------------------------------------------
Pair    | 2.8953     | 2.8953     | 2.8953     |   0.0 | 94.84
Neigh   | 0.090785   | 0.090785   | 0.090785   |   0.0 |  2.97
Comm    | 0.020458   | 0.020458   | 0.020458   |   0.0 |  0.67
Output  | 0.0011908  | 0.0011908  | 0.0011908  |   0.0 |  0.04
Modify  | 0.038662   | 0.038662   | 0.038662   |   0.0 |  1.27
Other   |            | 0.006275   |            |       |  0.21

Nlocal:    217 ave 217 max 217 min
Histogram: 1 0 0 0 0 0 0 0 0 0
Nghost:    953 ave 953 max 953 min
Histogram: 1 0 0 0 0 0 0 0 0 0
Neighs:    4154 ave 4154 max 4154 min
Histogram: 1 0 0 0 0 0 0 0 0 0
FullNghs:  8308 ave 8308 max 8308 min
Histogram: 1 0 0 0 0 0 0 0 0 0

Total # of neighbors = 8308
Ave neighs/atom = 38.2857
Neighbor list builds = 154
Dangerous builds = 1
Total wall time: 0:00:03
