LAMMPS (3 Mar 2020)
Reading data file ...
  orthogonal box = (0 0 0) to (17.469 17.469 17.469)
  1 by 1 by 1 MPI processor grid
  reading atoms ...
  217 atoms
  read_data CPU = 0.00105405 secs
Reading potential file library.meam with DATE: 2012-06-29
Reading potential file LiSi.meam with DATE: 2020-11-07
1 atoms in group Li
216 atoms in group Si
Neighbor list info ...
  update every 1 steps, delay 10 steps, check yes
  max neighbors/atom: 2000, page size: 100000
  master list distance cutoff = 6
  ghost atom cutoff = 6
  binsize = 3, bins = 6 6 6
  2 neighbor lists, perpetual/occasional/extra = 2 0 0
  (1) pair meam/c, perpetual
      attributes: full, newton on
      pair build: full/bin/atomonly
      stencil: full/bin/3d
      bin: standard
  (2) pair meam/c, perpetual, half/full from (1)
      attributes: half, newton on
      pair build: halffull/newton
      stencil: none
      bin: none
Setting up Verlet run ...
  Unit style    : metal
  Current step  : 0
  Time step     : 0.003
Per MPI rank memory allocation (min/avg/max) = 8.895 | 8.895 | 8.895 Mbytes
Step Temp E_pair E_mol TotEng Press Volume 
       0         1675   -951.04357            0   -904.27725   -114861.02    5330.9442 
    3200    1652.3113    -944.0942            0   -897.96135   -7226.3961     4690.424 
Loop time of 2.28935 on 1 procs for 3200 steps with 217 atoms

Performance: 362.304 ns/day, 0.066 hours/ns, 1397.778 timesteps/s
100.0% CPU use with 1 MPI tasks x no OpenMP threads

MPI task timing breakdown:
Section |  min time  |  avg time  |  max time  |%varavg| %total
---------------------------------------------------------------
Pair    | 2.1848     | 2.1848     | 2.1848     |   0.0 | 95.43
Neigh   | 0.054595   | 0.054595   | 0.054595   |   0.0 |  2.38
Comm    | 0.015114   | 0.015114   | 0.015114   |   0.0 |  0.66
Output  | 2.5152e-05 | 2.5152e-05 | 2.5152e-05 |   0.0 |  0.00
Modify  | 0.029742   | 0.029742   | 0.029742   |   0.0 |  1.30
Other   |            | 0.005038   |            |       |  0.22

Nlocal:    217 ave 217 max 217 min
Histogram: 1 0 0 0 0 0 0 0 0 0
Nghost:    957 ave 957 max 957 min
Histogram: 1 0 0 0 0 0 0 0 0 0
Neighs:    4219 ave 4219 max 4219 min
Histogram: 1 0 0 0 0 0 0 0 0 0
FullNghs:  8438 ave 8438 max 8438 min
Histogram: 1 0 0 0 0 0 0 0 0 0

Total # of neighbors = 8438
Ave neighs/atom = 38.8848
Neighbor list builds = 92
Dangerous builds = 1
Setting up Verlet run ...
  Unit style    : metal
  Current step  : 3200
  Time step     : 0.003
Per MPI rank memory allocation (min/avg/max) = 9.662 | 9.662 | 9.662 Mbytes
Step PotEng KinEng TotEng Temp Press Density c_msdli[4] c_msdsi[4] 
    3200    -944.0942    46.132848   -897.96135    1652.3113   -7226.3961    2.1501911            0 4.601546e-32 
    3300   -943.41627    45.420781   -897.99549    1626.8076   -12114.357     2.138774   0.54402698  0.094474336 
    3400   -939.26714     50.35048   -888.91666    1803.3716     11014.68    2.1788691   0.50067431   0.11725705 
    3500   -945.71438    50.493217   -895.22116    1808.4839    9679.5807    2.1907215   0.24456875   0.12704293 
    3600   -945.32963    45.657171   -899.67245    1635.2743   -13369.816    2.1400363   0.28963668   0.15719194 
    3700   -939.88329    45.137905   -894.74539    1616.6761   -4896.9731    2.1533129   0.61376925   0.15239811 
    3800   -942.58267     48.74538   -893.83729    1745.8827    15591.266      2.19872   0.35204157   0.14256478 
    3900   -946.87928    44.694799   -902.18448    1600.8056     4571.891    2.1846635  0.023808918   0.14697316 
    4000   -942.63579    44.503196   -898.13259    1593.9431   -12083.662    2.1351175   0.89770376   0.14025688 
    4100   -939.98637    45.202119   -894.78425     1618.976    1632.9844    2.1691722    0.9194538   0.13826896 
    4200   -947.44608    44.174508   -903.27157    1582.1707    14657.413    2.2175242    1.3704436   0.11461919 
    4300   -941.93077    43.104271    -898.8265    1543.8387   -3238.4354    2.1595293    1.4157101   0.11665013 
    4400   -941.42435    45.291874   -896.13247    1622.1907   -9650.1444    2.1428641   0.34860167   0.16037638 
    4500   -948.21616    48.416197   -899.79996    1734.0926    5418.4743     2.191337    1.2673516   0.15686168 
    4600   -948.29953    45.193512   -903.10602    1618.6677     11495.87    2.2072539   0.82055814   0.15630168 
    4700    -942.3679    48.682876   -893.68502    1743.6441   -10803.349    2.1350727   0.59969735   0.15114992 
    4800   -941.96168    43.107849   -898.85383    1543.9668   -3454.9098    2.1603905    1.1880711   0.14717553 
    4900   -947.96326    47.739002   -900.22426    1709.8379    10478.988    2.2074006    1.5039847   0.16046977 
    5000   -943.63875    52.630628   -891.00812    1885.0382   -1474.1454    2.1631325   0.93595249   0.15563443 
    5100   -947.34554    50.059074   -897.28646    1792.9345   -10905.309    2.1498204    1.0836783   0.15137313 
    5200   -947.96851    47.708032   -900.26048    1708.7287    1042.7766    2.1818475    1.0320502   0.12576451 
    5300   -940.68132    46.409605   -894.27171    1662.2238    10541.097    2.1942184   0.71386215   0.13980982 
    5400   -942.00249    47.915225   -894.08727    1716.1496   -5434.4897    2.1557312    0.9200484   0.13489721 
    5500   -948.53245    46.382181   -902.15027    1661.2415   -7836.4194    2.1642399   0.50694562   0.14889908 
    5600   -942.46035    45.872922   -896.58742    1643.0017    7232.9827    2.1911605   0.93488999   0.16219036 
    5700   -944.62152    51.182603   -893.43891    1833.1752    2837.0875    2.1767433    1.1763541   0.16287668 
    5800   -947.34586    44.206321   -903.13954    1583.3101   -6885.0634    2.1628141   0.89695844   0.15064473 
    5900   -943.59852    43.856528     -899.742    1570.7818    -6262.342    2.1559546    1.1610532   0.16274613 
    6000   -944.16006    49.874656    -894.2854    1786.3293    9005.5875    2.1886339     1.037627     0.168101 
    6100   -949.32057    47.004392   -902.31618    1683.5269    2245.5976     2.186587    1.1727003   0.15194613 
    6200   -947.84148    46.403606   -901.43788    1662.0089   -10765.416    2.1499866    1.2088739   0.12921854 
    6300   -943.02709    47.751511   -895.27558     1710.286   -1274.7347    2.1619886    1.0778017   0.13791317 
    6400   -945.44132    46.399952   -899.04137     1661.878    7345.9623    2.1921111    1.0336169   0.11938531 
    6500    -947.2847    43.373779   -903.91092    1553.4915    187.06392    2.1812108     1.025053   0.14622482 
    6600   -943.14651    49.188326   -893.95818    1761.7474   -9458.2167    2.1407703   0.24663171   0.16545295 
    6700     -945.454    47.580015   -897.87399    1704.1436     3279.121     2.182722    1.0499884   0.16311978 
    6800    -947.3748    46.204609   -901.17019    1654.8815    8722.4008    2.1987292    1.1225017   0.17018906 
    6900   -936.68359      44.8523   -891.83129    1606.4467   -4050.0848    2.1462527   0.97001531   0.17090912 
    7000    -944.5256    47.470571   -897.05503    1700.2237   -5577.7944    2.1609496    1.3119756   0.15634378 
    7100   -949.33868    49.406173   -899.93251    1769.5499    7673.1882    2.2003834    1.0181394   0.15810049 
    7200   -941.97319    47.875608   -894.09758    1714.7307      6327.71    2.1838242    0.5686233   0.14440085 
    7300   -942.51371    47.902604    -894.6111    1715.6976   -12988.917    2.1329152   0.62686822   0.14222517 
    7400   -947.37722    44.658882   -902.71834    1599.5192   -4151.3469    2.1722879   0.77921032   0.12602026 
    7500   -945.43969    50.131656   -895.30803    1795.5341    22490.554    2.2282123   0.76609771   0.14622002 
    7600   -943.11638    46.424826   -896.69156    1662.7689   -3551.9055    2.1599482   0.91073141   0.17695251 
    7700   -947.45962    42.594496   -904.86512    1525.5804   -16123.174    2.1444527   0.80697008   0.17124572 
    7800   -946.37873    45.910102   -900.46863    1644.3334    4627.6169    2.1901334    1.4806843   0.15844702 
    7900   -942.65202    48.084038   -894.56799    1722.1959    8907.7969    2.1903318    1.0034314   0.15363081 
    8000    -945.1334    44.066315   -901.06708    1578.2956     -3887.84    2.1636787   0.67398428   0.13716964 
    8100   -944.34252    41.854913    -902.4876    1499.0912   -3095.8442    2.1674929    1.1647962   0.15381009 
    8200   -941.81802    47.497364   -894.32066    1701.1833    4065.5943    2.1788151    0.7484646   0.15597297 
    8300   -945.64776    46.745514   -898.90225    1674.2548    1975.6343    2.1795857   0.87375282   0.13169632 
    8400   -946.64429    43.296439   -903.34785    1550.7214   -6192.7356    2.1674852   0.60339388   0.12486358 
    8500   -940.28632    46.970237   -893.31609    1682.3035   -226.25871    2.1609961    1.3497327   0.15153529 
    8600   -944.52818    48.292259   -896.23592    1729.6536    8960.2007    2.1948107   0.68751812   0.16404856 
    8700   -946.49535    45.328338   -901.16701    1623.4967     360.7997    2.1795225    1.2852118   0.17912885 
    8800   -940.19474    47.174117   -893.02062    1689.6058   -8485.3474    2.1458017   0.78003007   0.16404678 
    8900   -942.20385    47.130531   -895.07332    1688.0447    1255.0559    2.1729543    0.8944251   0.14033165 
    9000   -947.26504    47.480078   -899.78496    1700.5642    6632.1293    2.1943053   0.77000952   0.14654358 
    9100   -943.60626    47.014926   -896.59133    1683.9042   -4860.2247    2.1593795   0.88355927   0.15033849 
    9200    -942.4583    50.064602    -892.3937    1793.1325   -10960.029    2.1387789    0.7841975   0.14397676 
    9300   -947.18717    45.396618   -901.79055    1625.9422    11563.862    2.2117989   0.73626502   0.15511829 
    9400   -947.64318    50.387224   -897.25596    1804.6876    5176.2268    2.1914333   0.75599049   0.12798468 
    9500   -942.94551    47.495706    -895.4498    1701.1239   -14116.066    2.1248719    1.3043128   0.14613579 
    9600     -947.809    43.371351   -904.43765    1553.4045   -4558.2483    2.1721281    1.3482026   0.15434883 
    9700   -944.70322    44.308497   -900.39472    1586.9697    14669.594    2.2098549    1.1920142   0.15430085 
    9800   -947.34503    51.617931   -895.72709    1848.7671   -1893.1051    2.1674489   0.62200746   0.14516893 
    9900   -945.88912    46.619402   -899.26972    1669.7379    -7941.224    2.1527422   0.80963131   0.14155119 
   10000   -946.48559    43.125517   -903.36008    1544.5996    5673.9691    2.1918973    1.0108922   0.14893876 
   10100   -945.02044    50.537307   -894.48313    1810.0631    1414.1052    2.1754918   0.60401634   0.13293893 
   10200   -946.28259    47.492889    -898.7897    1701.0231   -4271.6916    2.1653402   0.78836665   0.13945404 
   10300   -949.40482    46.168857   -903.23597     1653.601   -3457.6471    2.1743789     1.057596   0.13000762 
   10400   -942.50766    49.147827   -893.35984    1760.2969    4314.6249    2.1758162   0.67566944   0.13483969 
   10500   -945.48477    49.003035   -896.48173     1755.111    5631.6273    2.1854306    1.2406247    0.1356787 
   10600   -948.67579     46.61676   -902.05903    1669.6433   -7445.7459    2.1666868    1.6937276   0.13710052 
   10700   -942.92531    49.298254   -893.62705    1765.6847   -4999.3691     2.158081    1.3990782   0.15842163 
   10800   -942.37371    46.960947   -895.41276    1681.9708    7984.5262    2.1910326   0.84502889   0.15381136 
   10900   -946.93331    46.060532   -900.87278    1649.7212   -1112.4219    2.1784689   0.57349778   0.15206418 
   11000   -944.98875    49.130362   -895.85839    1759.6714   -9464.0929     2.149766   0.12559438   0.13899761 
   11100   -941.06978    48.992095   -892.07768    1754.7192    4108.6994    2.1770192    1.8842849   0.14771886 
   11200   -945.39133    45.339048   -900.05228    1623.8803    13590.782    2.2105896   0.87341202   0.13898359 
   11300   -942.85616    44.982024   -897.87414     1611.093   -8275.2351    2.1466822   0.86717503   0.13399759 
   11400    -942.3744    47.862974   -894.51143    1714.2782    -11627.74    2.1343505   0.61442744   0.13977701 
   11500   -948.78017    46.506541   -902.27363    1665.6956    14409.228    2.2175712    1.1319391   0.14851785 
   11600   -945.27246    45.907195   -899.36527    1644.2293    6005.9078    2.1884369    1.0035106   0.14095621 
   11700    -942.8402    46.600756   -896.23944    1669.0701   -10749.272    2.1415222   0.77178433    0.1461607 
   11800   -945.88544    44.366971   -901.51846     1589.064   -2641.8259    2.1723143   0.86581856   0.15090009 
   11900   -946.61665    44.622421   -901.99423    1598.2133    9295.1214    2.2012814   0.73896109   0.14699354 
   12000   -940.64216    46.354373   -894.28778    1660.2455    40.266801     2.163628    1.6063913   0.14309735 
   12100   -945.21318    44.651764   -900.56142    1599.2643   -6294.4735     2.159146    1.0263668    0.1404985 
   12200   -945.76125    45.706574   -900.05468    1637.0437    1753.2519    2.1821283    1.0129425   0.13782692 
   12300   -944.20424    52.480639    -891.7236    1879.6662    2652.0532    2.1719601    1.0694038   0.13124563 
   12400   -947.93004    48.135476   -899.79457    1724.0382   -3962.7172    2.1697809    1.0382166   0.15382449 
   12500   -944.17999    44.300706   -899.87928    1586.6906   -2654.1974    2.1674824   0.39779601   0.14966748 
   12600   -938.32988    47.312695   -891.01718    1694.5692    4674.8834    2.1692814    1.1004269   0.16244142 
   12700   -945.04741    45.672704   -899.37471    1635.8306    5888.2721    2.1894345   0.64963044   0.14909391 
   12800   -943.12059    42.646191    -900.4744    1527.4319   -4693.4037    2.1617885   0.95907291   0.13912016 
   12900   -938.12254    44.792228   -893.33031    1604.2952    -1891.594    2.1547216   0.84847228   0.15342504 
   13000   -944.61697    43.749744   -900.86722    1566.9572    13156.385    2.2110128    1.2237223   0.15764563 
   13100   -945.47486    44.380713   -901.09415    1589.5562    413.89673    2.1791289    1.0623624   0.14951301 
   13200   -942.22418    45.584523   -896.63965    1632.6723   -14415.737    2.1331087   0.62009807   0.15539371 
   13300   -944.27215    50.342769   -893.92938    1803.0954    3754.4307    2.1799625   0.64145216   0.15567032 
   13400   -950.16308    47.387141   -902.77594    1697.2355    15331.586    2.2219355     0.789831   0.16038271 
   13500   -945.00453    47.916819   -897.08771    1716.2067   -8817.1529    2.1516585   0.93939856   0.15834261 
   13600   -940.87408    44.904902   -895.96918    1608.3307   -5663.1386    2.1505051   0.54455325   0.16165287 
   13700   -945.93284    44.290159   -901.64268    1586.3129    7422.5547    2.1955659   0.77886414   0.14451879 
   13800   -947.80673    46.984794   -900.82193    1682.8249    5438.6105    2.1893145    1.0211781    0.1406481 
   13900   -943.96461    49.572782   -894.39183    1775.5173   -7991.9587    2.1475633    1.0591551   0.14210296 
   14000   -946.82158    46.657211   -900.16437    1671.0921   -4333.6819    2.1693335    1.3396945   0.14007611 
   14100   -947.32377    46.514712   -900.80906    1665.9883    8172.3977    2.1964407    1.2176361   0.16685642 
   14200   -941.64065    49.869971   -891.77068    1786.1615   -985.14072    2.1571732   0.52216656   0.16985244 
   14300   -944.84662    45.195206   -899.65141    1618.7284   -6333.7564    2.1592091   0.74772303   0.16728563 
   14400   -946.52181     47.09078   -899.43103     1686.621    2558.1745    2.1793728    1.0371813   0.15929794 
   14500   -943.89598    53.242823   -890.65316    1906.9648    2545.3512    2.1722374    1.3124482   0.15461212 
   14600   -948.28684    49.657991   -898.62884    1778.5692   -5937.9674    2.1663996    1.3781099   0.13022354 
   14700   -942.00756    41.548653   -900.45891    1488.1221   -4204.2144    2.1608664    1.1863604   0.14224468 
   14800    -942.0544    48.881911   -893.17249    1750.7728    5378.3073    2.1836373    1.1996564   0.14986166 
   14900   -946.97693    47.529303   -899.44763    1702.3273    7398.9651    2.1935951    1.2268409   0.13803939 
   15000   -945.15918    42.677053   -902.48213    1528.5373   -13066.878    2.1392702    1.0624432   0.15299236 
   15100     -942.565    45.322259   -897.24274     1623.279   -2657.0324    2.1632356    1.3423743   0.16769504 
   15200   -943.59039    48.462236   -895.12816    1735.7415    17654.398     2.209219   0.88551355   0.16256244 
   15300   -951.16273    46.183679   -904.97905    1654.1319   -2184.9202     2.175883    1.2484809    0.1554462 
   15400   -942.55087    43.758614   -898.79225    1567.2749   -10103.199    2.1409341   0.65275801   0.15356242 
   15500   -945.61833    50.650822   -894.96751    1814.1288    2064.8199    2.1743483   0.57764591   0.12639228 
   15600   -945.06406    43.748485   -901.31558    1566.9121    7499.6957    2.1900095    1.3141947   0.13256186 
   15700   -945.78604    43.781932   -902.00411      1568.11   -1790.2425    2.1670251    1.1920472   0.11222313 
   15800   -943.56706    49.234314   -894.33275    1763.3946   -6930.6425    2.1481257   0.93662644   0.13041391 
   15900   -945.76793    46.519318   -899.24861    1666.1533    5158.3395    2.1830919    1.0838087   0.14131084 
   16000   -949.05335    48.051991   -901.00136    1721.0481    2932.8809    2.1874485    1.4725924   0.12918522 
   16100    -940.2146    48.410554   -891.80404    1733.8905   -8613.2681    2.1399187    1.4068487   0.17023502 
   16200    -947.0075    47.463012   -899.54449     1699.953   -2001.6762    2.1722334      1.12964   0.15179541 
   16300   -944.07299    44.740527   -899.33246    1602.4434     8683.421    2.1921651    1.2935111   0.15907105 
   16400   -940.24494    47.783889   -892.46105    1711.4456   -126.53407     2.159751   0.78408426   0.15418515 
   16500   -943.30998    46.742811   -896.56717     1674.158   -6324.8717    2.1529463      1.31053   0.12687763 
   16600   -942.62045    42.184903   -900.43554    1510.9103    4634.1601    2.1799643    1.1774726    0.1359102 
   16700   -944.68725    50.187693   -894.49955    1797.5412    11734.823     2.195879     1.364908   0.14393932 
   16800   -945.11331    47.924521   -897.18879    1716.4826   -8300.0569    2.1481441   0.75839169   0.15868823 
   16900   -947.10585    42.683063   -904.42278    1528.7525   -11650.722    2.1519885     1.125948   0.15518545 
   17000   -947.47082    50.394202   -897.07662    1804.9375    14682.607    2.2074714    1.0216066   0.14477089 
   17100   -944.03998    47.716074    -896.3239    1709.0167    6760.6216    2.1866121    0.9309237   0.13778878 
   17200   -947.29145    45.670099   -901.62135    1635.7373   -14110.447    2.1377398    1.8652407   0.14167499 
   17300   -948.27053    45.403534   -902.86699    1626.1899    573.28925    2.1803567   0.83642053   0.14243205 
   17400    -941.1063    46.271609    -894.8347    1657.2812    7244.9299    2.1862938   0.81808059   0.16034397 
   17500   -944.13497    44.970135   -899.16484    1610.6672   -2452.5088    2.1658491   0.96731428   0.15271993 
   17600   -946.77164    42.271095   -904.50055    1513.9973   -2888.6223    2.1712671   0.94594627   0.13820323 
   17700   -943.54405    48.366498   -895.17755    1732.3125    3539.4593     2.177349    1.1262872   0.16636107 
   17800   -948.09406    51.992642   -896.10141    1862.1879    2798.8799    2.1853912    1.9260888    0.1666306 
   17900   -946.16918    44.609557   -901.55963    1597.7526   -5502.3136    2.1632543    1.2451159   0.15220738 
   18000   -947.24095    52.120762   -895.12019    1866.7767   -5294.8995    2.1606097   0.49538806    0.1228204 
   18100   -941.04388    48.032902   -893.01098    1720.3644     8218.609    2.1815347   0.71202265   0.14957609 
   18200   -944.91772     44.93593   -899.98179    1609.4421    1041.6899    2.1741026    1.0776289   0.14219818 
   18300   -946.09626    48.280665   -897.81559    1729.2383   -5099.4408    2.1574547   0.76415024   0.14068546 
   18400   -942.26614    51.790201   -890.47594    1854.9372   -252.26304    2.1618788   0.66823349   0.15758352 
   18500    -949.0528    49.058962   -899.99384    1757.1141    8912.4427    2.1988975    1.1829676   0.14221486 
   18600   -947.21752    47.970288   -899.24723    1718.1217   -7111.3642     2.155506   0.62164856   0.16384197 
   18700   -941.84417    47.676715   -894.16746     1707.607   -10096.621    2.1381295     1.418544   0.16988779 
   18800    -948.7973    45.542834   -903.25447    1631.1792    13267.911    2.2107399    1.4468004    0.1653477 
   18900   -949.48818    48.830446   -900.65773    1748.9295    3417.9354    2.1870585     1.208045   0.14650628 
   19000   -943.91322    46.987409   -896.92581    1682.9186   -15513.636    2.1356211   0.82095052   0.15306777 
   19100   -945.82679    50.238052   -895.58873    1799.3448   -1853.4566    2.1650138   0.31044649   0.14054609 
   19200   -949.77497    45.882053   -903.89291    1643.3288    14759.288    2.2200407   0.91132776    0.1377832 
   19300   -945.80348    49.440003   -896.36348    1770.7616   -5536.9737    2.1591962   0.68847849   0.14521573 
   19400   -941.46453    44.513168   -896.95136    1594.3002   -5307.5614    2.1558439   0.54618167    0.1571161 
   19500   -950.51894    48.096498   -902.42245    1722.6421    1238.9193    2.1868232   0.74926902    0.1577959 
   19600   -948.54028    51.216924   -897.32335    1834.4045     2888.751    2.1834065   0.89889897   0.15824138 
   19700   -941.02055     46.42452   -894.59603     1662.758    -3343.005    2.1568266   0.64408742   0.16446458 
   19800   -944.88853    44.178613   -900.70991    1582.3177   -3435.8244    2.1634546    1.1820084   0.14918676 
   19900   -947.54222     49.02258   -898.51964     1755.811     4347.269    2.1839771     1.042794   0.14837644 
   20000   -938.68528    47.255571   -891.42971    1692.5232     2866.093    2.1618122    1.8027625   0.13552011 
   20100   -943.79505    43.537599   -900.25745    1559.3589    -2247.447    2.1655627    0.4681343   0.13742409 
   20200   -944.48694    45.479221   -899.00772    1628.9008    -1591.374    2.1667253    1.5331621   0.13754795 
   20300   -940.00019     48.92598   -891.07421    1752.3512     4487.784    2.1691583    1.5606797   0.14114033 
   20400   -944.85808    44.495336   -900.36274    1593.6616    4766.3712    2.1841933   0.98697078   0.16455054 
   20500   -940.84951    40.931693   -899.91781    1466.0248   -6417.1421    2.1508774   0.82206202   0.15393346 
   20600   -943.10116    49.057716   -894.04344    1757.0695   -2207.4458    2.1558754   0.58166813   0.14099057 
   20700   -948.32015    46.013065   -902.30708    1648.0211    12765.085    2.2137504   0.76256416   0.14499662 
   20800   -948.04433    46.546722    -901.4976    1667.1348   -6084.8308    2.1653341   0.83612464   0.13474988 
   20900   -940.88301    44.027152   -896.85586    1576.8929   -11031.227    2.1324241    1.6539164   0.12905049 
   21000   -943.33228    46.430108   -896.90217    1662.9581    6722.1888    2.1886546   0.57044928   0.14319617 
   21100   -952.81784     48.33516   -904.48268    1731.1901    9103.3941    2.2141173    1.9365865   0.13735957 
   21200   -942.18201    46.534041   -895.64797    1666.6806   -7744.9633     2.145114   0.83734409   0.13531759 
   21300   -943.30015    46.591082   -896.70906    1668.7236   -3092.7753    2.1616145    2.2202474    0.1578727 
   21400    -946.9371    45.197901    -901.7392    1618.8249    6154.3709    2.1969532    1.0654314   0.16152154 
   21500   -937.11299    41.976082   -895.13691     1503.431    5877.9554    2.1767068    1.5844537   0.16315332 
   21600   -946.17679    51.627117   -894.54968    1849.0961   -6869.1511    2.1571362   0.60377226   0.15222866 
   21700    -946.1797    45.707429   -900.47227    1637.0743   -786.04845    2.1736744    1.2511945   0.14431533 
   21800   -943.50818    46.025693   -897.48249    1648.4734    6325.4825    2.1879936    1.8470234   0.13514519 
   21900   -938.65716    46.821929   -891.83523    1676.9917   -210.59735     2.158314    1.4919623   0.15284529 
   22000   -947.30875    46.142073   -901.16668    1652.6417   -4300.5535     2.168243    1.3540218   0.14584492 
   22100   -943.09106    45.177051   -897.91401    1618.0781    5905.9697    2.1859592    1.0581221   0.15482791 
   22200    -942.2764    50.634425   -891.64198    1813.5415    1828.8956    2.1701132   0.83562388   0.14949364 
   22300   -943.90827    43.426869    -900.4814     1555.393   -5007.6441    2.1608009    1.3541795   0.15576632 
   22400   -944.46118    44.319147   -900.14204    1587.3511   -2619.1439    2.1677581    0.6780609   0.15166401 
   22500   -942.80255    49.081245   -893.72131    1757.9122    9332.9439    2.1957108    1.8408588   0.16968006 
   22600   -947.52018    47.145062   -900.37512    1688.5651    275.25738    2.1776935   0.86358538   0.14739075 
   22700    -945.6905    42.257456   -903.43304    1513.5088   -13544.505    2.1452381    1.4404332   0.15099887 
   22800   -946.21175    49.755601   -896.45615    1782.0652    2951.3937    2.1831729   0.94620592   0.14636265 
   22900   -945.35522    48.472793   -896.88243    1736.1197    12319.703    2.2058773    1.4345594   0.15847427 
   23000   -949.85031    44.645101   -905.20521    1599.0256   -10226.863    2.1628988   0.87355973   0.14944998 
   23100    -943.3958    45.947467   -897.44833    1645.6716   -9124.0184    2.1475923    1.0338793   0.14730065 
   23200   -946.38791    51.427284   -894.96063    1841.9388    6054.8925    2.1894972   0.69771367   0.14668117 
   23300   -944.57652    43.065569   -901.51095    1542.4525    5028.1961    2.1859748   0.91307968   0.14668558 
   23400   -942.02129     46.71109    -895.3102    1673.0218   -4174.0504    2.1579318   0.99787811   0.15342793 
   23500    -941.6398    47.631106    -894.0087    1705.9735   -89.445147    2.1643819    1.1550338   0.15538709 
   23600   -947.96715    47.410706   -900.55644    1698.0796    1311.4894     2.183729   0.88014459   0.15244954 
   23700   -941.62144    44.387721   -897.23372    1589.8072    2752.6303    2.1711462    0.6103616   0.14844509 
   23800   -942.97642    50.379414     -892.597    1804.4079   -6345.4798    2.1498598   0.83108303   0.16020654 
   23900   -944.20395    42.931126   -901.27282    1537.6373    4632.7497    2.1829725   0.72833806   0.13912612 
   24000   -942.83689    45.221747   -897.61515     1619.679    6477.4128     2.181907   0.95133684    0.1368673 
   24100   -943.52912    50.317241   -893.21188    1802.1811   -6152.9148    2.1514809    0.9048506   0.15139347 
   24200   -947.09075    43.894082   -903.19666    1572.1269   -1877.5064     2.173766    1.4785787     0.140686 
   24300   -945.77524    46.883262   -898.89198    1679.1884    5027.0503    2.1847125   0.87422138   0.15192772 
   24400   -941.41702    47.118429   -894.29859    1687.6112   -689.84778    2.1662794   0.96653327   0.14920396 
   24500   -948.06427    45.706265   -902.35801    1637.0327   -9120.6537     2.153417   0.81845627   0.13546026 
   24600   -949.96432    49.163445   -900.80087    1760.8563   -1863.4203    2.1744841    1.4217285   0.13975071 
   24700   -945.22358    51.686859   -893.53672    1851.2358    10956.476    2.1965235    1.2364316   0.14991259 
   24800   -946.80419    47.219907   -899.58429    1691.2458   -6777.7751     2.157968    5.8645367   0.16068636 
   24900    -947.7017    45.260892   -902.44081     1621.081   -10461.355    2.1486238    4.5125799   0.17230473 
   25000   -944.19215    51.313233   -892.87892    1837.8539    5603.9237    2.1840409     6.028488   0.17777506 
   25100   -942.53683    47.868497   -894.66833     1714.476     8752.416    2.1871819    5.1151953   0.18215865 
   25200   -946.12209     45.44257   -900.67952    1627.5881   -10955.946     2.148243     6.730798   0.15802242 
   25300   -942.20082    47.809527    -894.3913    1712.3639   -3289.2853    2.1531906    11.766168    0.1462363 
   25400   -938.20666    46.726419   -891.48024    1673.5709    7102.6938    2.1725682    6.3783926   0.16920246 
   25500   -949.24636     50.15148   -899.09488    1796.2441    414.06705    2.1741182    4.2955808   0.16096991 
   25600   -945.04018    48.090861   -896.94932    1722.4402   -2954.5996    2.1610616    3.5402655   0.16907654 
   25700   -939.24021    49.292383   -889.94782    1765.4744    1294.9453    2.1536525    5.1964219   0.17540321 
   25800   -945.08612    46.091828   -898.99429    1650.8421    5999.1028    2.1813364    6.5785877   0.16653395 
   25900   -946.03133    48.439986   -897.59135    1734.9446   -2148.0162     2.167168    9.4477495   0.15359928 
   26000   -942.52845    51.255776   -891.27268     1835.796   -5473.2344    2.1485662    7.1529015   0.16410758 
   26100   -947.60812    48.585555   -899.02257    1740.1584    1173.7396    2.1757529    10.863135   0.15450254 
   26200   -945.22945    46.129569   -899.09988    1652.1939    430.48582    2.1674452    17.977415   0.14633067 
   26300    -941.5936    46.491223   -895.10238     1665.147    228.83455    2.1608441    13.636802   0.15160955 
   26400   -941.37355     46.74937   -894.62418    1674.3929    2584.7773    2.1664787     6.210196   0.16563412 
   26500   -947.46261    44.659942   -902.80266    1599.5572    8037.3794    2.1950311    6.3341421   0.15614707 
   26600   -942.50553    45.669816   -896.83571    1635.7272   -1852.2318    2.1583232    5.2814306   0.16576392 
   26700   -941.20062    45.950288   -895.25033    1645.7727   -7133.4671    2.1439747    7.2264088   0.17204484 
   26800   -950.47004    46.423537    -904.0465    1662.7228    3972.5222    2.1924737    6.1317911   0.18455309 
   26900   -946.36922    47.522311   -898.84691    1702.0768    4988.1737    2.1852715    3.9600222   0.17632282 
   27000   -942.85382    47.017632   -895.83618    1684.0011   -6636.6704    2.1449325    4.5648938   0.17190623 
   27100   -945.86964    46.002059   -899.86758    1647.6269   -5148.2984    2.1623901    6.4165785   0.18934364 
   27200   -946.58739    43.883115   -902.70427     1571.734    10145.544    2.2034932    6.2463295   0.16450351 
   27300   -941.68896    48.190537   -893.49842    1726.0103   -1786.9403    2.1559154    11.216067   0.18239452 
   27400   -948.26533    50.949611   -897.31572    1824.8303   -13102.816    2.1394482    6.3653668   0.15586916 
   27500   -946.83078    46.122437   -900.70835    1651.9384    4024.2685    2.1857946    5.2986807   0.15948265 
   27600   -942.12982    49.804491   -892.32533    1783.8163    9484.3241    2.1881446    4.3205364    0.1825167 
   27700   -940.57419    46.547666   -894.02652    1667.1686   -3052.8002    2.1536993    4.4121863   0.17168747 
   27800   -944.26767    44.813046   -899.45462    1605.0408   -7221.1689    2.1558408    7.0011309   0.18604694 
   27900   -945.62159    50.092727   -895.52886    1794.1398    5952.2874    2.1899149    1.1637492   0.15736773 
   28000   -943.94246    54.416121   -889.52634    1948.9881   -1418.6654    2.1651034    0.4905987    0.1485387 
   28100   -943.00054    42.861236   -900.13931     1535.134   -105.75012    2.1716983   0.74191513   0.15365129 
   28200   -946.02678    47.054503   -898.97228    1685.3217   -2238.2154    2.1744118   0.73329455   0.14714573 
   28300   -948.06856    52.432426   -895.63614    1877.9393   -1824.4061    2.1730585    1.3407231    0.1434944 
   28400   -941.06028    50.832804   -890.22748    1820.6467    -3246.413    2.1604232    1.3190326   0.14181446 
   28500    -935.8919    51.897208   -883.99469    1858.7698    -3277.594    2.1416581    15.813733   0.16192684 
   28600     -941.785    46.926889   -894.85811     1680.751    6900.7187    2.1841177    14.569831   0.18855116 
   28700   -939.10057    43.385207   -895.71536    1553.9008    7855.9608    2.1839737    9.1754251   0.18610234 
   28800   -943.84496    44.399277   -899.44568    1590.2211   -9139.5817     2.152034    11.199096   0.18754947 
   28900   -944.30294    48.245689   -896.05725    1727.9856   -3510.9239    2.1601764    7.6855111   0.16772152 
   29000   -942.35588    52.245389   -890.11049    1871.2404    4351.2553    2.1696917    7.6545923   0.16911572 
   29100   -944.04283    46.916799   -897.12603    1680.3896   -183.72749     2.170103    8.2715504   0.16918728 
   29200   -945.57417    47.466641   -898.10753    1700.0829   -1002.4804    2.1661915    13.127371   0.15956209 
   29300   -943.55634    47.996064   -895.56028    1719.0449    1927.4305     2.173364    15.823089   0.17070187 
   29400   -939.99977    51.063323   -888.93645    1828.9031   -4387.0433    2.1466424    14.410828   0.17459738 
   29500   -944.38193    47.746536   -896.63539    1710.1078    456.57051    2.1684212    7.7249339   0.17215653 
   29600    -947.0191    48.851101     -898.168    1749.6693    1127.3328    2.1805101     12.63014   0.17912739 
   29700    -944.4093     49.27603   -895.13327    1764.8887   -1926.5117    2.1633403    2.8413385   0.17100295 
   29800   -936.85834    47.165184   -889.69316    1689.2858   -1429.3059    2.1491034    12.526654   0.17081259 
   29900   -943.19232    45.812152   -897.38017    1640.8252    1992.0501     2.179653    8.9069722   0.17733368 
   30000   -943.79568    46.008274    -897.7874    1647.8495    2607.7213    2.1764082    10.855726   0.16248831 
   30100   -939.14993    48.156598   -890.99333    1724.7947   -3435.7383    2.1535611    12.012873   0.19017962 
   30200   -936.29511    44.415696   -891.87942    1590.8092   -4979.0311    2.1444026    9.6692294   0.22076991 
   30300   -941.19352    43.424131   -897.76939    1555.2949    3527.9805    2.1731826    4.2866461   0.17234524 
   30400   -941.14895    45.460646   -895.68831    1628.2355    9316.4804    2.1908403    2.5879781   0.18510199 
   30500   -939.47619    48.378807   -891.09739    1732.7534   -7517.0436    2.1390601    3.0902667   0.16951788 
   30600   -935.90725    48.464016   -887.44323    1735.8053   -12299.856    2.1191546    1.3913999   0.19973832 
   30700    -945.0531    48.869321   -896.18377    1750.3219    19483.941    2.2192053    18.171005   0.15556971 
   30800   -944.07648    47.345111   -896.73137    1695.7302    9211.6804    2.1943384    18.534132   0.15786495 
   30900   -946.19743    45.126646   -901.07079    1616.2728   -16631.822    2.1319059    15.953983   0.13954163 
   31000   -942.76655    42.137499   -900.62905    1509.2124    2563.8065    2.1769582    15.972422    0.1446811 
   31100   -941.99365    49.774266   -892.21938    1782.7337    7440.5026    2.1823849    17.647324   0.15191478 
   31200   -941.98505    43.955746   -898.02931    1574.3354   -2314.6239     2.163483    14.573312   0.15081089 
   31300   -945.81551    45.082867   -900.73265    1614.7048   -5175.9033    2.1656066    16.822505   0.16732538 
   31400   -946.84801    53.085343   -893.76267    1901.3245    4079.3406    2.1845934    17.091232   0.14932193 
   31500     -939.942    46.811185   -893.13082    1676.6069     4315.447    2.1724063    15.683165   0.14885848 
   31600   -945.56976    45.282057    -900.2877    1621.8391   -7833.6721    2.1551533    18.020177   0.16937013 
   31700   -942.78125    45.583781   -897.19747    1632.6457    3742.4221     2.173235    20.035919   0.15886973 
   31800   -939.45802     50.52237   -888.93565    1809.5281    8008.1136    2.1782343    14.112317   0.15573594 
   31900   -946.05502    47.366455   -898.68856    1696.4946   -670.35044    2.1732648      14.9621   0.13439988 
   32000   -946.19276    46.631335   -899.56142    1670.1653   -11145.411    2.1516091    13.252634   0.13416158 
   32100   -944.41113    51.413664   -892.99747     1841.451    2123.5357    2.1770674    15.952067   0.16213234 
   32200   -948.55326     49.15733   -899.39593    1760.6373    5794.7996    2.1958753    17.677696   0.16793634 
   32300    -949.4638     47.71339   -901.75041    1708.9206   -10087.931    2.1571705    17.910354    0.1762584 
   32400   -946.11232    48.598494   -897.51383    1740.6218   -4289.3649    2.1617126    19.503024    0.1552648 
   32500   -945.85251    51.325651   -894.52686    1838.2987    7362.7036    2.1899683    14.394477   0.14830171 
   32600   -949.40926    44.973309   -904.43595    1610.7808   -697.48665    2.1830902    14.685916   0.13695216 
   32700   -944.79025    43.731982   -901.05827     1566.321   -9046.4511    2.1529767    16.216789   0.14444654 
   32800    -943.6471    47.315021   -896.33208    1694.6525     3447.866    2.1743304    15.400275   0.14605081 
   32900   -949.76303    49.794954   -899.96808    1783.4747    2025.9535    2.1853494    14.246304   0.12625631 
   33000   -951.19483    44.924529    -906.2703    1609.0337   -2177.4912    2.1836979    14.852129   0.14351488 
   33100   -942.80957    45.551886   -897.25768    1631.5034   -4386.9874     2.160273    17.192793    0.1595547 
   33200   -947.20217     49.45128   -897.75089    1771.1655    -237.3781    2.1758024    16.774636   0.18539468 
   33300   -948.82616    44.610302   -904.21586    1597.7793    4657.0761    2.1895741    18.317832   0.16307512 
   33400   -945.20928    45.728649   -899.48063    1637.8344   -2068.2883    2.1685794    16.471227   0.14199223 
   33500   -943.45152    47.020524   -896.43099    1684.1047   -3915.7323    2.1635744    17.770475   0.14096637 
   33600   -943.92028    44.932373    -898.9879    1609.3147    1630.8594    2.1742876     11.88733    0.1285072 
   33700   -948.89107    46.286958   -902.60412     1657.831    4597.8315     2.189668    14.025037   0.13612145 
   33800   -943.86251    50.603588   -893.25892     1812.437   -3871.3297    2.1600342    14.646215   0.14825583 
   33900    -941.8163    46.913114   -894.90319    1680.2576      880.234    2.1708011    15.709288   0.15036183 
   34000   -943.37722    44.870242   -898.50698    1607.0893    5728.2347    2.1803968    19.646304   0.16745032 
   34100   -948.26835     47.32331   -900.94504    1694.9493   -2478.1016    2.1727407    18.175673   0.15258635 
   34200   -939.57058    49.196345   -890.37423    1762.0347   -2695.3461    2.1529931    17.210849    0.1614107 
   34300   -945.15233    49.807801   -895.34452    1783.9348    7061.0283    2.1925853    17.144161   0.16594967 
   34400   -943.35276    43.774561   -899.57819     1567.846   -275.92977    2.1741195    14.837202   0.14996961 
   34500   -944.27619    46.718979   -897.55721    1673.3044   -8316.2867    2.1521143    17.589541   0.14128634 
   34600   -936.12703      47.2475   -888.87953    1692.2341    1623.2378    2.1657491    15.226019   0.15471404 
   34700   -947.36659    50.380244   -896.98634    1804.4376     7968.804    2.1956925    7.4997633   0.16757585 
   34800   -941.79824    43.218951   -898.57929    1547.9461   -3985.9502    2.1570244    7.4801467    0.1952349 
   34900   -939.78839    48.161338   -891.62705    1724.9645   -7014.6771    2.1442646    5.2265642   0.20319134 
   35000   -947.38405     49.82366   -897.56039    1784.5028    6402.4307    2.1934501    6.0444126    0.2009718 
   35100   -947.21501    47.826551   -899.38845    1712.9736    96.494719     2.175906    6.8709908   0.16383055 
   35200   -945.78456    48.389615   -897.39495    1733.1405   -8429.7228    2.1520914    9.1998308   0.15522193 
   35300     -943.828    51.738506    -892.0895    1853.0857   -2385.1667    2.1631783    4.6179411   0.16851761 
   35400   -947.98671    46.038177   -901.94853    1648.9206    7687.1585     2.199887    4.1256502   0.17116595 
   35500   -944.68195    45.483292   -899.19866    1629.0466   -4980.2939    2.1588268    5.5910372   0.19805133 
   35600   -941.75986     46.74938   -895.01048    1674.3933   -6337.0172    2.1523765    6.2942801   0.18329478 
   35700    -948.1801    46.433625   -901.74648    1663.0841    4503.8804     2.191226    6.5158857   0.18195856 
   35800   -943.50461    42.136848   -901.36776    1509.1891    4403.5642    2.1861321    8.1682012   0.18723397 
   35900   -944.47854    49.076563   -895.40198    1757.7445   -6172.2069    2.1569362    8.4426812   0.18959112 
   36000   -943.45937    45.153879   -898.30549    1617.2482   -2161.2295    2.1657628    6.4624531   0.17729503 
   36100   -945.90275    42.471846    -903.4309    1521.1875    4701.3936    2.1866673    7.1521942   0.17856185 
   36200   -939.98375    45.928184   -894.05556     1644.981   -185.31127    2.1588602     5.130345   0.16098231 
   36300   -942.62387    45.445194   -897.17867     1627.682    165.41219    2.1684559     4.576065   0.18748975 
   36400   -945.66704    43.738617   -901.92842    1566.5586    3342.0378    2.1853301    5.7275995   0.17420883 
   36500   -941.73781    49.173609   -892.56421    1761.2203    2994.5259    2.1685155    4.4440577   0.17977035 
   36600   -944.80742    48.529886   -896.27754    1738.1645   -1568.0102    2.1689344    6.6848824   0.17285642 
   36700   -949.16393    47.905365   -901.25857    1715.7964   -3638.6142    2.1715146    7.9952451   0.17429543 
   36800   -940.84255     48.18297   -892.65958    1725.7393   -583.23197    2.1632163    7.1265675    0.1860911 
   36900   -942.76255    47.375631   -895.38692    1696.8233    2807.5063    2.1766908    6.3195505   0.18113456 
   37000   -946.53655    45.906959   -900.62959    1644.2208   -4649.2256    2.1669647    5.6741715   0.16213185 
   37100   -943.68303    50.262165   -893.42086    1800.2085   -3524.1887    2.1592209    3.6392978   0.17138347 
   37200   -940.91361     45.53068   -895.38293    1630.7438    6430.4628    2.1828903    5.4021697   0.19486931 
   37300   -946.46422     45.96019   -900.50403    1646.1273    2288.3711    2.1843005    5.6896327   0.16855795 
   37400   -941.62074     46.03985   -895.58089    1648.9805   -5401.0599    2.1499951    6.2761565   0.18550664 
   37500   -942.07643     48.56188   -893.51455    1739.3104   -3565.1074    2.1593873    7.4486419   0.17964549 
   37600   -944.87839    43.288617   -901.58978    1550.4413    12001.215    2.2031377    6.3673559   0.18390487 
   37700   -945.67744    50.211502   -895.46594    1798.3939   -3239.5531    2.1676854    6.1622081   0.17784416 
   37800   -941.44494    45.945651   -895.49929    1645.6066   -13070.732    2.1338664    5.4208864   0.19225058 
   37900   -947.53321    44.745028   -902.78818    1602.6046    3788.0862    2.1869222     4.664402   0.17454383 
   38000   -943.86777    46.734927   -897.13285    1673.8756    12506.319      2.20107    3.5661147   0.17766862 
   38100   -942.58503    47.225033      -895.36    1691.4294   -7376.1997    2.1449975    7.0310926   0.16578496 
   38200   -946.78909    45.397305   -901.39178    1625.9668   -10608.249    2.1524824    6.2835718   0.16368552 
   38300    -945.2913    46.145854   -899.14545    1652.7771    8777.0133    2.1950987    3.6417116   0.16748222 
   38400   -940.58395    48.766632   -891.81732    1746.6439    4389.8916    2.1693547    7.5659007   0.17829463 
   38500   -944.86584      45.7669   -899.09894    1639.2044   -5081.0767    2.1582029    6.6156877   0.18578921 
   38600   -942.09255    43.711549     -898.381    1565.5891   -1219.9495    2.1652661    2.8068666   0.17969851 
   38700   -937.23744    47.677997   -889.55944     1707.653    2957.2738    2.1637489    8.3464359   0.18881563 
   38800   -942.98203    44.430984   -898.55105    1591.3567    4478.5489    2.1765151    4.5972284   0.16181429 
   38900   -945.47895    45.817976   -899.66097    1641.0338   -4327.8247    2.1605175    4.9006597    0.1443873 
   39000    -942.3706    49.939694   -892.43091    1788.6587    43.013848    2.1622624    4.5959237   0.16201147 
   39100   -946.62858    48.608787   -898.01979    1740.9905    2713.9879    2.1813251    5.1836252   0.15988298 
   39200   -944.94355    44.130646    -900.8129    1580.5997   -2689.2452    2.1661527    5.1244465   0.15281081 
   39300   -944.94519    48.004353   -896.94084    1719.3418   -2395.0842    2.1662335    7.1683177   0.17415613 
   39400    -941.7581     48.03436   -893.72374    1720.4166    7119.0477    2.1785353    4.9137164   0.15802876 
   39500   -947.14248    43.149691   -903.99279    1545.4654    3354.5703    2.1838279    5.5544883   0.14716528 
   39600   -948.42637    47.881281   -900.54509    1714.9338   -12517.272    2.1504395    4.2197235   0.14851295 
   39700   -943.02542    46.282559   -896.74286    1657.6734    1630.0359    2.1739203    5.2262504    0.1339122 
   39800    -949.4365    51.475525   -897.96098    1843.6666    13258.492    2.2141785    5.1651759   0.14872714 
   39900    -948.8175    42.883056   -905.93445    1535.9156   -6008.2987    2.1687957     5.261257   0.13210843 
   40000   -944.10985    45.163236   -898.94661    1617.5833   -18441.446    2.1230111     5.471856   0.15925043 
   40100   -945.04984    49.646804   -895.40304    1778.1685    10732.158    2.1992116    3.5476189   0.15781826 
   40200   -945.88173    45.704416   -900.17732    1636.9664    9774.4766    2.2019745    4.8796559   0.15499692 
   40300   -946.36044    45.096339    -901.2641    1615.1873   -10069.085    2.1523625    5.9044125    0.1569513 
   40400   -940.88217    49.161352   -891.72081    1760.7813   -5862.2428    2.1453707    5.9664118   0.17555721 
   40500   -947.49498    50.590538   -896.90444    1811.9696    7508.4883     2.193329    4.5529546   0.15696702 
   40600   -946.17079    45.952258   -900.21853    1645.8432    151.71606    2.1784173     4.947679   0.16611108 
   40700   -939.89753    47.219142   -892.67839    1691.2184   -7270.3132    2.1428689    3.8395188   0.16205145 
   40800    -942.8094       48.862    -893.9474    1750.0596   -1263.3356      2.16454    5.6455212   0.13849865 
   40900    -946.4337    47.269248   -899.16445     1693.013      4722.68    2.1919015    6.7793385   0.16193581 
   41000   -941.25308    42.762872    -898.4902     1531.611    1108.1073    2.1711025    6.0881637   0.16346275 
   41100   -939.82262    49.839736   -889.98289    1785.0786   -10291.469    2.1416373    5.3905652   0.18128438 
   41200   -946.39242    46.522943   -899.86948    1666.2831    4805.7018    2.1913626    5.0689454   0.16112058 
   41300   -945.33623    45.988233     -899.348    1647.1317    2625.7948    2.1829574    5.8359168    0.1591918 
   41400   -943.11456    46.320733   -896.79383    1659.0407   -7266.1955    2.1518739    6.3427239   0.16587373 
   41500   -938.12231    48.965012   -889.15729    1753.7492   -442.20952    2.1550622    5.7840858   0.17699356 
   41600   -948.19062    49.151215   -899.03941    1760.4183    10776.183    2.2048557    6.3014143   0.16927517 
   41700    -944.1491      44.8555    -899.2936    1606.5613   -6634.1275    2.1537816    4.5296576   0.14979647 
   41800   -945.32706    47.406158    -897.9209    1697.9167   -9657.1379    2.1492834    5.6407354   0.15316682 
   41900   -943.58023    50.496135   -893.08409    1808.5884    11536.554    2.2008785    5.5588954   0.15169717 
   42000   -939.13367    50.992603   -888.14107    1826.3701    2371.1171    2.1628194    5.4732635   0.16065761 
   42100   -942.17496    44.387376   -897.78759    1589.7948   -6719.5274    2.1496025    6.3048591   0.15564646 
   42200   -944.98821    46.746431   -898.24178    1674.2876    2081.5109     2.177855    4.8181247   0.15307993 
   42300   -944.89144    47.354408   -897.53703    1696.0632    4276.3794    2.1854232    5.2406928   0.14880504 
   42400   -938.09499    51.297526   -886.79747    1837.2913   -2598.3808     2.151021    4.9570779   0.16208423 
   42500   -938.04255    42.986414   -895.05614    1539.6174    1339.4121     2.167182    5.7743154   0.17125461 
   42600   -942.98434    44.597125   -898.38722    1597.3073    1149.8133    2.1721155    5.7537773   0.17712659 
   42700   -946.13925    47.012189   -899.12706    1683.8061    1681.5154    2.1773402    4.5254273   0.14121525 
   42800   -938.37715    48.582164   -889.79499    1740.0369    3196.2525    2.1631954    4.9562136   0.13434999 
   42900   -939.15342    45.210298   -893.94312    1619.2689    2708.9399    2.1656452    5.1055354   0.14193418 
   43000   -944.96423    45.803639   -899.16059    1640.5203   -3737.1735    2.1628683    5.1385718   0.13231508 
   43100   -947.51751      48.9593   -898.55821    1753.5446   -1818.3086      2.17229    5.4316798   0.13960345 
   43200   -940.50867    52.025133   -888.48354    1863.3516    3515.3659     2.170773    5.5473186   0.16393328 
   43300   -943.11961     46.76684   -896.35277    1675.0186    2050.8643    2.1719653    5.2720288   0.14985315 
   43400   -943.75802    43.995357   -899.76266    1575.7541   -7135.4196    2.1514751    3.6590096   0.16014228 
   43500   -942.74274    48.230939   -894.51181    1727.4573    4638.4457    2.1772024    4.4007371   0.16791831 
   43600    -942.1257    53.407009   -888.71869    1912.8454    10756.369    2.1893414    5.4082224   0.15929356 
   43700   -947.22629    47.952923   -899.27337    1717.4998   -6319.4245    2.1620649    6.7251059   0.14703992 
   43800    -946.0401    47.065549   -898.97455    1685.7173   -10497.027    2.1447225    5.4430767   0.12865341 
   43900   -945.34485    50.095454    -895.2494    1794.2375    6749.3037    2.1910798    6.1639994   0.13785447 
   44000   -944.43884     41.25511   -903.18373    1477.6084    10261.471    2.2000049    3.7480102   0.16570986 
   44100   -948.01655    45.057512   -902.95904    1613.7967   -10076.102    2.1564306    6.0692864   0.14522878 
   44200   -944.23922    46.557267   -897.68195    1667.5125   -3455.5872     2.168085    5.1855417   0.15986881 
   44300   -940.20141    43.774003   -896.42741     1567.826    8222.1393    2.1870866    5.7044296   0.18279143 
   44400   -947.48679    42.352333   -905.13446     1516.907   -467.35533    2.1796935    5.0598295    0.1556441 
   44500   -946.51903    45.033742   -901.48529    1612.9453   -5067.7482    2.1654811    5.5724927   0.16582291 
   44600   -945.51515    49.082345   -896.43281    1757.9516    2366.7175    2.1787123    5.2189008   0.15988041 
   44700   -941.01513    41.981442   -899.03369     1503.623    4546.6912    2.1803389    6.4161644   0.16547503 
   44800   -949.95718    43.138117   -906.81907    1545.0509   -2277.1918    2.1814123    6.4888137   0.13291822 
   44900   -944.53073    47.065588   -897.46514    1685.7187    -2760.138    2.1658897    6.9664959   0.14382419 
   45000   -942.82382    46.005243   -896.81858     1647.741    6037.9271     2.189013    5.5273622   0.15613514 
   45100   -949.72406    47.575852   -902.14821    1703.9945   -913.22721    2.1824001    5.4995822   0.16525351 
   45200   -947.37308    46.143252   -901.22983    1652.6839   -6342.1014    2.1685279    3.8032228   0.17070913 
   45300   -940.68135    46.455493   -894.22586    1663.8673    586.71913    2.1686484    5.7265311   0.18661594 
   45400   -943.29735    45.721175   -897.57618    1637.5667    6913.5266      2.18603    4.3958266   0.17069036 
   45500   -945.21161    44.104077   -901.10753    1579.6481   -287.24841    2.1759081    5.9316158   0.15912531 
   45600   -941.98051    50.623587   -891.35692    1813.1533   -9485.7065    2.1434583    6.8496851   0.15633766 
   45700    -943.6902    48.955622   -894.73458    1753.4129    11077.636    2.1993771    6.1928403   0.13285904 
   45800   -948.90388    50.204609   -898.69927     1798.147     2439.013    2.1903064    6.8851341   0.13776827 
   45900   -943.48204    44.669206   -898.81283     1599.889   -13267.969    2.1424549    6.6504517   0.15822767 
   46000   -938.38875    49.115205   -889.27355    1759.1285   -3724.1909    2.1497331    4.7339728   0.18072374 
   46100     -943.077    47.278241   -895.79876    1693.3351     14452.82    2.2059458    8.8049936   0.20967501 
   46200   -940.47092    41.243718    -899.2272    1477.2004     390.9226    2.1661385    8.1200043   0.19982417 
   46300    -946.0566    50.689226   -895.36738    1815.5043   -8847.2561    2.1498113    11.041249   0.16687387 
   46400   -938.00622    48.535554   -889.47066    1738.3675     6529.397    2.1732986    7.5619174    0.1919304 
   46500   -946.82498    47.730771   -899.09421    1709.5431    2537.8401    2.1891505    8.5638527   0.17397302 
   46600   -946.78381    48.104186   -898.67963    1722.9175   -13285.427    2.1480777    11.533131   0.16594658 
   46700   -947.42042    50.476922    -896.9435    1807.9003   -2150.5478    2.1678029    8.9386021   0.16981194 
   46800   -944.74558    49.558281    -895.1873    1774.9979    10412.354    2.1935814    6.4840951   0.16106547 
   46900   -938.22053    53.374765   -884.84577    1911.6905   -4657.0665    2.1432058     19.82517   0.18003014 
   47000   -943.47647    48.328957   -895.14751     1730.968   -1142.2833    2.1659371    23.243796   0.15618519 
   47100   -943.93087     46.32333   -897.60754    1659.1337    3663.4998    2.1807565    27.824418   0.18448393 
   47200   -945.30449    44.910926   -900.39357    1608.5465    1694.3145    2.1808152    27.976677   0.16693553 
   47300   -946.14967    50.139554   -896.01012     1795.817    -2313.307    2.1704331    29.515535   0.15370449 
   47400   -941.61797    49.354668   -892.26331    1767.7052   -3255.9757     2.163105     28.73277   0.15054045 
   47500    -946.5405    48.186787   -898.35371     1725.876   -4367.9665    2.1723868    28.582514   0.13471808 
   47600   -945.65615    46.109695   -899.54646    1651.4821    3104.6847    2.1854551    28.964634   0.16127169 
   47700   -939.91751    50.252507     -889.665    1799.8626    1838.3244    2.1713917    27.990525   0.16242021 
   47800   -945.82134      49.0954   -896.72594    1758.4192   -4608.3034    2.1643747    28.991293   0.17211693 
   47900   -944.88111     44.34605   -900.53506    1588.3147   -4215.7643    2.1596848    26.943812   0.15398032 
   48000   -940.79045    46.854584   -893.93587    1678.1613    10293.296     2.188344    28.454972   0.15618209 
   48100    -941.7586    47.528558   -894.23004    1702.3006    4635.6501    2.1808551    28.106367   0.15981824 
   48200   -944.57206    42.686089   -901.88598    1528.8609   -6854.9175    2.1542393     28.97323   0.14208506 
   48300   -942.14886    43.981667   -898.16719    1575.2638     1664.395    2.1727766    24.105484   0.13575847 
   48400   -942.57108    49.638449   -892.93263    1777.8692    8043.0549    2.1894626    29.348643   0.15417752 
   48500   -944.48243    43.828667   -900.65376    1569.7839    -2880.141    2.1651247    25.600137   0.13654376 
   48600   -945.17898    43.628626   -901.55036    1562.6191   -9772.7518    2.1493836    30.790239   0.14708862 
   48700   -943.79856    48.641556   -895.15701    1742.1641    5801.3017    2.1831119    27.407472    0.1620387 
   48800   -945.50622     45.80121   -899.70501    1640.4332    6218.0853    2.1902031    28.022292   0.16109147 
   48900   -948.76049    43.503459   -905.25703    1558.1361   -6970.5513    2.1656389    26.476557   0.14659883 
   49000   -943.88136    46.845769    -897.0356    1677.8456    -3794.664    2.1569898    25.937692   0.14160656 
   49100   -943.08171     46.11002   -896.97169    1651.4937    5768.8109     2.185564    26.762988   0.14702034 
   49200   -947.97075    43.210367   -904.76038    1547.6387     4134.706    2.1879272    26.471541    0.1290606 
   49300   -943.18732    47.047841   -896.13948     1685.083   -5949.7025    2.1501252    24.823557   0.15271272 
   49400   -944.36301    47.901161   -896.46185    1715.6459    1073.3079    2.1727339    25.264181   0.15737473 
   49500   -947.39186    46.142224   -901.24964    1652.6471    3829.9457    2.1895767    28.146018    0.1685278 
   49600   -944.26063     47.18922   -897.07141    1690.1467   -2826.0899    2.1672974    25.239015   0.14660522 
   49700   -941.09593    47.749894   -893.34604     1710.228   -1594.4001    2.1582651    31.482201     0.160112 
   49800   -945.10813    46.044469   -899.06366    1649.1459   -793.67666    2.1743452    27.949299   0.15997455 
   49900   -944.83893     44.01957   -900.81936    1576.6214    1941.7871    2.1817907    26.719492    0.1594521 
   50000   -943.10737    52.363756   -890.74362    1875.4799   -3174.7034    2.1588958    26.876526   0.17402165 
   50100   -946.74935    49.093164   -897.65618    1758.3391    -525.6986    2.1761544    30.625126   0.14013365 
   50200   -945.54606    45.391849   -900.15421    1625.7714     577.8834    2.1771003    27.726157   0.13748642 
   50300   -940.89487    48.503141   -892.39173    1737.2066   -187.57946    2.1665323    28.248796   0.15182392 
   50400   -944.35013     48.04508   -896.30505    1720.8005   -1829.9965     2.170255    23.884003   0.15571106 
   50500   -944.53428    44.046526   -900.48775    1577.5868     1199.139    2.1751362     27.70043    0.1548567 
   50600   -945.19224    49.944149   -895.24809    1788.8183   -1123.5251    2.1722865    28.114632   0.14838343 
   50700   -943.42518     49.65021   -893.77497    1778.2905   -2586.2686    2.1643482    26.945362   0.14668453 
   50800   -945.07473    42.868038   -902.20669    1535.3777    4088.1836    2.1820273    26.857792   0.16012383 
   50900   -945.24347    47.959003   -897.28447    1717.7176    2532.2809    2.1770007    26.293286   0.15399617 
   51000   -942.58811      47.1113   -895.47681    1687.3559   -4103.4321    2.1576019    25.017395   0.14864641 
   51100   -950.08037    44.728015   -905.35235    1601.9953     718.1361    2.1873673    25.328918    0.1477138 
   51200   -945.61316    46.874391   -898.73877    1678.8707    3369.9116    2.1828829    25.988303   0.13415362 
   51300   -946.24859    50.129258   -896.11933    1795.4482   -4399.6441    2.1626036    29.565041   0.13851737 
   51400   -948.32067      44.7384   -903.58227    1602.3673   -6255.9824    2.1679193     28.48281   0.14487533 
   51500   -945.57655    44.501401   -901.07515    1593.8788    6020.2949    2.1879853    29.245083   0.17372546 
   51600   -946.34621    51.505051   -894.84116    1844.7241    6230.0866    2.1868073     24.56227   0.14664219 
   51700   -947.85722    47.154675   -900.70255    1688.9095   -8265.7647    2.1555775    26.907203   0.15371363 
   51800   -945.49619     44.84312   -900.65307    1606.1179   -3501.9906     2.163519    26.730984     0.151748 
   51900   -942.40418     50.36655   -892.03763    1803.9472     6691.684    2.1819866    27.329135   0.16107381 
   52000   -947.50727      49.9276   -897.57967    1788.2256   -591.17121    2.1747739    26.801456   0.15314402 
   52100   -952.06441    50.233028   -901.83138    1799.1649   -12483.629    2.1546986    24.410505   0.13846859 
   52200   -939.76171     46.28949   -893.47222    1657.9217    3596.2096    2.1719798    25.208412   0.17012186 
   52300   -944.18454    49.696812   -894.48773    1779.9596    7651.2289    2.1920755    27.365748   0.16684675 
   52400   -944.31578    43.529012   -900.78677    1559.0513   -4467.6177    2.1612509    28.462095   0.15944283 
   52500   -943.02969    46.578998   -896.45069    1668.2908   -5669.9375    2.1550771     26.69662   0.15335165 
   52600   -939.33627    49.407774   -889.92849    1769.6073    8561.7254    2.1783106    27.273658    0.1582085 
   52700   -943.98175    43.831267   -900.15049     1569.877    7140.4345    2.1912019    26.462333   0.15221857 
   52800    -944.7031    45.429143   -899.27396    1627.1072   -9288.3689    2.1531248    25.377401   0.16032531 
   52900   -942.06583    48.624488   -893.44134    1741.5528    -569.9056    2.1593501    29.089225   0.15415758 
   53000   -947.11987    44.287202   -902.83266     1586.207    7286.6266    2.1975348    26.708624   0.16625451 
   53100   -945.88211    45.776266   -900.10584    1639.5398   -1244.9014    2.1737903     28.76794    0.1733713 
   53200   -944.80918    49.151631   -895.65755    1760.4332   -5313.2361     2.160583    24.998609    0.1578806 
   53300   -948.25171    45.791405    -902.4603     1640.082   -749.38597    2.1808106    25.614681   0.15411703 
   53400   -946.01703    44.553341   -901.46369    1595.7391    4698.8727    2.1864659    26.761795   0.15955044 
   53500   -942.87045    47.722007   -895.14844    1709.2292   -1486.9715    2.1642927     28.06986    0.1572188 
   53600   -947.60617    46.889784   -900.71639     1679.422   -4314.6568    2.1692564    28.333926   0.14288235 
   53700   -947.10516    44.973422   -902.13174    1610.7849     2895.401    2.1884395     26.18601   0.15539799 
   53800   -940.53627       47.148   -893.38827    1688.6704    1184.1077    2.1666176     26.74224   0.15131639 
   53900   -944.80416    45.042619   -899.76154    1613.2633   -2551.3911    2.1679691    26.004259   0.17267446 
   54000   -941.76971    40.960224   -900.80949    1467.0467    4392.2266    2.1811119     27.67798   0.17933962 
   54100   -938.57913    47.135843   -891.44329     1688.235    3923.6699    2.1710201    26.435249   0.16871302 
   54200   -945.72673    47.096782   -898.62995    1686.8359    -606.6122    2.1692471    27.514799   0.16541765 
   54300   -946.37677    45.826231   -900.55054    1641.3294   -5307.8337     2.166319    29.827368   0.16090046 
   54400    -941.6268    50.127244   -891.49955    1795.3761    1818.0057    2.1681164    26.274241   0.15700004 
   54500   -946.18567    48.178651   -898.00702    1725.5846    4153.8449    2.1858715    28.608216   0.15067825 
   54600   -945.80791    44.439927   -901.36798     1591.677   -7542.8612    2.1591648    27.163202   0.14455541 
   54700   -944.35964    50.079466   -894.28017    1793.6649   -3707.4777    2.1591159    29.550107   0.16810943 
   54800   -946.07519    47.639056   -898.43614    1706.2582    9492.8324    2.1976057    23.153862   0.15498702 
   54900   -948.60817     46.14991   -902.45826    1652.9224   -3397.3267    2.1772174    27.497118   0.14283052 
   55000   -942.96865    46.130687   -896.83797    1652.2339   -5901.1364    2.1517366    27.205623   0.15922755 
   55100   -944.63488    49.796401   -894.83848    1783.5265    2051.3387    2.1773344    29.269539   0.15925816 
   55200   -952.38639    48.837048   -903.54934     1749.166    8573.4723    2.2081286    26.394416   0.15027793 
   55300   -944.17058    47.217756   -896.95283    1691.1688   -7775.3152    2.1503535    25.629137   0.15679408 
   55400   -943.54667    47.265908   -896.28076    1692.8934   -7231.2013    2.1534658    27.995965    0.1582177 
   55500   -948.78069    46.545791    -902.2349    1667.1014     9340.583    2.2026497    23.640182   0.15646048 
   55600   -946.48022    46.849283   -899.63094    1677.9714    6680.9322    2.1899164     28.20941   0.15808332 
   55700   -943.19518     48.11041   -895.08477    1723.1404   -10098.377    2.1394972    27.607835   0.15566165 
   55800   -947.55229    46.915958   -900.63633    1680.3595   -4668.7052    2.1640934    30.447708   0.13759178 
   55900   -942.96176    43.205492   -899.75627     1547.464    14731.573    2.2040716     29.97332   0.13969882 
   56000   -941.49165    49.715992   -891.77566    1780.6465   -2557.0778    2.1578291    31.408222   0.15488716 
   56100   -941.56751     41.33641    -900.2311    1480.5203   -4280.4263    2.1585177    28.595455   0.17498153 
   56200   -945.74099    46.324438   -899.41655    1659.1734    1648.4731    2.1815821    26.166367   0.16224556 
   56300   -941.51427    49.914936   -891.59933     1787.772    1424.6698    2.1701693    29.026484   0.16085458 
   56400   -944.76069    47.574824   -897.18587    1703.9577   -2592.4611    2.1664678    38.397674   0.18816566 
   56500   -948.75654    49.002298   -899.75424    1755.0846   -735.74471    2.1759124    37.979803   0.16251304 
   56600   -937.77562    45.721928   -892.05369    1637.5937     5574.529    2.1714854    35.523769   0.19198813 
   56700   -940.93589    42.168327   -898.76757    1510.3165   -1187.6879    2.1644922    31.438095   0.16969763 
   56800    -945.4598    44.727616   -900.73218     1601.981   -5869.2407    2.1652592    32.057465    0.1625435 
   56900   -936.55285    44.181059   -892.37179    1582.4053    4276.4507    2.1684551    33.329934   0.17800074 
   57000   -944.41531    46.055002   -898.36031    1649.5232    6104.2058    2.1804246    48.905576    0.1581381 
   57100   -945.20025    44.386653    -900.8136    1589.7689   -2308.3112     2.163379    51.991608   0.16458398 
   57200   -939.45576    47.106238   -892.34952    1687.1746   -2781.5405    2.1512936    56.836924    0.1898822 
   57300   -943.89654    45.714564   -898.18197    1637.3299      8101.48    2.1901727    54.486094   0.17704047 
   57400   -946.06199    46.032337   -900.02965    1648.7114    2767.9303    2.1755543    53.550655   0.17483126 
   57500   -939.80658    46.140502   -893.66607    1652.5855   -5132.4294    2.1483467    51.420739   0.17271366 
   57600   -942.23011    47.243864   -894.98624    1692.1039    165.35295    2.1642204    54.128931   0.15786244 
   57700   -944.26864    44.138012   -900.13063    1580.8635    11458.055    2.1994266     56.05908   0.17051857 
   57800   -942.72404    48.171085   -894.55296    1725.3136   -182.31873    2.1696788    39.126394   0.16977089 
   57900   -938.49126    45.281849   -893.20942    1621.8316   -12930.423    2.1272352    49.607456   0.19100368 
   58000   -947.77645    44.864245    -902.9122    1606.8746    8435.2589    2.1992712    44.142629   0.18070899 
   58100   -945.81359    49.949191    -895.8644    1788.9989     10418.72    2.1981736     48.15867   0.18415206 
   58200   -944.68432    48.693599   -895.99072    1744.0281   -11518.071    2.1441598    50.705223   0.17453836 
   58300   -948.04983    44.486256   -903.56357    1593.3364   -8138.9851    2.1606234    52.520471   0.16001696 
   58400   -948.50415    49.572339   -898.93181    1775.5014    5872.4528    2.1923914    53.068608   0.15329646 
   58500   -940.60378    46.616023   -893.98775    1669.6169    5598.7578    2.1717053     44.70081   0.18099486 
   58600   -947.25941    46.641541   -900.61787    1670.5308    -7977.118     2.158672    49.837458   0.17617877 
   58700   -944.54073    43.666758   -900.87398    1563.9849    580.50525    2.1744211    49.672424   0.18883897 
   58800   -940.72278      48.0156   -892.70718    1719.7447    3843.8509    2.1700382    55.046585    0.1901485 
   58900   -947.59837    48.415015   -899.18335    1734.0503   -1908.4522    2.1733272     48.38958   0.17938364 
   59000   -945.17423    46.025956   -899.14827    1648.4828   -3997.1213    2.1616171    45.893106    0.1917793 
   59100   -939.84275    48.540537   -891.30221     1738.546    3235.9792    2.1650429    71.919829   0.17590524 
   59200    -945.4232    47.422647   -898.00055    1698.5072    3191.0806    2.1830629    67.768634   0.17256458 
   59300   -944.81399    45.407995   -899.40599    1626.3497    -6500.078    2.1612035    73.622991   0.17461311 
   59400    -939.0787    47.162831   -891.91587    1689.2016   -6719.8087    2.1452135    86.787252   0.16769261 
   59500   -947.33999     47.73163   -899.60836    1709.5739    11343.458    2.2053597    81.667675   0.13929444 
   59600   -948.09575    48.789911   -899.30584    1747.4777     4635.553    2.1899909    85.193296   0.14389361 
   59700   -937.69422    43.842674   -893.85155    1570.2856   -14551.658    2.1211951    87.050884   0.15283256 
   59800   -945.71831    47.913587   -897.80472    1716.0909   -4666.2122    2.1644312    91.444972   0.15086313 
   59900   -947.29223    47.045184   -900.24704    1684.9879    18253.253    2.2225135    88.742357   0.16186164 
   60000   -942.75165    46.085493   -896.66615    1650.6152   -929.66611    2.1661366    83.679488    0.1504764 
   60100    -942.9213    46.873905    -896.0474    1678.8533    -11124.15    2.1426331    82.807049   0.15261809 
   60200   -950.76658    46.558623   -904.20795     1667.561    3133.2721    2.1933129    86.297199   0.14607929 
   60300   -945.90772    49.795605   -896.11212     1783.498    5207.5913    2.1849164    83.566581   0.15736808 
   60400   -945.23389    48.561904   -896.67199    1739.3113   -4491.9789    2.1623839    93.898805   0.15275845 
   60500   -947.83724    43.978005   -903.85924    1575.1327   -6049.3736    2.1653683    86.651354   0.15507153 
   60600    -946.0163    48.590861   -897.42544    1740.3484    4329.5838    2.1845527    83.252007   0.15333211 
   60700   -945.46012    50.607596   -894.85252    1812.5806    3208.8789    2.1795365    83.754224   0.14057986 
   60800   -947.64556    45.133527   -902.51203    1616.5192    -6618.336    2.1601428    83.264502   0.13912629 
   60900   -943.36782    46.627894   -896.73993    1670.0421   -3483.0009    2.1627779    82.217835   0.15750506 
   61000   -942.96359    49.617378   -893.34621    1777.1145    6027.8767    2.1845721    84.974956   0.16986715 
   61100   -947.20932    45.994161   -901.21516    1647.3441    2501.9741    2.1826858    79.808486   0.15939185 
   61200   -944.13379    46.966671   -897.16712    1682.1758   -6509.6837    2.1538412    81.069146   0.15985711 
   61300   -940.14648    47.142145   -893.00434    1688.4607   -599.66683    2.1617869    86.060058   0.16205804 
   61400    -945.6594    44.422303    -901.2371    1591.0458    10294.075    2.2024799     87.12866    0.1626602 
   61500   -946.58817    48.922173     -897.666    1752.2148   -2521.0734     2.166953    92.746045   0.15512558 
   61600   -941.37659    46.559889    -894.8167    1667.6064   -14901.122    2.1265351    86.143414   0.15728974 
   61700   -948.91399    45.730607   -903.18338    1637.9045    7949.2553     2.201613    86.342354   0.14500353 
   61800   -945.36985    46.837137   -898.53271    1677.5364    16884.215    2.2160054    84.678937   0.15190094 
   61900   -943.47096    47.210656    -896.2603    1690.9145   -14040.971    2.1344163    85.811986   0.15349666 
   62000   -946.41291    47.333727   -899.07918    1695.3225   -11019.043    2.1493951    81.667603   0.14808376 
   62100    -949.8395    47.212408   -902.62709    1690.9772    8503.3438    2.2058084    84.881513   0.15473112 
   62200   -942.37468     48.24844   -894.12624    1728.0842    2434.5845    2.1735733     85.04626   0.16721655 
   62300   -945.20682     46.45183   -898.75499    1663.7361   -7575.7813     2.155665    84.064993   0.15718261 
   62400    -949.2828    46.161999    -903.1208    1653.3554    -836.7646    2.1794601    87.261205   0.15000358 
   62500   -940.42068    47.121708   -893.29897    1687.7287    6506.6526    2.1784296    90.463253   0.15741901 
   62600   -941.36116    44.500284   -896.86088    1593.8388    1327.4253    2.1715967    82.931728   0.15155115 
   62700   -946.30103    43.824835   -902.47619    1569.6466   -6120.9818    2.1614643    87.541149   0.15242602 
   62800   -941.83282    47.355609   -894.47721    1696.1062    2316.8552    2.1698187    83.197009   0.14657492 
   62900   -944.36366    49.581975   -894.78169    1775.8465    5381.5981    2.1874468    82.712769   0.14586869 
   63000   -944.80371    43.394369   -901.40934    1554.2289   -2743.8985     2.167087    82.863779   0.15376739 
   63100   -943.20784    47.103232   -896.10461     1687.067   -8634.2823    2.1522023    91.524907   0.15701272 
   63200   -942.59003     50.82714   -891.76289    1820.4438    4970.3109    2.1816031    81.035879   0.17779148 
   63300   -947.96232    47.373061   -900.58926    1696.7313    5402.6597    2.1979457    86.953994   0.13943196 
   63400   -942.59793     44.53003    -898.0679    1594.9042   -10257.528    2.1495583    89.917693   0.13828245 
   63500   -943.04648     49.58501   -893.46147    1775.9552   -7534.9558    2.1537141    80.541638   0.15402347 
   63600   -948.39148    46.094939   -902.29654    1650.9536    12698.671    2.2147985    86.241088   0.15819521 
   63700   -944.29239     45.91455   -898.37784    1644.4927    2281.0781    2.1776649    85.304643   0.15254372 
   63800   -940.99834    45.396113   -895.60223    1625.9241   -7905.4727    2.1429418     87.58861   0.15061046 
   63900   -948.19532    45.136632   -903.05869    1616.6305    1079.7893    2.1846618    88.123825   0.14251696 
   64000   -946.70116    46.304742   -900.39642    1658.4679    5663.1475    2.1916235    82.347711   0.16540179 
   64100    -944.8982    49.458744   -895.43946    1771.4329   -3854.4385    2.1635984    89.588375   0.15762644 
   64200   -950.21339    48.553711   -901.65968    1739.0178   -5997.5476    2.1701324    86.832665    0.1433023 
   64300   -951.82551    50.383559   -901.44195    1804.5564   -788.45252    2.1838702    82.034178   0.14813831 
   64400   -944.34418    50.302875   -894.04131    1801.6666   -845.24653    2.1697277    87.992521   0.14396658 
   64500   -946.10723    45.688571   -900.41865    1636.3989   -3978.0553    2.1656947    81.530934    0.1514473 
   64600   -946.80933    45.258313   -901.55102    1620.9887   -1048.7563    2.1716859    83.505456   0.14274168 
   64700   -941.10466    48.527174   -892.57749    1738.0674    1325.6409    2.1640961    89.472587   0.13977621 
   64800   -945.71721    46.813569   -898.90364    1676.6923    1863.2743     2.175862    86.056172   0.13797876 
   64900   -947.93689    46.612972   -901.32392    1669.5076   -3134.9297     2.168659    87.417737   0.14314006 
   65000   -942.38405    50.528447    -891.8556    1809.7457   -1408.6555    2.1520477    87.006313   0.16118875 
   65100    -943.1079    44.642003    -898.4659    1598.9147    8050.3116    2.1878059    81.576051   0.16252639 
   65200   -947.38512    46.692223    -900.6929    1672.3461    -313.0186    2.1740927    82.333612   0.15754736 
   65300   -940.10056    46.518987   -893.58157    1666.1414   -7629.5865    2.1434417    84.244985   0.16298262 
   65400   -944.54923    47.091132    -897.4581    1686.6336    1847.0874    2.1752269    87.693499   0.14715064 
   65500   -950.45838    49.698615   -900.75977    1780.0242    6540.9249    2.1999963    83.012087    0.1408049 
   65600    -943.3316    47.115787   -896.21581    1687.5166    -5157.292    2.1582121    89.969032   0.15834502 
   65700   -943.94131    48.445371   -895.49594    1735.1375   -11329.834    2.1408281    85.905441   0.14252134 
   65800   -946.15949    42.952364   -903.20713    1538.3979    12336.319    2.2062102    87.337979   0.14237625 
   65900   -941.90384     46.44242   -895.46142     1663.399     8685.937    2.1851925    91.372232   0.14216437 
   66000   -945.01467    48.013028   -897.00164    1719.6525   -10701.382    2.1428438    93.308343   0.14073889 
   66100   -949.07388    45.737401   -903.33648    1638.1478   -4081.1625    2.1712889    83.312356     0.160134 
   66200     -944.053    44.605727   -899.44727    1597.6154    11397.536     2.203336    87.727594   0.16337124 
   66300   -942.02117    47.101554   -894.91961    1687.0069   -1912.5259    2.1651092     86.50416    0.1568328 
   66400   -946.79862    45.250445   -901.54817    1620.7068    -8769.533     2.158936    86.823375    0.1518752 
   66500   -944.44182     45.10309   -899.33873    1615.4291    3390.8163    2.1803322    83.445082   0.16047245 
   66600   -941.70563    48.965856   -892.73978    1753.7794    2022.6744    2.1740882    91.138284   0.15724699 
   66700   -946.47892    45.797424    -900.6815    1640.2976   -1105.8545    2.1734037    87.982087   0.14193627 
   66800   -944.30798    45.567371   -898.74061     1632.058     -836.708    2.1715157    90.120314   0.12978587 
   66900   -941.17961    49.581388   -891.59823    1775.8255    1182.9616    2.1654888    84.339038   0.14014585 
   67000   -946.27291    45.667495   -900.60541    1635.6441    3159.8779     2.186741    90.356856   0.16174993 
   67100   -947.67391    48.811085   -898.86283     1748.236    -2058.884    2.1697666    82.866546   0.14432561 
   67200   -942.32853    49.489515   -892.83901    1772.5349   -3815.3817    2.1555665    84.267819   0.15970395 
   67300   -947.69873    45.446456   -902.25228    1627.7272    6991.2515    2.1959982    83.008624    0.1617847 
   67400   -946.45443    47.299289   -899.15515     1694.089    295.97237    2.1751191     87.89667    0.1453566 
   67500   -939.07857    43.955136   -895.12344    1574.3136   -6718.9778    2.1453352    83.592288   0.15248207 
   67600   -948.05143    44.454785   -903.59665    1592.2092    2905.4945    2.1867395    87.654136    0.1372848 
   67700   -944.51031    44.173488   -900.33682    1582.1342    12402.902    2.2036619    81.795264   0.15253457 
   67800   -944.00307    48.316131   -895.68694    1730.5086   -9769.5555    2.1467828    84.117707   0.16018704 
   67900   -946.74766    47.583107   -899.16455    1704.2543   -14090.168    2.1414387    80.179182   0.14411905 
   68000   -946.24868    44.532153   -901.71652    1594.9802    12634.484    2.2081887    83.273764   0.15375319 
   68100   -941.98724    49.401386   -892.58586    1769.3785    7700.5778    2.1794949    84.420562   0.15204353 
   68200   -945.27404    47.400148    -897.8739    1697.7014   -9272.8506    2.1461759    85.416391   0.15238148 
   68300   -946.90658    45.311447   -901.59513    1622.8917    -2031.812    2.1707624    83.714677   0.14685023 
   68400   -943.61963    49.779318   -893.84032    1782.9146    11310.016    2.1932162    84.173318   0.14222533 
   68500   -947.19879    52.335495   -894.86329    1874.4676   -3570.9663    2.1670455    87.050171   0.13755539 
   68600   -946.31296    44.377089   -901.93587    1589.4264   -9007.9687    2.1561002    85.102661   0.14081725 
   68700   -943.50276    47.425875   -896.07688    1698.6229    4257.6758    2.1780027    83.331655   0.14665382 
   68800   -940.36036    47.640804   -892.71956    1706.3208     6446.122    2.1772801     84.59835   0.16588389 
   68900   -943.87891    41.940444   -901.93847    1502.1546    486.38794    2.1738922    82.969947   0.16000812 
   69000   -943.37476    45.458714   -897.91604    1628.1663   -2209.0573    2.1643755    84.091729   0.15723176 
   69100   -938.52835    45.185449    -893.3429    1618.3789    4038.5551    2.1713104    93.991994   0.15134931 
   69200   -946.72374    43.796013   -902.92773    1568.6143    5402.0005    2.1912495    84.114445   0.14715794 
   69300   -942.47043    44.125201   -898.34523    1580.4047   -3410.6793    2.1652845    86.569358   0.15097498 
   69400    -941.8217    46.888285   -894.93342    1679.3683   -2384.6974    2.1627466    84.675373   0.16082335 
   69500   -949.14274    45.800014   -903.34273    1640.3904    5996.5577    2.1978693    85.329028   0.15194631 
   69600   -945.16544     46.45835   -898.70709    1663.9696    698.25215    2.1780956    92.308544   0.15499522 
   69700   -942.75232    47.572579   -895.17974    1703.8773    -4779.421    2.1576639    83.629086   0.15882158 
   69800   -948.72226    46.385739   -902.33652     1661.369    -2711.097    2.1763933     82.16398   0.17336292 
   69900   -948.56811     49.19188   -899.37623    1761.8747    10802.931    2.2073567    89.451961   0.17406499 
   70000   -941.99977    48.618495   -893.38127    1741.3382   -623.47189    2.1625306    89.762625   0.15558108 
   70100   -946.30937    45.207307   -901.10207    1619.1618   -14846.345    2.1383301    89.816174   0.12587762 
   70200   -943.71695     44.74285    -898.9741    1602.5266    7606.2682     2.189496    87.276098    0.1372168 
   70300   -943.67478    52.874043   -890.80074    1893.7565    12164.997    2.1968982    85.852054   0.16118387 
   70400   -942.27566    43.752078   -898.52358    1567.0408   -6606.2093    2.1564956    82.623133   0.15737069 
   70500   -944.47697    43.084536   -901.39243    1543.1318   -7377.6581    2.1546423    85.474069   0.15098396 
   70600   -943.94539    51.037441   -892.90795     1827.976    6345.3898    2.1886613    84.581833   0.16308467 
   70700   -940.54286    42.863676   -897.67918    1535.2214    7027.6488    2.1875391    86.770203   0.19083355 
   70800   -945.28388    42.504682    -902.7792    1522.3636   -6618.0775    2.1640317    86.343108   0.16860877 
   70900   -944.72743    49.755336   -894.97209    1782.0557   -3293.2823    2.1638155    83.939535   0.15521634 
[...]
  186800   -938.45192    51.615524   -886.83639    1848.6809   -3762.0431    2.1488344    168.88219   0.15938416 
  186900   -951.23837    53.819918   -897.41845    1927.6343    4981.0193    2.1959448    156.17319    0.1442138 
  187000   -947.98842    49.473378   -898.51504     1771.957   -5294.4519    2.1651116    170.14777   0.13931685 
  187100   -941.20218    43.531409   -897.67078    1559.1372   -4095.5663    2.1563545    160.57048   0.15330463 
  187200   -949.32186     46.69916    -902.6227    1672.5946     1679.573    2.1862307    164.02959   0.15177186 
  187300    -953.0769    47.775527   -905.30137    1711.1461    2732.8958     2.194547    165.96246   0.14235926 
  187400   -945.14483     45.84088   -899.30395    1641.8541   -1363.9657    2.1670894    165.01433   0.14725913 
  187500   -942.24487    45.048785   -897.19609    1613.4841    -1104.984    2.1631899    165.96733   0.15996827 
  187600   -944.45956    44.500682   -899.95888     1593.853    1885.0883    2.1790869    166.03582   0.16234685 
  187700   -947.98474    42.248634   -905.73611    1513.1929    3931.4055    2.1921241    157.28154   0.14688914 
  187800   -944.23042     45.81095   -898.41947    1640.7821   -3426.1794    2.1659504    157.69754   0.16410989 
  187900   -942.96095    46.073348    -896.8876    1650.1802   -1647.8861    2.1653197    167.50452   0.14318219 
  188000   -946.66614    42.715408   -903.95073     1529.911    1752.8258    2.1857134    164.89382   0.14702781 
  188100   -948.47618    45.693886   -902.78229    1636.5893    561.98613    2.1825036    163.45972   0.16114904 
  188200   -943.47343    46.288049   -897.18538    1657.8701   -832.49311    2.1690917    163.11985   0.16341691 
  188300   -948.14724     49.29844    -898.8488    1765.6913   -3368.6218    2.1693056    165.71484   0.14890597 
  188400   -949.80085    43.220591   -906.58026    1548.0048    1570.0461    2.1882721    167.15091   0.14926548 
  188500   -940.89286    42.358751   -898.53411    1517.1368    2347.9618    2.1706415    159.46709   0.16553099 
  188600   -943.94689    46.882135   -897.06476    1679.1481    2733.8188    2.1760561    156.33447   0.17283553 
  188700   -945.02192    45.233455   -899.78846    1620.0983    -671.6203    2.1708807    159.36093   0.14889417 
  188800   -949.67336    42.972798   -906.70056    1539.1298   -4529.5131    2.1720654    166.07184   0.14089869 
  188900     -949.278     47.29902   -901.97898    1694.0794    1334.3223    2.1858847     171.0864   0.14851258 
  189000   -945.05575    47.610397   -897.44536    1705.2317    7886.7847    2.1902967     168.6015   0.14799863 
  189100    -945.0292     46.23407   -898.79513    1655.9367   -8524.8108    2.1475713    160.17247   0.14580278 
  189200   -942.52439    48.650759   -893.87364    1742.4938   -5105.1285    2.1495064    166.47713     0.151171 
  189300   -943.66433     55.42035   -888.24398     1984.956    6977.0466     2.179546    156.41327   0.15264343 
  189400   -947.28073    50.566995   -896.71374    1811.1264    1183.8486    2.1760322     159.8762   0.14893434 
  189500    -943.5079    44.536968   -898.97093    1595.1527   -7222.1369    2.1525948    152.39656   0.16128307 
  189600   -945.24381    48.137788   -897.10602     1724.121   -97.232233    2.1705706    169.08752   0.14691442 
  189700   -937.53886    50.841077   -886.69778     1820.943    6680.7126    2.1683835    154.55977   0.15442663 
  189800   -940.37302    44.617726   -895.75529    1598.0451    1835.5604    2.1702485    169.26404   0.14340079 
  189900   -941.93778    42.744216   -899.19356    1530.9428   -5789.7163    2.1511467    168.22887   0.14519734 
  190000   -944.74073    47.910988   -896.82974    1715.9978    869.34895    2.1746108    170.11673   0.13458041 
  190100   -940.10472    53.169954   -886.93476    1904.3549    10876.516    2.1851334     159.0337   0.14159022 
  190200   -942.92557    46.926531   -895.99903    1680.7382   -4645.6891    2.1542035    165.90586   0.13800413 
  190300   -945.25062     45.65937   -899.59125     1635.353   -14679.831    2.1343567    164.22486   0.13901605 
  190400   -941.00152    45.751465   -895.25006    1638.6516    14368.849    2.1927998    156.20266   0.14649904 
  190500   -938.17431    49.200017   -888.97429    1762.1662    11679.503    2.1821086    164.50882   0.16499305 
  190600   -945.33195    48.997031   -896.33492     1754.896   -13391.094    2.1324142    165.48451   0.15793447 
  190700   -944.61846    45.419147   -899.19931    1626.7491   -4633.3132    2.1553506     168.4384   0.13867448 
  190800   -943.54679    46.990716   -896.55607     1683.037    9621.2854    2.1915264    163.50133   0.14851178 
  190900   -942.95886    44.762096   -898.19677     1603.216    2740.7764    2.1736541    161.48573   0.12904894 
  191000   -949.65583    43.354954   -906.30088    1552.8172    -4070.345    2.1723923    161.01541   0.13799069 
  191100   -943.03962    43.176062   -899.86356      1546.41    2913.7919    2.1738435    163.27719   0.14590319 
  191200   -939.15337    42.856079   -896.29729    1534.9493     7997.578     2.177763    162.90878   0.15195448 
  191300    -946.2426     45.03614   -901.20646    1613.0312   -3362.2821    2.1661682    166.09675   0.14278047 
  191400   -947.82595    42.888425   -904.93753    1536.1078   -2307.2743    2.1727305    165.29984   0.14211364 
  191500   -943.98434    47.134106   -896.85024    1688.1727    2859.7232    2.1782342     168.5793   0.16543599 
  191600   -944.25242    46.247641   -898.00478    1656.4228    1715.3904    2.1730472    166.60897   0.14978946 
  191700   -949.07619    43.786579   -905.28961    1568.2765   -4787.4948    2.1696236    169.07248   0.14931954 
  191800   -946.94882    46.512002   -900.43682    1665.8912   -861.22784    2.1769738    165.63689   0.15289543 
  191900   -941.17413    45.147541   -896.02659    1617.0212     10455.79     2.192411    162.22502   0.16074896 
  192000   -947.98558    48.161235   -899.82434    1724.9608   -6690.7144    2.1587175     158.7012   0.13864925 
  192100   -944.18702    46.596796   -897.59023    1668.9282   -7812.1185    2.1488939    161.85583   0.14128952 
  192200   -940.42868    50.374078    -890.0546    1804.2168    7467.1398    2.1767998    173.92428   0.15635836 
  192300   -945.45892    48.972623    -896.4863    1754.0218    3714.7237    2.1813196    167.84168   0.15824043 
  192400   -946.59889    46.183907   -900.41499    1654.1401   -11382.733    2.1460779    166.98025   0.16034974 
  192500   -941.48189    47.115237   -894.36665    1687.4969    151.49638    2.1612656    167.14367   0.15390793 
  192600   -939.09119    49.098513   -889.99268    1758.5307    12828.974    2.1908372    162.35019   0.14924626 
  192700   -947.01869      48.2133   -898.80539    1726.8255   -1400.1123    2.1679724    149.50986   0.14702163 
  192800   -944.25799    45.508398   -898.74959    1629.9458   -9018.5914     2.146655    164.73104   0.13568222 
  192900   -943.20492    50.178163   -893.02675    1797.1998    5162.2537    2.1780331     165.8925   0.13629048 
  193000   -941.27193    51.213734    -890.0582    1834.2902    5526.7139    2.1806528    175.37418   0.16576863 
  193100    -945.2593    45.412133   -899.84717    1626.4979   -2651.0012    2.1643238    170.89281     0.161658 
  193200   -944.28316    45.398382   -898.88478    1626.0054   -2135.5069    2.1683897    167.82294   0.17748615 
  193300   -944.29026    48.160151   -896.13011     1724.922    3902.9109    2.1811908    158.65583   0.17433915 
  193400   -939.92484    50.078684   -889.84615    1793.6369    2899.1619    2.1639274    158.66786   0.15947738 
  193500   -938.52433    47.947951   -890.57638    1717.3217   -3546.7062    2.1485288    152.32221   0.17024048 
  193600    -946.6738    49.423328   -897.25047    1770.1644    -2038.632    2.1729651    157.33181   0.14188111 
  193700   -945.05825    46.706021   -898.35223    1672.8403    3300.8153    2.1786656    155.60325   0.14272477 
  193800   -943.47623    43.266402   -900.20982    1549.6456   -260.11515    2.1700213    159.18276   0.15508878 
  193900   -949.71627    40.179487   -909.53678    1439.0835   -3599.6656    2.1793326    163.55036   0.14623495 
  194000   -947.51228    43.272592   -904.23968    1549.8673    914.71403    2.1786052    165.89227   0.17013869 
  194100   -942.96699    43.945729   -899.02126    1573.9766    7328.5211    2.1835919    162.90206   0.16354488 
  194200   -944.78588    47.725343   -897.06053    1709.3487    -2402.741    2.1659702    159.60397   0.17219571 
  194300   -943.40981    48.305227   -895.10459    1730.1181   -8455.3624    2.1507322    165.17639   0.18004929 
  194400   -952.01715    46.443646   -905.57351     1663.443    5481.6116    2.2030326    156.92002   0.15894765 
  194500     -945.519     45.42888   -900.09012    1627.0978    3204.8715    2.1821089    158.96451   0.15998832 
  194600   -942.49156    45.253591   -897.23797    1620.8195   -7663.2532    2.1503258    159.13649   0.18225723 
  194700   -943.90462    49.296064   -894.60855    1765.6062   -543.62617    2.1708622     162.3565   0.17070878 
  194800   -946.51424    42.084653   -904.42958    1507.3197     14366.05    2.2176231    163.37562   0.17702085 
  194900   -947.13892    48.453999   -898.68493    1735.4465   -9183.3502    2.1555179    167.25066   0.17067466 
  195000   -943.21836    46.226465   -896.99189    1655.6643   -9582.1162    2.1450914    159.50206   0.16114223 
  195100   -947.69328    47.648971   -900.04431    1706.6133    9259.1966    2.2023175    158.75554   0.17510976 
  195200   -950.14737    44.948109   -905.19926    1609.8783    9161.9882    2.2084212    155.69224   0.16542187 
  195300   -943.84101    47.662744   -896.17827    1707.1067   -12902.065    2.1386561    160.03147   0.16845495 
  195400   -945.15743    47.393107   -897.76432    1697.4492     -4457.95    2.1626979    165.68954   0.16112081 
  195500   -948.69549    46.245288   -902.45021    1656.3385    7209.0487    2.1988082    167.56182   0.17090042 
  195600   -940.13735    47.295717   -892.84163     1693.961    1671.9314      2.16722    169.09892   0.17858308 
  195700    -945.1284    49.310933   -895.81747    1766.1388   -3328.4784    2.1632095    165.46119   0.17758739 
  195800   -945.37104    44.588722   -900.78232    1597.0063    1073.4007    2.1745412     160.1586   0.16157492 
  195900   -943.98295    48.335214   -895.64774    1731.1921    4396.7757     2.179359    163.25448   0.17639853 
  196000   -940.18448    46.813507   -893.37098      1676.69    581.76704    2.1625765    165.07836   0.16968422 
  196100   -946.65906    45.254244   -901.40482    1620.8429   -3991.0496    2.1657382    163.27125    0.1546753 
  196200   -943.56074    46.506389   -897.05435    1665.6902    3758.2307    2.1799848    158.42368   0.15572197 
  196300   -942.13056    50.821447   -891.30911    1820.2399    2931.9709    2.1737134    164.59481   0.15697265 
  196400   -943.51487    42.417091   -901.09778    1519.2264   -2501.4724    2.1657346    174.71327   0.16187729 
  196500   -945.95752    46.333444   -899.62407    1659.4959   -5015.7795    2.1602259    168.59556   0.16421205 
  196600   -941.30427    47.741968   -893.56231    1709.9442    7422.2094    2.1862975    163.54897   0.18240037 
  196700    -944.2174    42.373716   -901.84368    1517.6729    5818.5549    2.1885002    157.16252   0.16738548 
  196800   -948.14839    46.491343   -901.65704    1665.1513   -13684.059    2.1434405    164.18085   0.15510516 
  196900   -944.15693    47.818069   -896.33887    1712.6698   -338.31465    2.1683958    159.54868   0.15667511 
  197000   -944.25523    46.117065   -898.13817     1651.746    14080.263    2.2096598    167.35848   0.16771638 
  197100   -947.88586    42.585766   -905.30009    1525.2677   -1632.7789    2.1742963    168.39004    0.1485175 
  197200   -943.54562     47.13612    -896.4095    1688.2449    -13287.81    2.1349297    171.70269   0.15946413 
  197300   -947.66514    51.532832   -896.13231    1845.7191    3644.8298    2.1839735    167.87974     0.161363 
  197400   -949.60828     47.29304   -902.31524    1693.8652    4628.5988    2.1970197    165.41585   0.17193933 
  197500   -942.56468    48.599436   -893.96524    1740.6555   -5791.5854    2.1528094    161.55331   0.17080557 
  197600   -944.20678    48.266303   -895.94048     1728.724   -3202.7767    2.1656784    168.63436   0.15642897 
  197700   -947.36457     46.33511   -901.02946    1659.5556    4094.0817    2.1884198    160.16479   0.15324687 
  197800   -943.17841    49.212271   -893.96614    1762.6051    2389.0801    2.1720912    161.70106   0.13548979 
  197900   -941.11192    45.958604   -895.15332    1646.0705   -3976.8522    2.1557607    166.27934   0.15402589 
  198000   -947.86297    45.917881   -901.94509     1644.612   -4172.2779    2.1735097    167.09803   0.14332213 
  198100   -941.96431    46.970818   -894.99349    1682.3244    7092.6696    2.1871831    167.23227   0.16884168 
  198200   -944.33396    48.451651   -895.88231    1735.3624    87.769222     2.168974     169.4632    0.1639555 
  198300    -946.6225    43.067825   -903.55467    1542.5333   -6102.3047    2.1634074    157.85705   0.16311242 
  198400   -940.00328    43.314309   -896.68897    1551.3615    5679.3233    2.1788688    155.66686   0.16639283 
  198500    -941.3822    46.094005   -895.28819    1650.9201    8036.4833    2.1888916    167.25011   0.17813224 
  198600   -948.42565    44.201483   -904.22417    1583.1368   -5465.5015    2.1698973    162.18321   0.16100629 
  198700   -947.41915    49.306631   -898.11252    1765.9847   -11821.603    2.1459675    158.11089    0.1434112 
  198800   -947.66383    53.612736   -894.05109    1920.2138    7649.8439    2.1944943    158.21243   0.15483615 
  198900   -946.72918    45.909941   -900.81924    1644.3276    8464.6442    2.1958676    163.27704   0.15239714 
  199000   -944.51648    46.254424   -898.26205    1656.6657   -15909.359    2.1314398    178.24392   0.14594164 
  199100   -943.00171      49.2882   -893.71351    1765.3246   -4310.8491     2.153075    168.34453   0.15010854 
  199200   -946.07727    48.114669    -897.9626    1723.2929    13169.602    2.2058609    163.85984   0.15062556 
  199300    -945.9859    44.126584   -901.85932    1580.4542    142.86702    2.1723849    159.19655   0.14661148 
  199400   -939.19046    46.569237   -892.62122    1667.9412    -7333.946    2.1380753     160.3329   0.15994188 
  199500   -944.84396    45.917212   -898.92674     1644.588    3241.8565    2.1788731    163.23632   0.15411987 
  199600   -946.16378     45.46084   -900.70294    1628.2424    5307.9196    2.1840933    169.37593   0.15094886 
  199700   -942.29247    48.074728   -894.21775    1721.8624   -1368.9688    2.1573192    172.53772   0.14731229 
  199800   -944.94526     47.05011   -897.89515    1685.1643   -2064.6812    2.1619386    164.17473   0.14338069 
  199900   -946.42094    44.578676   -901.84226    1596.6465    6076.6825    2.1860148    173.95745   0.16209993 
  200000   -944.96685    49.728344   -895.23851    1781.0889    2992.4101    2.1752018     161.2037   0.14846888 
  200100   -946.48366    48.513135   -897.97052    1737.5646   -5066.8168    2.1578189    169.16677   0.14166003 
  200200   -949.60191    45.348918   -904.25299    1624.2338   -2086.9496    2.1735469    168.82588   0.13703443 
  200300   -944.92011    49.275051   -895.64505    1764.8536    4491.7401    2.1789766    158.76644   0.15748679 
  200400   -944.89451    47.217704   -897.67681    1691.1669   -393.61401    2.1698021    154.31005    0.1592799 
  200500   -946.94156    41.728666   -905.21289    1494.5695   -2780.1167    2.1682026    167.20271   0.15263633 
  200600    -946.8595    49.779026   -897.08047    1782.9042   -1845.1005    2.1697352    165.53789   0.14599372 
  200700   -945.84625    50.173702   -895.67255      1797.04    9474.9189    2.1969508    166.70958   0.16589506 
  200800   -948.86333    46.387868   -902.47546    1661.4452    -6628.627    2.1644143    166.92202   0.14615867 
  200900   -941.90404    46.880625   -895.02341     1679.094   -11247.049      2.13634    164.09038   0.14875696 
  201000   -940.67118    47.315375    -893.3558    1694.6651    11519.936    2.1899771    162.51101   0.16384632 
  201100   -946.19012    47.686323    -898.5038    1707.9512    6737.0737    2.1899905    158.37385   0.14241228 
  201200   -940.56727    45.139545   -895.42773    1616.7348   -9253.3185    2.1390344    167.57611   0.17866272 
  201300   -937.88789    47.670164   -890.21773    1707.3724   -3635.8886    2.1471868    204.04297   0.20086973 
  201400   -947.66281    49.456118   -898.20669    1771.3388       6811.7    2.1925899    190.98325   0.17192163 
  201500   -947.16876    48.426805   -898.74196    1734.4725    -824.1604    2.1702641    185.17534   0.16757365 
  201600   -942.10876    51.716324   -890.39244    1852.2912   -7199.0832    2.1378544    190.31046   0.16833951 
  201700   -945.88679     46.33289    -899.5539    1659.4761    2306.5103    2.1794666    186.42104   0.16742414 
  201800   -941.78597    44.593364    -897.1926    1597.1726    2523.2268    2.1761697    202.21026   0.17351323 
  201900   -941.62864    48.211391   -893.41725    1726.7572   -5472.1869    2.1481173     200.0906   0.17398037 
  202000   -944.74119    42.178722   -902.56246    1510.6889    1383.5156    2.1743158    191.30154   0.17287384 
  202100   -946.30213    47.778789   -898.52335    1711.2629    2185.4794    2.1764851    185.99057   0.17709543 
  202200   -946.74197    52.823968     -893.918     1891.963   -3132.8124    2.1651836     190.7472   0.19217051 
  202300   -950.26776    48.374708   -901.89306    1732.6066   -5450.0659    2.1706912    217.86836    0.1731378 
  202400   -945.26897    45.873663   -899.39531    1643.0283   -3431.9098      2.16709    224.54782   0.18567058 
  202500   -941.97153    48.342934   -893.62859    1731.4686    1256.6636    2.1713598    216.80785   0.18436604 
  202600   -944.75486    45.222191   -899.53267    1619.6949    5573.7941    2.1852767    189.16712   0.16949479 
  202700   -944.94455    43.825913   -901.11863    1569.6853   -2826.1271     2.169861     180.2956   0.17925934 
  202800   -940.23164    46.370194   -893.86145    1660.8122   -6639.0106    2.1434011    190.86191   0.17035991 
  202900   -944.94006    46.076553    -898.8635     1650.295    6644.3145    2.1918078    184.95918   0.18020742 
  203000   -944.57361    45.690502   -898.88311    1636.4681    13196.872    2.2095678    190.27928   0.18937685 
  203100   -938.81167    47.599565   -891.21211    1704.8438   -9929.6051    2.1289903    206.01524   0.18434115 
  203200   -942.10074     44.72081   -897.37993    1601.7372   -10321.682    2.1450749    189.57941   0.17812397 
Loop time of 141.135 on 1 procs for 200000 steps with 217 atoms

Performance: 367.308 ns/day, 0.065 hours/ns, 1417.082 timesteps/s
100.0% CPU use with 1 MPI tasks x no OpenMP threads

MPI task timing breakdown:
Section |  min time  |  avg time  |  max time  |%varavg| %total
---------------------------------------------------------------
Pair    | 135.77     | 135.77     | 135.77     |   0.0 | 96.20
Neigh   | 2.2112     | 2.2112     | 2.2112     |   0.0 |  1.57
Comm    | 0.9082     | 0.9082     | 0.9082     |   0.0 |  0.64
Output  | 0.069959   | 0.069959   | 0.069959   |   0.0 |  0.05
Modify  | 1.8629     | 1.8629     | 1.8629     |   0.0 |  1.32
Other   |            | 0.3122     |            |       |  0.22

Nlocal:    217 ave 217 max 217 min
Histogram: 1 0 0 0 0 0 0 0 0 0
Nghost:    957 ave 957 max 957 min
Histogram: 1 0 0 0 0 0 0 0 0 0
Neighs:    4142 ave 4142 max 4142 min
Histogram: 1 0 0 0 0 0 0 0 0 0
FullNghs:  8284 ave 8284 max 8284 min
Histogram: 1 0 0 0 0 0 0 0 0 0

Total # of neighbors = 8284
Ave neighs/atom = 38.1751
Neighbor list builds = 3712
Dangerous builds = 33
Total wall time: 0:02:23
