LAMMPS (3 Mar 2020)

    # ---------- Initialize simulation ---------------------
    units metal
    atom_style atomic
    dimension  3
    boundary   p p p
    read_data /home/modeler/RemLabs/Lab4/Problem1A/timestep_0.0021147425268811283/lammps.data
  orthogonal box = (0 0 0) to (12.27 12.27 12.27)
  1 by 1 by 1 MPI processor grid
  reading atoms ...
  108 atoms
  read_data CPU = 0.00089303 secs

    pair_style eam
    pair_coeff * * /usr/share/lammps-stable/potentials/Ag_u3.eam
Reading potential file /usr/share/lammps-stable/potentials/Ag_u3.eam with DATE: 2007-06-11

    velocity  all create 300 87287 dist gaussian

    # ---------- Describe computed properties------------------
    compute msdall all msd
    thermo_style custom step pe ke etotal temp press density c_msdall[4]
    thermo 100

    # ---------- Specify ensemble  ---------------------
    fix  1 all nve
    #fix  1 all nvt temp 300 300 0.10573712634405641

    # --------- Compute RDF ---------------
    compute rdfall all rdf 100 1 1
    fix 2 all ave/time 1 1182 1182 c_rdfall[*] file /home/modeler/RemLabs/Lab4/Problem1A/timestep_0.0021147425268811283/lammps.rdf mode vector

    # --------- Run -------------
    timestep 0.0021147425268811283
    run 4729
Neighbor list info ...
  update every 1 steps, delay 10 steps, check yes
  max neighbors/atom: 2000, page size: 100000
  master list distance cutoff = 7.55
  ghost atom cutoff = 7.55
  binsize = 3.775, bins = 4 4 4
  2 neighbor lists, perpetual/occasional/extra = 1 1 0
  (1) pair eam, perpetual
      attributes: half, newton on
      pair build: half/bin/atomonly/newton
      stencil: half/bin/3d/newton
      bin: standard
  (2) compute rdf, occasional, copy from (1)
      attributes: half, newton on
      pair build: copy
      stencil: none
      bin: none
Per MPI rank memory allocation (min/avg/max) = 3.723 | 3.723 | 3.723 Mbytes
Step PotEng KinEng TotEng Temp Press Density c_msdall[4] 
       0       -307.8    4.1492507   -303.65075          300     2399.079    10.472245            0 
     100   -306.02719    2.3773486   -303.64984    171.88756    7588.0994    10.472245 0.0087325827 
     200   -305.85239    2.2025317   -303.64986    159.24792    7974.5218    10.472245   0.01160608 
     300   -305.54859    1.8990318   -303.64956     137.3042    9043.5983    10.472245  0.011326461 
     400   -305.73716    2.0876115   -303.64955    150.93893    8532.9069    10.472245  0.010158382 
     500   -305.41675    1.7674485    -303.6493    127.79044    9673.0761    10.472245  0.010582116 
     600   -305.73057    2.0811549   -303.64942    150.47211    8863.2844    10.472245 0.0091384116 
     700   -305.72719    2.0776423   -303.64955    150.21813    8659.2944    10.472245  0.010370191 
     800   -305.60269    1.9532571   -303.64943    141.22481    9011.5813    10.472245 0.0092790797 
     900   -305.93319    2.2836546   -303.64954    165.11328    8116.6979    10.472245 0.0075494093 
    1000   -305.66814    2.0185851   -303.64956    145.94817    8788.1245    10.472245   0.01098158 
    1100   -305.49775    1.8482355   -303.64952    133.63152    9251.1008    10.472245  0.011422499 
    1200   -305.49143    1.8420462   -303.64938    133.18402    9419.5155    10.472245 0.0097935324 
    1300   -305.68584    2.0364609   -303.64938    147.24063    8932.2267    10.472245 0.0084925044 
    1400   -305.50922    1.8599049   -303.64932    134.47524    9553.6256    10.472245 0.0092117005 
    1500   -305.86557    2.2160497   -303.64952     160.2253    8470.4608    10.472245 0.0081325316 
    1600   -305.55722    1.9078164    -303.6494    137.93935    9223.1308    10.472245  0.010500043 
    1700     -305.373    1.7235794   -303.64942    124.61861    9595.4832    10.472245  0.010827587 
    1800   -305.78209    2.1323936   -303.64969    154.17678    8439.4803    10.472245 0.0099515518 
    1900   -305.75635    2.1067788   -303.64957    152.32477    8550.9439    10.472245  0.009421446 
    2000   -305.99542    2.3457267    -303.6497    169.60123    7895.1933    10.472245 0.0079549025 
    2100   -305.90628    2.2566426   -303.64964    163.16025    8198.6665    10.472245 0.0081116799 
    2200   -306.22833    2.5785417   -303.64979    186.43427    7204.1924    10.472245 0.0069810466 
    2300   -305.60339    1.9539512   -303.64944    141.27499    9031.5136    10.472245  0.010159761 
    2400   -305.58909    1.9396484   -303.64944    140.24087    9052.5642    10.472245  0.010574242 
    2500   -305.62666    1.9771802   -303.64948     142.9545    8935.9821    10.472245  0.010679712 
    2600   -305.47142    1.8220187    -303.6494    131.73599    9402.1754    10.472245  0.010616233 
    2700   -305.63898    1.9894664   -303.64951    143.84282    8886.4261    10.472245 0.0098693319 
    2800   -305.82078    2.1712331   -303.64955    156.98496    8358.6433    10.472245 0.0088672699 
    2900   -305.95974    2.3100893   -303.64965    167.02456    7944.3542    10.472245 0.0083465509 
    3000   -305.81529    2.1657599   -303.64953    156.58923     8362.692    10.472245 0.0089302372 
    3100    -305.8451    2.1955116   -303.64958    158.74035    8198.5821    10.472245  0.008885844 
    3200   -305.59326    1.9437288   -303.64953    140.53589    8924.4599    10.472245  0.010706574 
    3300   -305.63461    1.9850865   -303.64953    143.52615    8782.7174    10.472245  0.010513854 
    3400   -305.70475    2.0553091   -303.64944     148.6034    8740.6171    10.472245 0.0090969424 
    3500   -305.91474    2.2651744   -303.64957    163.77712    8093.3919    10.472245 0.0083651362 
    3600   -305.76803    2.1185049   -303.64953    153.17259    8631.9221    10.472245 0.0089992243 
    3700   -305.55191    1.9023952   -303.64951    137.54738    9153.3403    10.472245  0.010247357 
    3800   -305.71555    2.0659453    -303.6496    149.37241    8590.1735    10.472245  0.010287983 
    3900    -305.7523    2.1027592   -303.64954    152.03414    8579.6641    10.472245 0.0088107523 
    4000      -306.05    2.4002475   -303.64975     173.5432    7710.9286    10.472245 0.0083071043 
    4100   -305.52536    1.8758769   -303.64949    135.63005    9199.2247    10.472245  0.011077346 
    4200   -306.09109    2.4413429   -303.64975    176.51449    7541.2831    10.472245 0.0081925968 
    4300   -305.88744    2.2378696   -303.64957    161.80292    8215.0661    10.472245 0.0078086651 
    4400   -305.75846    2.1089316   -303.64952    152.48042    8535.3133    10.472245 0.0093787016 
    4500   -305.73913    2.0895594   -303.64957    151.07976    8627.2724    10.472245 0.0099948615 
    4600   -305.49919    1.8497471   -303.64944    133.74081    9252.0195    10.472245  0.011083111 
    4700   -305.74937    2.0997474   -303.64962    151.81638    8446.0525    10.472245  0.010611381 
    4729   -305.52356    1.8741664    -303.6494    135.50638    9191.6668    10.472245  0.011372901 
Loop time of 0.933899 on 1 procs for 4729 steps with 108 atoms

Performance: 925.210 ns/day, 0.026 hours/ns, 5063.715 timesteps/s
100.0% CPU use with 1 MPI tasks x no OpenMP threads

MPI task timing breakdown:
Section |  min time  |  avg time  |  max time  |%varavg| %total
---------------------------------------------------------------
Pair    | 0.62849    | 0.62849    | 0.62849    |   0.0 | 67.30
Neigh   | 0          | 0          | 0          |   0.0 |  0.00
Comm    | 0.020668   | 0.020668   | 0.020668   |   0.0 |  2.21
Output  | 0.00083124 | 0.00083124 | 0.00083124 |   0.0 |  0.09
Modify  | 0.27929    | 0.27929    | 0.27929    |   0.0 | 29.91
Other   |            | 0.004624   |            |       |  0.50

Nlocal:    108 ave 108 max 108 min
Histogram: 1 0 0 0 0 0 0 0 0 0
Nghost:    990 ave 990 max 990 min
Histogram: 1 0 0 0 0 0 0 0 0 0
Neighs:    4644 ave 4644 max 4644 min
Histogram: 1 0 0 0 0 0 0 0 0 0

Total # of neighbors = 4644
Ave neighs/atom = 43
Neighbor list builds = 0
Dangerous builds = 0
    
Total wall time: 0:00:00
