LAMMPS (3 Mar 2020)
Reading data file ...
  orthogonal box = (0 0 0) to (16.36 16.36 16.36)
  1 by 1 by 1 MPI processor grid
  reading atoms ...
  256 atoms
  read_data CPU = 0.000973533 secs
Reading potential file /usr/share/lammps-stable/potentials/Ag_u3.eam with DATE: 2007-06-11
Neighbor list info ...
  update every 1 steps, delay 10 steps, check yes
  max neighbors/atom: 2000, page size: 100000
  master list distance cutoff = 7.55
  ghost atom cutoff = 7.55
  binsize = 3.775, bins = 5 5 5
  2 neighbor lists, perpetual/occasional/extra = 1 1 0
  (1) pair eam, perpetual
      attributes: half, newton on
      pair build: half/bin/atomonly/newton
      stencil: half/bin/3d/newton
      bin: standard
  (2) compute rdf, occasional, copy from (1)
      attributes: half, newton on
      pair build: copy
      stencil: none
      bin: none
Setting up Verlet run ...
  Unit style    : metal
  Current step  : 0
  Time step     : 0.001
Per MPI rank memory allocation (min/avg/max) = 3.744 | 3.744 | 3.744 Mbytes
Step PotEng KinEng TotEng Temp Press Density c_msdall[4] 
       0       -729.6    33.620564   -695.97944         1020    8201.0812    10.472245            0 
     100   -709.46125    20.744628   -688.71662    629.36247     34006.25    10.472245  0.058353964 
     200   -702.48717    31.107665   -671.37951    943.76223    47207.252    10.472245  0.073033832 
     300   -692.82503    35.961593   -656.86344    1091.0235    60355.325    10.472245  0.096217396 
     400   -692.18895    35.419706   -656.76924    1074.5834    62235.025    10.472245  0.090288235 
     500   -699.90232    32.612166   -667.29015    989.40664    50649.504    10.472245  0.067001079 
     600   -698.60454     31.89111   -666.71343    967.53085    52655.673    10.472245  0.067227936 
     700   -696.36589    36.883053   -659.48283    1118.9793    57146.641    10.472245  0.076189721 
     800   -695.91843    33.497197   -662.42123    1016.2572    56530.801    10.472245  0.090646389 
     900    -695.9154    34.789026   -661.12638    1055.4495    56519.715    10.472245  0.092323517 
    1000   -695.63161    36.065131   -659.56648    1094.1647    58558.441    10.472245  0.082769553 
    1100   -699.32713    34.667739   -664.65939    1051.7698    52289.655    10.472245  0.067088068 
    1200   -697.52927    31.823805   -665.70546     965.4889    54047.274    10.472245  0.077089882 
    1300   -694.61593     33.26395   -661.35198    1009.1808    58827.556    10.472245  0.086777788 
    1400   -695.74223    34.925993   -660.81623    1059.6049    57374.476    10.472245  0.083554343 
    1500   -699.47896    34.141924   -665.33704    1035.8173    51672.123    10.472245  0.070204604 
    1600   -699.32091    34.243046   -665.07787    1038.8852    52304.397    10.472245  0.069478505 
    1700   -694.70528    35.146849   -659.55843    1066.3053    58677.344    10.472245  0.088471079 
    1800   -694.85908    36.400061   -658.45902     1104.326    59287.503    10.472245  0.091709843 
    1900   -696.57926    33.313964    -663.2653    1010.6982    55733.747    10.472245  0.080928671 
    2000   -697.66614    31.476069   -666.19008    954.93908    54153.077    10.472245  0.069883765 
    2100   -697.62384    32.613838      -665.01    989.45737    54665.563    10.472245  0.070992284 
    2200   -696.15732    34.754952   -661.40237    1054.4157    56838.338    10.472245  0.082402517 
    2300   -695.32759    33.009377   -662.31822    1001.4575    57502.827    10.472245  0.091793046 
    2400   -692.41793     32.89561   -659.52232    998.00595    61901.642    10.472245  0.090125848 
    2500   -697.73093     34.38388   -663.34705    1043.1579    54914.967    10.472245  0.076411693 
    2600   -699.94633    33.067805   -666.87853    1003.2301    50802.424    10.472245   0.07354154 
    2700   -695.76776    35.801976   -659.96578    1086.1809    57233.988    10.472245  0.079843274 
    2800   -697.33169    34.136153   -663.19554    1035.6422    54862.775    10.472245  0.075082836 
    2900   -699.42161    33.029839   -666.39177    1002.0783    52160.723    10.472245  0.067707881 
    3000   -697.37427    34.190124   -663.18415    1037.2796    55267.996    10.472245  0.074294261 
    3100   -694.97382     33.69919   -661.27463    1022.3854    58746.669    10.472245  0.081137051 
    3200   -696.96083    33.550167   -663.41066    1017.8643    55526.209    10.472245  0.079431534 
    3300   -700.16617    33.668016   -666.49816    1021.4396    51473.951    10.472245  0.070425075 
    3400   -693.13712    32.418791   -660.71833    983.53993    60837.994    10.472245  0.076636159 
    3500   -694.42539    32.452343   -661.97304    984.55786    59856.731    10.472245  0.075265753 
    3600   -695.95643    30.327645   -665.62879    920.09754    56531.391    10.472245  0.077025582 
    3700    -696.4515    33.123954   -663.32755    1004.9336    56340.611    10.472245  0.074470296 
    3800   -694.37776    32.719279   -661.65849     992.6563    59650.128    10.472245   0.07999111 
    3900   -693.54531    32.991106    -660.5542    1000.9032    60372.624    10.472245  0.080025428 
    4000   -697.49583    31.851981   -665.64385    966.34372    54265.051    10.472245  0.069286513 
    4100   -697.81201    32.888959   -664.92305    997.80416    54232.088    10.472245  0.068971223 
    4200   -695.29055    33.636749    -661.6538    1020.4911    58103.073    10.472245  0.080044954 
    4300   -695.08129     35.76016   -659.32113    1084.9123    59045.379    10.472245  0.084454076 
    4400   -697.11149    34.076861   -663.03463    1033.8434    55810.469    10.472245  0.075817097 
    4500   -699.62998    29.389943   -670.24004    891.64899    50965.129    10.472245  0.069581177 
    4600   -697.58959      31.6541   -665.93549     960.3403    54480.673    10.472245  0.068710117 
    4700   -694.23166    33.436289   -660.79537    1014.4094    59898.693    10.472245  0.082052275 
    4800    -693.1456    31.770995    -661.3746    963.88671     61102.04    10.472245  0.085910509 
    4900   -698.88263    31.127671   -667.75496    944.36919    52141.293    10.472245  0.079866908 
    5000    -696.4965    34.844476   -661.65202    1057.1318     56868.58    10.472245  0.077212665 
    5100   -694.04053     30.65935   -663.38118      930.161    58842.159    10.472245  0.083630042 
    5200   -695.17051    35.429954   -659.74056    1074.8943     59035.78    10.472245    0.0823489 
    5300   -694.98718    31.979146   -663.00804    970.20171    58120.704    10.472245  0.090758644 
    5400   -695.29018    36.419305   -658.87087    1104.9098    58640.853    10.472245  0.078588948 
    5500   -695.71725    31.565615   -664.15163    957.65577    56811.253    10.472245   0.07667503 
    5600   -697.16132     32.79131   -664.37001    994.84163    55399.811    10.472245  0.072251337 
    5700   -696.91945    35.571696   -661.34775    1079.1946    55913.489    10.472245  0.074835116 
    5800    -693.8188    33.528243   -660.29056    1017.1991    60373.321    10.472245  0.083185376 
    5900   -694.51796    32.037598   -662.48036    971.97507    58704.016    10.472245   0.08129211 
    6000   -697.60228    32.878306   -664.72397    997.48095    55380.655    10.472245  0.074212647 
    6100   -695.74886    34.861563    -660.8873    1057.6501     57930.78    10.472245  0.075239861 
    6200   -696.67335     34.17447   -662.49888    1036.8047    55956.045    10.472245  0.071440161 
    6300   -697.82386    32.732147   -665.09171     993.0467    54352.569    10.472245   0.08010829 
    6400   -693.64209    34.349808   -659.29228    1042.1242    59861.059    10.472245  0.093680236 
    6500   -695.68887    35.680049   -660.00882    1082.4818    57313.009    10.472245  0.077946181 
    6600   -698.38819    33.869111   -664.51908    1027.5406    53504.959    10.472245  0.065525293 
    6700   -697.32087    30.391044   -666.92983    922.02097    54112.935    10.472245  0.076961372 
    6800    -693.6703     33.38729   -660.28301    1012.9228    60214.502    10.472245   0.08906031 
    6900   -696.01182    35.487751   -660.52407    1076.6478     57412.65    10.472245  0.079798347 
    7000   -696.88657    30.425177   -666.46139    923.05651    54744.229    10.472245  0.073841791 
    7100   -693.74438    30.473587   -663.27079    924.52522    59399.074    10.472245  0.079275636 
    7200   -695.86573    35.740668   -660.12506    1084.3209    57365.297    10.472245   0.07358085 
    7300   -695.19208    31.248041   -663.94404    948.02104    57731.328    10.472245   0.08232378 
    7400   -695.68729    34.284325   -661.40297    1040.1376    57747.709    10.472245  0.078220406 
    7500   -695.51929    32.250928   -663.26837    978.44719     57191.44    10.472245   0.07956461 
    7600   -691.04275     36.96205    -654.0807    1121.3759    64689.686    10.472245   0.08195211 
    7700   -693.59139    33.973129   -659.61826    1030.6963    60641.639    10.472245  0.086004821 
    7800   -698.12538    35.305039   -662.82034    1071.1046     53966.62    10.472245  0.075186505 
    7900   -699.42275    33.468086   -665.95466     1015.374    52014.707    10.472245  0.075572309 
    8000   -696.08673    33.909998   -662.17673     1028.781    56428.405    10.472245  0.081547712 
    8100   -696.74654    35.376847   -661.36969    1073.2831    56532.194    10.472245  0.074290091 
    8200   -698.08251    31.215853   -666.86665    947.04449    53457.619    10.472245  0.068842603 
    8300   -699.67917    32.598926   -667.08024    989.00497    51993.897    10.472245  0.066640932 
    8400   -695.70328    33.340194   -662.36308     1011.494    57430.453    10.472245  0.075744576 
    8500   -695.40329    33.315214   -662.08808    1010.7361    57849.674    10.472245  0.076559642 
    8600    -696.9866     33.58351   -663.40309    1018.8758    55871.784    10.472245   0.07217369 
    8700   -697.94239    33.621387     -664.321     1020.025    54823.797    10.472245  0.068220803 
    8800   -695.60027    34.669944   -660.93033    1051.8367    58240.788    10.472245  0.071485028 
    8900   -699.12234    31.675629   -667.44671    960.99344    53109.115    10.472245  0.068769534 
    9000   -697.44619    32.393707   -665.05248    982.77891    54869.139    10.472245  0.073573184 
    9100   -694.28999    33.880653   -660.40934    1027.8907    59043.701    10.472245  0.079636646 
    9200   -694.44581    31.191698   -663.25411    946.31169    59017.096    10.472245  0.076853723 
    9300    -697.4463    29.562225   -667.88407    896.87578    54296.977    10.472245  0.068684956 
    9400   -698.45073    35.002283   -663.44845    1061.9194     54528.23    10.472245  0.059919735 
    9500   -694.85979    31.038549   -663.82124    941.66537    57490.877    10.472245  0.079068385 
    9600   -695.39857    36.500664   -658.89791    1107.3781    58677.903    10.472245  0.075232616 
    9700   -698.49481    34.260275   -664.23454    1039.4079    53430.648    10.472245  0.069584744 
    9800     -698.405     36.22641   -662.17859    1099.0577    54061.272    10.472245  0.067059251 
    9900   -695.35384    32.825624   -662.52822    995.88266    56744.237    10.472245   0.07851251 
   10000   -696.10854    36.285154   -659.82338    1100.8399     57342.04    10.472245  0.072833459 
Loop time of 4.82538 on 1 procs for 10000 steps with 256 atoms

Performance: 179.053 ns/day, 0.134 hours/ns, 2072.374 timesteps/s
100.0% CPU use with 1 MPI tasks x no OpenMP threads

MPI task timing breakdown:
Section |  min time  |  avg time  |  max time  |%varavg| %total
---------------------------------------------------------------
Pair    | 3.2455     | 3.2455     | 3.2455     |   0.0 | 67.26
Neigh   | 0          | 0          | 0          |   0.0 |  0.00
Comm    | 0.062736   | 0.062736   | 0.062736   |   0.0 |  1.30
Output  | 0.0026713  | 0.0026713  | 0.0026713  |   0.0 |  0.06
Modify  | 1.4981     | 1.4981     | 1.4981     |   0.0 | 31.05
Other   |            | 0.01641    |            |       |  0.34

Nlocal:    256 ave 256 max 256 min
Histogram: 1 0 0 0 0 0 0 0 0 0
Nghost:    1431 ave 1431 max 1431 min
Histogram: 1 0 0 0 0 0 0 0 0 0
Neighs:    11008 ave 11008 max 11008 min
Histogram: 1 0 0 0 0 0 0 0 0 0

Total # of neighbors = 11008
Ave neighs/atom = 43
Neighbor list builds = 0
Dangerous builds = 0
Total wall time: 0:00:04
