LAMMPS (3 Mar 2020)

# ---------- 1. Initialize simulation ----------
units metal
atom_style atomic
dimension 3
boundary p p p
read_data /home/modeler/RemLabs/Project/eval_timestep_nve/n3_T1800_timestep1.679909e-03_steps8930/20201205-224508/lammps.data
  orthogonal box = (0 0 0) to (17.469 17.469 17.469)
  1 by 1 by 1 MPI processor grid
  reading atoms ...
  217 atoms
  read_data CPU = 0.000992644 secs

pair_style meam/c
pair_coeff * * library.meam Li Si LiSi.meam Li Si
Reading potential file library.meam with DATE: 2012-06-29
Reading potential file LiSi.meam with DATE: 2020-11-07

group Li type 1
1 atoms in group Li

velocity all create 1800 3320 dist gaussian

# ---------- 2. Describe computed properties----------
compute msdli Li msd
thermo_style custom step pe ke etotal temp press density c_msdli[4]
thermo 100

# ---------- 3. Specify ensemble  ----------
#fix 1 all npt temp 1800 1800 0.08399545715709451 tchain 2 iso 1.0 1.0 1.0 pchain 2
# fix 1 all nvt temp 1800 1800 0.08399545715709451
 fix 1 all nve

# ---------- 4. Run -------------
timestep 0.0016799091431418903
run 8930
Neighbor list info ...
  update every 1 steps, delay 10 steps, check yes
  max neighbors/atom: 2000, page size: 100000
  master list distance cutoff = 6
  ghost atom cutoff = 6
  binsize = 3, bins = 6 6 6
  2 neighbor lists, perpetual/occasional/extra = 2 0 0
  (1) pair meam/c, perpetual
      attributes: full, newton on
      pair build: full/bin/atomonly
      stencil: full/bin/3d
      bin: standard
  (2) pair meam/c, perpetual, half/full from (1)
      attributes: half, newton on
      pair build: halffull/newton
      stencil: none
      bin: none
Per MPI rank memory allocation (min/avg/max) = 9.27 | 9.27 | 9.27 Mbytes
Step PotEng KinEng TotEng Temp Press Density c_msdli[4] 
       0   -951.04357    50.256344   -900.78722         1800   -114161.75    1.8918427            0 
     100    -928.9371    28.208105   -900.72899     1010.312   -94233.485    1.8918427  0.051414378 
     200   -929.37803    28.647502   -900.73053    1026.0496   -95604.255    1.8918427  0.089943023 
     300   -928.84631     28.12689   -900.71942    1007.4032   -93513.091    1.8918427  0.095341249 
     400   -925.65161     24.93966   -900.71195    893.24816   -91803.837    1.8918427  0.060258065 
     500   -927.24553    26.533689   -900.71184    950.34052   -91796.306    1.8918427  0.040928027 
     600   -927.36641    26.645736   -900.72068    954.35363   -93341.676    1.8918427  0.093941697 
     700    -927.5989    26.883982   -900.71492    962.88676   -92816.804    1.8918427  0.037918743 
     800   -926.97397    26.254987   -900.71898    940.35841   -93600.941    1.8918427 0.0026964475 
     900   -929.72842    29.004731   -900.72369    1038.8443   -94050.305    1.8918427   0.12226979 
    1000    -926.1583    25.451423   -900.70688    911.57769   -92049.622    1.8918427  0.012287666 
    1100   -926.94821     26.23519   -900.71302    939.64936   -92311.773    1.8918427  0.097651859 
    1200   -926.62688    25.910609   -900.71627    928.02405   -93038.777    1.8918427  0.018316301 
    1300    -924.8567    24.143258   -900.71344    864.72396    -90980.09    1.8918427  0.071689015 
    1400   -930.43171    29.709049   -900.72266    1064.0704   -94566.679    1.8918427  0.016753052 
    1500   -927.55504    26.828869   -900.72617    960.91279   -93007.058    1.8918427  0.014200177 
    1600   -928.61982    27.900891   -900.71893    999.30874   -93049.771    1.8918427   0.14680142 
    1700   -929.17429    28.446954   -900.72734    1018.8667   -93469.472    1.8918427  0.021915344 
    1800   -926.03568    25.320741   -900.71494     906.8971   -91578.162    1.8918427   0.10887513 
    1900   -925.94811    25.234752   -900.71336     903.8173   -91437.177    1.8918427   0.12359207 
    2000   -926.67474    25.957645    -900.7171    929.70872   -93291.157    1.8918427  0.081236887 
    2100   -926.74523    26.036269   -900.70897    932.52472   -92525.772    1.8918427   0.10867903 
    2200   -925.66592    24.953379   -900.71254    893.73953   -92585.419    1.8918427  0.014762156 
    2300   -927.90949    27.196882   -900.71261    974.09368   -92661.116    1.8918427   0.14850344 
    2400   -926.66057    25.947065    -900.7135    929.32977   -92126.973    1.8918427   0.03026594 
    2500    -926.4164    25.699602    -900.7168    920.46653   -92837.978    1.8918427  0.011483286 
    2600   -927.71136    26.996701   -900.71466    966.92391   -94119.733    1.8918427   0.10513166 
    2700   -924.74324    24.038559   -900.70469    860.97401   -91108.376    1.8918427  0.069557066 
    2800   -926.18693    25.480127    -900.7068    912.60574   -92515.652    1.8918427  0.012284639 
    2900   -925.28671    24.574454   -900.71226    880.16781   -91404.147    1.8918427  0.093199222 
    3000   -928.12948    27.409341   -900.72014     981.7032   -94979.254    1.8918427   0.13444795 
    3100    -927.7675    27.048436   -900.71906    968.77688   -94076.205    1.8918427  0.031973467 
    3200   -924.82801    24.125118   -900.70289    864.07423   -90717.001    1.8918427  0.015772258 
    3300   -927.65185    26.938049    -900.7138    964.82324   -92838.146    1.8918427  0.062235375 
    3400   -925.91829    25.206649   -900.71164    902.81076   -93026.039    1.8918427  0.086719901 
    3500   -927.32968    26.619331   -900.71035    953.40792   -94247.217    1.8918427  0.034443684 
    3600    -926.9201    26.202951   -900.71715    938.49468    -94669.64    1.8918427     0.124519 
    3700    -928.6117    27.889189   -900.72251     998.8896   -95333.255    1.8918427   0.06400941 
    3800   -927.40699    26.695185    -900.7118    956.12471    -93816.59    1.8918427  0.051168347 
    3900   -927.42758    26.711989   -900.71559    956.72658   -94347.531    1.8918427 0.0071522536 
    4000   -926.70742    25.994736   -900.71268    931.03717   -93194.304    1.8918427  0.034636295 
    4100   -925.76537    25.054166   -900.71121    897.34937   -93281.998    1.8918427   0.10402277 
    4200   -927.48764    26.774072   -900.71357    958.95015   -92731.265    1.8918427  0.083859419 
    4300   -926.22848    25.513996   -900.71449    913.81883   -92992.026    1.8918427   0.12176351 
    4400   -927.04891    26.340022   -900.70889    943.40408   -93881.822    1.8918427 0.0037651945 
    4500   -927.03132    26.315987   -900.71533    942.54321   -93481.163    1.8918427 0.0059804496 
    4600   -928.41101    27.687011     -900.724    991.64832   -94835.674    1.8918427   0.03369224 
    4700   -926.86904    26.156821   -900.71222    936.84245   -93499.569    1.8918427  0.026892015 
    4800   -925.25782    24.549264   -900.70855    879.26562   -92096.099    1.8918427   0.15869601 
    4900   -927.12503    26.413835    -900.7112    946.04778   -93744.715    1.8918427  0.054004453 
    5000   -927.72693    27.007434   -900.71949    967.30836   -94159.509    1.8918427  0.055822937 
    5100   -926.58789     25.87902   -900.70887    926.89265   -92318.389    1.8918427   0.10333753 
    5200    -926.5682    25.856102    -900.7121    926.07181   -93392.541    1.8918427  0.034759426 
    5300    -927.1691    26.458056   -900.71105     947.6316   -94097.281    1.8918427 0.0074372024 
    5400   -927.02491    26.311045   -900.71386     942.3662   -94991.208    1.8918427  0.023503847 
    5500   -925.57328    24.864955   -900.70832    890.57251   -92920.658    1.8918427    0.2202115 
    5600    -927.0822     26.36958   -900.71262    944.46272   -94197.705    1.8918427  0.081040845 
    5700   -926.72927    26.017337   -900.71194    931.84667   -93622.031    1.8918427 0.0054577089 
    5800   -926.58992    25.871204   -900.71871    926.61272   -94094.322    1.8918427    0.1257892 
    5900   -926.65975    25.954234   -900.70552    929.58653   -93168.944    1.8918427   0.26010397 
    6000   -927.21686    26.501096   -900.71577    949.17314    -94159.32    1.8918427  0.036707722 
    6100   -926.54592    25.832829   -900.71309    925.23825   -94305.658    1.8918427  0.052428187 
    6200   -926.96828    26.254858   -900.71342    940.35381   -94158.386    1.8918427  0.040571149 
    6300   -925.74201    25.037471   -900.70454    896.75142   -91797.295    1.8918427 0.0074031805 
    6400   -926.77825     26.07297   -900.70528    933.83924   -92885.896    1.8918427  0.036778535 
    6500   -926.46093    25.752482   -900.70845    922.36053    -93349.76    1.8918427   0.18004193 
    6600   -928.38102    27.658129   -900.72289    990.61388   -94178.031    1.8918427  0.027941848 
    6700   -925.31767    24.616406   -900.70126    881.67039   -91456.921    1.8918427   0.16285027 
    6800   -927.80546    27.088484   -900.71698    970.21125   -94576.653    1.8918427  0.021526281 
    6900   -927.21129    26.501497   -900.70979    949.18753   -92467.372    1.8918427  0.056308261 
    7000   -926.37838    25.664203   -900.71417    919.19868   -92931.844    1.8918427  0.023998254 
    7100   -928.15562     27.43304   -900.72258      982.552   -94192.277    1.8918427   0.04502949 
    7200   -928.32045    27.596573   -900.72388    988.40917   -93730.657    1.8918427  0.041530214 
    7300   -927.09724    26.380885   -900.71635    944.86765   -94661.864    1.8918427  0.064329628 
    7400   -927.54415    26.819842   -900.72431    960.58946   -94352.484    1.8918427   0.03054878 
    7500   -926.61538    25.904212   -900.71116    927.79492   -94236.531    1.8918427  0.068764816 
    7600   -926.73094    26.023236    -900.7077    932.05795   -93236.014    1.8918427  0.016849512 
    7700   -924.92921    24.220749   -900.70846    867.49941    -91118.36    1.8918427   0.12732521 
    7800   -925.58107    24.871903   -900.70916    890.82136   -93903.584    1.8918427   0.16231468 
    7900   -928.41727    27.696911   -900.72036    992.00291   -95578.096    1.8918427  0.060763226 
    8000   -924.74323    24.036233   -900.70699    860.89069   -92246.426    1.8918427   0.12391437 
    8100   -925.75985    25.053818   -900.70603    897.33689   -92963.986    1.8918427  0.077413393 
    8200   -926.24951    25.541268   -900.70824    914.79558   -92764.261    1.8918427  0.029639904 
    8300   -925.78923    25.079088   -900.71014      898.242   -94110.286    1.8918427     0.106902 
    8400   -926.37106    25.657614   -900.71344     918.9627   -93889.008    1.8918427   0.21275937 
    8500   -927.74396    27.026397   -900.71756    967.98753   -95482.439    1.8918427  0.069510976 
    8600   -925.78711    25.077947   -900.70916     898.2011   -93633.715    1.8918427   0.17142849 
    8700   -925.41188    24.708616   -900.70326    884.97301   -92706.012    1.8918427   0.32615286 
    8800    -924.6383    23.940082   -900.69822     857.4469    -91705.06    1.8918427  0.023110134 
    8900   -925.84412    25.142658   -900.70146    900.51881   -92829.531    1.8918427  0.025656231 
    8930    -927.5343    26.820024   -900.71427    960.59598   -94592.065    1.8918427   0.11500678 
Loop time of 4.71842 on 1 procs for 8930 steps with 217 atoms

Performance: 274.697 ns/day, 0.087 hours/ns, 1892.583 timesteps/s
100.0% CPU use with 1 MPI tasks x no OpenMP threads

MPI task timing breakdown:
Section |  min time  |  avg time  |  max time  |%varavg| %total
---------------------------------------------------------------
Pair    | 4.6466     | 4.6466     | 4.6466     |   0.0 | 98.48
Neigh   | 0          | 0          | 0          |   0.0 |  0.00
Comm    | 0.037096   | 0.037096   | 0.037096   |   0.0 |  0.79
Output  | 0.002472   | 0.002472   | 0.002472   |   0.0 |  0.05
Modify  | 0.019435   | 0.019435   | 0.019435   |   0.0 |  0.41
Other   |            | 0.01278    |            |       |  0.27

Nlocal:    217 ave 217 max 217 min
Histogram: 1 0 0 0 0 0 0 0 0 0
Nghost:    957 ave 957 max 957 min
Histogram: 1 0 0 0 0 0 0 0 0 0
Neighs:    3702 ave 3702 max 3702 min
Histogram: 1 0 0 0 0 0 0 0 0 0
FullNghs:  7404 ave 7404 max 7404 min
Histogram: 1 0 0 0 0 0 0 0 0 0

Total # of neighbors = 7404
Ave neighs/atom = 34.1198
Neighbor list builds = 0
Dangerous builds = 0
Total wall time: 0:00:04
