
     Program PWSCF v.6.4.1 starts on 14Dec2020 at  4: 1:48 

     This program is part of the open-source Quantum ESPRESSO suite
     for quantum simulation of materials; please cite
         "P. Giannozzi et al., J. Phys.:Condens. Matter 21 395502 (2009);
         "P. Giannozzi et al., J. Phys.:Condens. Matter 29 465901 (2017);
          URL http://www.quantum-espresso.org", 
     in publications or presentations arising from this work. More details at
     http://www.quantum-espresso.org/quote

     Parallel version (MPI), running on     1 processors

     MPI processes distributed on     1 nodes
     Waiting for input...
     Reading input from standard input

     Current dimensions of program PWSCF are:
     Max number of different atomic species (ntypx) = 10
     Max number of k-points (npk) =  40000
     Max angular momentum in pseudopotentials (lmaxx) =  3

     Subspace diagonalization in iterative solution of the eigenvalue problem:
     a serial algorithm will be used


     G-vector sticks info
     --------------------
     sticks:   dense  smooth     PW     G-vecs:    dense   smooth      PW
     Sum        1245     621    193                33371    11753    2103



     bravais-lattice index     =            0
     lattice parameter (alat)  =       8.8817  a.u.
     unit-cell volume          =     700.6323 (a.u.)^3
     number of atoms/cell      =           10
     number of atomic types    =            4
     number of electrons       =        32.00
     number of Kohn-Sham states=           20
     kinetic-energy cutoff     =      25.0000  Ry
     charge density cutoff     =     200.0000  Ry
     convergence threshold     =      1.0E-07
     mixing beta               =       0.5000
     number of iterations used =            8  plain     mixing
     Exchange-correlation      =  SLA  PW   PBX  PBC ( 1  4  3  4 0 0)
     nstep                     =           50


     celldm(1)=   8.881713  celldm(2)=   0.000000  celldm(3)=   0.000000
     celldm(4)=   0.000000  celldm(5)=   0.000000  celldm(6)=   0.000000

     crystal axes: (cart. coord. in units of alat)
               a(1) = (   1.000000   0.000000   0.000000 )  
               a(2) = (   0.000000   1.000000   0.000000 )  
               a(3) = (   0.000000   0.000000   1.000000 )  

     reciprocal axes: (cart. coord. in units 2 pi/alat)
               b(1) = (  1.000000  0.000000  0.000000 )  
               b(2) = (  0.000000  1.000000  0.000000 )  
               b(3) = (  0.000000  0.000000  1.000000 )  


     PseudoPot. # 1 for B  read from file:
     /home/modeler/qe_pseudo/b_pbe_v1.4.uspp.F.UPF
     MD5 check sum: cc6de2960df11db49a60e589f9ebb39b
     Pseudo is Ultrasoft + core correction, Zval =  3.0
     Generated by new atomic code, or converted to UPF format
     Using radial grid of  781 points,  4 beta functions with: 
                l(1) =   0
                l(2) =   0
                l(3) =   1
                l(4) =   1
     Q(r) pseudized with  8 coefficients,  rinner =    1.100   1.100   1.100


     PseudoPot. # 2 for H  read from file:
     /home/modeler/qe_pseudo/H.pbe-rrkjus_psl.1.0.0.UPF
     MD5 check sum: f52b6d4d1c606e5624b1dc7b2218f220
     Pseudo is Ultrasoft, Zval =  1.0
     Generated using "atomic" code by A. Dal Corso v.5.1
     Using radial grid of  929 points,  2 beta functions with: 
                l(1) =   0
                l(2) =   0
     Q(r) pseudized with 0 coefficients 


     PseudoPot. # 3 for N  read from file:
     /home/modeler/qe_pseudo/N.pbe-n-radius_5.UPF
     MD5 check sum: 16739722b17309cd8fe442a2ace49922
     Pseudo is Ultrasoft + core correction, Zval =  5.0
     Generated using "atomic" code by A. Dal Corso v.5.1
     Using radial grid of 1085 points,  4 beta functions with: 
                l(1) =   0
                l(2) =   0
                l(3) =   1
                l(4) =   1
     Q(r) pseudized with 0 coefficients 


     PseudoPot. # 4 for Na read from file:
     /home/modeler/qe_pseudo/na_pbe_v1.5.uspp.F.UPF
     MD5 check sum: 44600605ef58000f06b90626533354dc
     Pseudo is Ultrasoft, Zval =  9.0
     Generated by new atomic code, or converted to UPF format
     Using radial grid of  819 points,  5 beta functions with: 
                l(1) =   0
                l(2) =   0
                l(3) =   1
                l(4) =   1
                l(5) =   2
     Q(r) pseudized with  8 coefficients,  rinner =    1.250   1.250   1.250
                                                       1.250   1.250

     atomic species   valence    mass     pseudopotential
        B              3.00    10.81000     B ( 1.00)
        H              1.00     1.00800     H ( 1.00)
        N              5.00    14.00700     N ( 1.00)
        Na             9.00    22.98977     Na( 1.00)

     No symmetry found



   Cartesian axes

     site n.     atom                  positions (alat units)
         1           Na  tau(   1) = (   0.5000000   0.0000000   0.5000000  )
         2           Na  tau(   2) = (   0.0000000   0.5000000   0.5000000  )
         3           N   tau(   3) = (   0.5000000   0.5000000   0.5000000  )
         4           H   tau(   4) = (   0.6965851   0.5000000   0.4304957  )
         5           H   tau(   5) = (   0.4017064   0.6702489   0.4304957  )
         6           B   tau(   6) = (   0.0000000   0.0000000   0.0000000  )
         7           H   tau(   7) = (   0.2347000   0.0000000  -0.0829787  )
         8           H   tau(   8) = (  -0.1173489   0.2032553  -0.0829787  )
         9           H   tau(   9) = (  -0.1173489  -0.2032553  -0.0829787  )
        10           H   tau(  10) = (   0.0000000   0.0000000   0.2489362  )

     number of k points=     8  Methfessel-Paxton smearing, width (Ry)=  0.0200
                       cart. coord. in units 2pi/alat
        k(    1) = (   0.0000000   0.0000000   0.0000000), wk =   0.2500000
        k(    2) = (   0.0000000   0.0000000  -0.5000000), wk =   0.2500000
        k(    3) = (   0.0000000  -0.5000000  -0.5000000), wk =   0.2500000
        k(    4) = (  -0.5000000  -0.5000000  -0.5000000), wk =   0.2500000
        k(    5) = (  -0.5000000   0.0000000   0.0000000), wk =   0.2500000
        k(    6) = (   0.0000000  -0.5000000   0.0000000), wk =   0.2500000
        k(    7) = (  -0.5000000   0.0000000   0.5000000), wk =   0.2500000
        k(    8) = (  -0.5000000   0.5000000   0.0000000), wk =   0.2500000

     Dense  grid:    33371 G-vectors     FFT dimensions: (  40,  40,  40)

     Smooth grid:    11753 G-vectors     FFT dimensions: (  30,  30,  30)

     Estimated max dynamical RAM per process >     104.12 MB

     Check: negative core charge=   -0.000003

     Initial potential from superposition of free atoms

     starting charge   31.98707, renormalised to   32.00000
     Starting wfcs are   24 randomized atomic wfcs

     total cpu time spent up to now is        6.8 secs

     Self-consistent Calculation

     iteration #  1     ecut=    25.00 Ry     beta= 0.50
     Davidson diagonalization with overlap
     ethr =  1.00E-02,  avg # of iterations =  3.5

     total cpu time spent up to now is        8.2 secs

     total energy              =    -223.72154798 Ry
     Harris-Foulkes estimate   =    -224.63490603 Ry
     estimated scf accuracy    <       1.60377113 Ry

     iteration #  2     ecut=    25.00 Ry     beta= 0.50
     Davidson diagonalization with overlap
     ethr =  5.01E-03,  avg # of iterations =  2.1

     total cpu time spent up to now is        9.4 secs

     total energy              =    -224.04141782 Ry
     Harris-Foulkes estimate   =    -224.14851395 Ry
     estimated scf accuracy    <       0.23897233 Ry

     iteration #  3     ecut=    25.00 Ry     beta= 0.50
     Davidson diagonalization with overlap
     ethr =  7.47E-04,  avg # of iterations =  2.8

     total cpu time spent up to now is       10.6 secs

     total energy              =    -224.08075293 Ry
     Harris-Foulkes estimate   =    -224.09249676 Ry
     estimated scf accuracy    <       0.03052602 Ry

     iteration #  4     ecut=    25.00 Ry     beta= 0.50
     Davidson diagonalization with overlap
     ethr =  9.54E-05,  avg # of iterations =  3.9

     total cpu time spent up to now is       11.8 secs

     total energy              =    -224.08363833 Ry
     Harris-Foulkes estimate   =    -224.08430367 Ry
     estimated scf accuracy    <       0.00291893 Ry

     iteration #  5     ecut=    25.00 Ry     beta= 0.50
     Davidson diagonalization with overlap
     ethr =  9.12E-06,  avg # of iterations =  2.5

     total cpu time spent up to now is       13.0 secs

     total energy              =    -224.08387279 Ry
     Harris-Foulkes estimate   =    -224.08386743 Ry
     estimated scf accuracy    <       0.00007872 Ry

     iteration #  6     ecut=    25.00 Ry     beta= 0.50
     Davidson diagonalization with overlap
     ethr =  2.46E-07,  avg # of iterations =  2.6

     total cpu time spent up to now is       14.2 secs

     total energy              =    -224.08389112 Ry
     Harris-Foulkes estimate   =    -224.08388804 Ry
     estimated scf accuracy    <       0.00000880 Ry

     iteration #  7     ecut=    25.00 Ry     beta= 0.50
     Davidson diagonalization with overlap
     ethr =  2.75E-08,  avg # of iterations =  2.2

     total cpu time spent up to now is       15.4 secs

     total energy              =    -224.08389320 Ry
     Harris-Foulkes estimate   =    -224.08389293 Ry
     estimated scf accuracy    <       0.00000037 Ry

     iteration #  8     ecut=    25.00 Ry     beta= 0.50
     Davidson diagonalization with overlap
     ethr =  1.17E-09,  avg # of iterations =  2.0

     total cpu time spent up to now is       16.6 secs

     End of self-consistent calculation

          k = 0.0000 0.0000 0.0000 (  1419 PWs)   bands (ev):

   -51.5735 -50.8403 -23.5732 -23.3534 -23.2813 -22.7493 -22.6347 -22.5797
   -14.9320  -7.4800  -6.2818  -2.3902  -1.9087  -1.6887  -1.0882   0.6151
     3.8438   5.8048   6.2035   8.3646

          k = 0.0000 0.0000-0.5000 (  1462 PWs)   bands (ev):

   -51.5817 -50.8485 -23.5977 -23.3779 -23.3183 -22.7687 -22.6617 -22.6091
   -14.9260  -7.3045  -6.2676  -3.1321  -1.7089  -1.6529  -1.4000   0.3134
     5.2676   7.0687   7.1080   7.9230

          k = 0.0000-0.5000-0.5000 (  1492 PWs)   bands (ev):

   -51.5865 -50.8533 -23.6082 -23.3974 -23.3267 -22.8071 -22.6821 -22.6318
   -14.8278  -7.1722  -6.3828  -3.1169  -2.5204  -1.5861  -1.3121   0.5018
     4.7066   6.6834   7.0402   7.5387

          k =-0.5000-0.5000-0.5000 (  1472 PWs)   bands (ev):

   -51.5832 -50.8501 -23.6339 -23.3873 -23.3160 -22.7874 -22.6698 -22.6165
   -14.6886  -7.0605  -6.6401  -2.8522  -2.2911  -2.1387  -1.7936   0.1749
     5.9683   6.5033   7.0623   7.7387

          k =-0.5000 0.0000 0.0000 (  1462 PWs)   bands (ev):

   -51.5818 -50.8486 -23.6289 -23.3712 -23.3040 -22.7841 -22.6659 -22.6037
   -14.7906  -7.5273  -6.3657  -2.3966  -2.2378  -1.6990  -1.4370   0.4700
     5.0896   5.9307   6.7339   8.1063

          k = 0.0000-0.5000 0.0000 (  1462 PWs)   bands (ev):

   -51.5816 -50.8487 -23.5933 -23.3886 -23.3023 -22.7957 -22.6660 -22.6106
   -14.8355  -7.4232  -6.3054  -2.4320  -2.2508  -1.6893  -1.5426   0.4085
     5.1737   5.8196   6.8063   8.2243

          k =-0.5000 0.0000 0.5000 (  1492 PWs)   bands (ev):

   -51.5864 -50.8534 -23.6371 -23.3875 -23.3279 -22.7957 -22.6816 -22.6249
   -14.7862  -7.1916  -6.5939  -2.9094  -2.4809  -1.6061  -1.3285   0.5155
     4.9481   6.4053   6.9479   7.3475

          k =-0.5000 0.5000 0.0000 (  1492 PWs)   bands (ev):

   -51.5862 -50.8532 -23.6449 -23.3988 -23.3201 -22.8012 -22.6810 -22.6231
   -14.6954  -7.2304  -6.6828  -2.6333  -2.2312  -2.1781  -1.3474   0.4795
     5.0407   5.9880   7.2925   7.5801

     the Fermi energy is     0.7497 ev

!    total energy              =    -224.08389336 Ry
     Harris-Foulkes estimate   =    -224.08389326 Ry
     estimated scf accuracy    <       0.00000002 Ry

     The total energy is the sum of the following terms:

     one-electron contribution =    -196.13629003 Ry
     hartree contribution      =     104.11696660 Ry
     xc contribution           =     -41.72490017 Ry
     ewald contribution        =     -90.34088232 Ry
     smearing contrib. (-TS)   =       0.00121256 Ry

     convergence has been achieved in   8 iterations

     Forces acting on atoms (cartesian axes, Ry/au):

     atom    1 type  4   force =     0.01878398    0.08041942    0.02069460
     atom    2 type  4   force =     0.12927546   -0.01284278    0.04030062
     atom    3 type  3   force =    -0.04740949   -0.08806301    0.07919276
     atom    4 type  2   force =    -0.06833086    0.01575695   -0.08048498
     atom    5 type  2   force =    -0.03307940    0.00810821   -0.06844511
     atom    6 type  1   force =     0.00606083   -0.00302353   -0.02726727
     atom    7 type  2   force =     0.05104930   -0.00010784   -0.00985173
     atom    8 type  2   force =    -0.02783022    0.04557914   -0.01271978
     atom    9 type  2   force =    -0.02853793   -0.04530826   -0.01336757
     atom   10 type  2   force =     0.00001834   -0.00051830    0.07194847

     Total force =     0.217839     Total SCF correction =     0.000037


     Computing stress (Cartesian axis) and pressure

          total   stress  (Ry/bohr**3)                   (kbar)     P= -135.81
  -0.00050909   0.00014015   0.00008618        -74.89     20.62     12.68
   0.00014015  -0.00080911  -0.00000167         20.62   -119.02     -0.25
   0.00008618  -0.00000167  -0.00145143         12.68     -0.25   -213.51


     BFGS Geometry Optimization

     number of scf cycles    =   1
     number of bfgs steps    =   0

     enthalpy new            =    -224.0838933607 Ry

     new trust radius        =       0.1924306117 bohr
     new conv_thr            =       0.0000001000 Ry

     new unit-cell volume =    653.12025 a.u.^3 (    96.78243 Ang^3 )
     density =      1.31846 g/cm^3

CELL_PARAMETERS (angstrom)
   4.640182085   0.016467545   0.010125830
   0.016467545   4.604929160  -0.000196095
   0.010125830  -0.000196095   4.529457554

ATOMIC_POSITIONS (angstrom)
Na       2.325153958   0.008135725   2.269791692    0   0   0
Na       0.013296688   2.302366532   2.264630729    0   0   0
N        2.308546019   2.264852352   2.310027922
H        3.209113160   2.321895851   1.915744024
H        1.862042165   3.097123638   1.918905145
B        0.000000000   0.000000000   0.000000000    0   0   0
H        1.114869385   0.003920159  -0.378438013
H       -0.556483222   0.957640408  -0.383596232
H       -0.563716444  -0.961436255  -0.383845676
H        0.002611335  -0.000319092   1.164237819


     NEW-OLD atomic charge density approx. for the potential

     Check: negative core charge=   -0.000002
     extrapolated charge   29.67306, renormalised to   32.00000

     total cpu time spent up to now is       30.3 secs

     Self-consistent Calculation

     iteration #  1     ecut=    25.00 Ry     beta= 0.50
     Davidson diagonalization with overlap
     ethr =  1.00E-06,  avg # of iterations =  9.8

     total cpu time spent up to now is       33.0 secs

     total energy              =    -223.63796300 Ry
     Harris-Foulkes estimate   =    -234.95951691 Ry
     estimated scf accuracy    <       0.35750622 Ry

     iteration #  2     ecut=    25.00 Ry     beta= 0.50
     Davidson diagonalization with overlap
     ethr =  1.12E-03,  avg # of iterations =  3.5

     total cpu time spent up to now is       34.6 secs

     total energy              =    -224.15903711 Ry
     Harris-Foulkes estimate   =    -224.31594058 Ry
     estimated scf accuracy    <       0.45122878 Ry

     iteration #  3     ecut=    25.00 Ry     beta= 0.50
     Davidson diagonalization with overlap
     ethr =  1.12E-03,  avg # of iterations =  2.0

     total cpu time spent up to now is       35.9 secs

     total energy              =    -224.17449708 Ry
     Harris-Foulkes estimate   =    -224.19488633 Ry
     estimated scf accuracy    <       0.07431544 Ry

     iteration #  4     ecut=    25.00 Ry     beta= 0.50
     Davidson diagonalization with overlap
     ethr =  2.32E-04,  avg # of iterations =  1.0

     total cpu time spent up to now is       37.0 secs

     total energy              =    -224.15702545 Ry
     Harris-Foulkes estimate   =    -224.17708846 Ry
     estimated scf accuracy    <       0.03301308 Ry

     iteration #  5     ecut=    25.00 Ry     beta= 0.50
     Davidson diagonalization with overlap
     ethr =  1.03E-04,  avg # of iterations =  2.5

     total cpu time spent up to now is       38.4 secs

     total energy              =    -224.16479042 Ry
     Harris-Foulkes estimate   =    -224.16497074 Ry
     estimated scf accuracy    <       0.00036118 Ry

     iteration #  6     ecut=    25.00 Ry     beta= 0.50
     Davidson diagonalization with overlap
     ethr =  1.13E-06,  avg # of iterations =  4.4

     total cpu time spent up to now is       40.0 secs

     total energy              =    -224.16486895 Ry
     Harris-Foulkes estimate   =    -224.16486356 Ry
     estimated scf accuracy    <       0.00001062 Ry

     iteration #  7     ecut=    25.00 Ry     beta= 0.50
     Davidson diagonalization with overlap
     ethr =  3.32E-08,  avg # of iterations =  2.0

     total cpu time spent up to now is       41.4 secs

     total energy              =    -224.16486127 Ry
     Harris-Foulkes estimate   =    -224.16487275 Ry
     estimated scf accuracy    <       0.00002244 Ry

     iteration #  8     ecut=    25.00 Ry     beta= 0.50
     Davidson diagonalization with overlap
     ethr =  3.32E-08,  avg # of iterations =  2.0

     total cpu time spent up to now is       42.8 secs

     total energy              =    -224.16486367 Ry
     Harris-Foulkes estimate   =    -224.16486420 Ry
     estimated scf accuracy    <       0.00000084 Ry

     iteration #  9     ecut=    25.00 Ry     beta= 0.50
     Davidson diagonalization with overlap
     ethr =  2.63E-09,  avg # of iterations =  2.2

     total cpu time spent up to now is       44.2 secs

     total energy              =    -224.16486393 Ry
     Harris-Foulkes estimate   =    -224.16486398 Ry
     estimated scf accuracy    <       0.00000012 Ry

     iteration # 10     ecut=    25.00 Ry     beta= 0.50
     Davidson diagonalization with overlap
     ethr =  3.83E-10,  avg # of iterations =  2.0

     total cpu time spent up to now is       45.6 secs

     End of self-consistent calculation

          k = 0.0000 0.0000 0.0000 (  1419 PWs)   bands (ev):

   -50.8506 -50.1942 -22.8715 -22.6846 -22.6261 -22.1502 -22.0422 -21.9847
   -14.4516  -7.2691  -5.3430  -2.0841  -1.7006  -1.3981  -0.8690   1.0323
     4.5530   6.0815   6.5501   8.6135

          k = 0.0011-0.0000-0.5188 (  1462 PWs)   bands (ev):

   -50.8557 -50.1994 -22.8892 -22.7012 -22.6498 -22.1641 -22.0608 -22.0034
   -14.4382  -7.0484  -5.3083  -2.9259  -1.4680  -1.3753  -1.2692   0.6887
     5.9606   7.4646   7.7531   8.3789

          k = 0.0029-0.5104-0.5189 (  1492 PWs)   bands (ev):

   -50.8591 -50.2027 -22.8958 -22.7152 -22.6547 -22.2044 -22.0741 -22.0248
   -14.3114  -6.8884  -5.4588  -2.9115  -2.3673  -1.3255  -1.1237   0.8806
     5.2586   7.0609   7.3984   8.5084

          k =-0.5035-0.5085-0.5177 (  1472 PWs)   bands (ev):

   -50.8570 -50.2007 -22.9327 -22.7090 -22.6502 -22.1819 -22.0667 -22.0124
   -14.1539  -6.7646  -5.7416  -2.6143  -2.1042  -1.9383  -1.6774   0.4790
     6.5949   6.9872   7.8875   8.2438

          k =-0.5065 0.0018 0.0011 (  1462 PWs)   bands (ev):

   -50.8564 -50.2000 -22.9222 -22.6955 -22.6420 -22.1774 -22.0661 -22.0033
   -14.2881  -7.2767  -5.4645  -2.2255  -1.8712  -1.4596  -1.2596   0.8569
     5.7920   6.4668   7.1417   8.6600

          k = 0.0018-0.5103-0.0000 (  1462 PWs)   bands (ev):

   -50.8561 -50.1999 -22.8852 -22.7085 -22.6397 -22.1962 -22.0625 -22.0116
   -14.3240  -7.1901  -5.3737  -2.2435  -1.8778  -1.5415  -1.3302   0.7853
     5.8657   6.4876   7.1582   8.6376

          k =-0.5076 0.0018 0.5200 (  1492 PWs)   bands (ev):

   -50.8591 -50.2029 -22.9291 -22.7060 -22.6565 -22.1863 -22.0768 -22.0156
   -14.2779  -6.9137  -5.7152  -2.6314  -2.3663  -1.3128  -1.1234   0.8993
     5.4122   6.8013   7.4418   8.3414

          k =-0.5083 0.5121 0.0012 (  1492 PWs)   bands (ev):

   -50.8592 -50.2029 -22.9406 -22.7167 -22.6529 -22.1916 -22.0738 -22.0177
   -14.1643  -6.9758  -5.8216  -2.5380  -1.9680  -1.8035  -1.1552   0.8656
     5.6526   6.3379   7.9044   8.1528

     the Fermi energy is     1.1547 ev

!    total energy              =    -224.16486396 Ry
     Harris-Foulkes estimate   =    -224.16486395 Ry
     estimated scf accuracy    <          2.4E-10 Ry

     The total energy is the sum of the following terms:

     one-electron contribution =    -190.10279958 Ry
     hartree contribution      =     101.72696165 Ry
     xc contribution           =     -41.76342262 Ry
     ewald contribution        =     -94.02682986 Ry
     smearing contrib. (-TS)   =       0.00122645 Ry

     convergence has been achieved in  10 iterations

     Forces acting on atoms (cartesian axes, Ry/au):

     atom    1 type  4   force =     0.02246591    0.07613379    0.02203016
     atom    2 type  4   force =     0.11309852   -0.01370826    0.03938034
     atom    3 type  3   force =    -0.06178221   -0.00336669    0.04221931
     atom    4 type  2   force =    -0.05621949    0.00396022   -0.07761068
     atom    5 type  2   force =    -0.01612159   -0.05889310   -0.03991777
     atom    6 type  1   force =     0.00801997   -0.00680423   -0.03252845
     atom    7 type  2   force =     0.03830373   -0.00114954   -0.00589821
     atom    8 type  2   force =    -0.02472454    0.04001579   -0.01028666
     atom    9 type  2   force =    -0.02225554   -0.03556224   -0.00987987
     atom   10 type  2   force =    -0.00078477   -0.00062575    0.07249183

     Total force =     0.176260     Total SCF correction =     0.000018


     Computing stress (Cartesian axis) and pressure

          total   stress  (Ry/bohr**3)                   (kbar)     P=  -74.29
  -0.00017434   0.00015439   0.00004146        -25.65     22.71      6.10
   0.00015439  -0.00043950   0.00007212         22.71    -64.65     10.61
   0.00004146   0.00007212  -0.00090128          6.10     10.61   -132.58


     number of scf cycles    =   2
     number of bfgs steps    =   1

     enthalpy old            =    -224.0838933607 Ry
     enthalpy new            =    -224.1648639566 Ry

     CASE: enthalpy_new < enthalpy_old

     new trust radius        =       0.2121037065 bohr
     new conv_thr            =       0.0000000776 Ry

     new unit-cell volume =    607.32148 a.u.^3 (    89.99576 Ang^3 )
     density =      1.41788 g/cm^3

CELL_PARAMETERS (angstrom)
   4.595636542   0.044051258   0.019601046
   0.044107671   4.510601973   0.010055821
   0.019551727   0.010203457   4.342032810

ATOMIC_POSITIONS (angstrom)
Na       2.307594134   0.027127358   2.180816928    0   0   0
Na       0.031829699   2.260402715   2.176044316    0   0   0
N        2.256366658   2.220212364   2.262257476
H        3.147491531   2.302372610   1.788326529
H        1.849957695   3.012669135   1.815030917
B        0.000000000   0.000000000   0.000000000    0   0   0
H        1.137101077   0.009326715  -0.365351736
H       -0.566719521   0.966651951  -0.375089739
H       -0.584765224  -0.976500171  -0.379587139
H        0.004867945   0.001996074   1.171424031


     NEW-OLD atomic charge density approx. for the potential

     Check: negative core charge=   -0.000001
     extrapolated charge   29.58782, renormalised to   32.00000

     total cpu time spent up to now is       59.9 secs

     Self-consistent Calculation

     iteration #  1     ecut=    25.00 Ry     beta= 0.50
     Davidson diagonalization with overlap
     ethr =  1.00E-06,  avg # of iterations = 10.4

     total cpu time spent up to now is       62.6 secs

     total energy              =    -223.64944964 Ry
     Harris-Foulkes estimate   =    -235.02400838 Ry
     estimated scf accuracy    <       0.40373726 Ry

     iteration #  2     ecut=    25.00 Ry     beta= 0.50
     Davidson diagonalization with overlap
     ethr =  1.26E-03,  avg # of iterations =  3.5

     total cpu time spent up to now is       64.3 secs

     total energy              =    -224.21758046 Ry
     Harris-Foulkes estimate   =    -224.39108422 Ry
     estimated scf accuracy    <       0.49410300 Ry

     iteration #  3     ecut=    25.00 Ry     beta= 0.50
     Davidson diagonalization with overlap
     ethr =  1.26E-03,  avg # of iterations =  2.0

     total cpu time spent up to now is       65.5 secs

     total energy              =    -224.23603496 Ry
     Harris-Foulkes estimate   =    -224.25751239 Ry
     estimated scf accuracy    <       0.07992622 Ry

     iteration #  4     ecut=    25.00 Ry     beta= 0.50
     Davidson diagonalization with overlap
     ethr =  2.50E-04,  avg # of iterations =  1.0

     total cpu time spent up to now is       66.6 secs

     total energy              =    -224.21688336 Ry
     Harris-Foulkes estimate   =    -224.23876902 Ry
     estimated scf accuracy    <       0.03568733 Ry

     iteration #  5     ecut=    25.00 Ry     beta= 0.50
     Davidson diagonalization with overlap
     ethr =  1.12E-04,  avg # of iterations =  3.4

     total cpu time spent up to now is       68.1 secs

     total energy              =    -224.22547184 Ry
     Harris-Foulkes estimate   =    -224.22565060 Ry
     estimated scf accuracy    <       0.00045974 Ry

     iteration #  6     ecut=    25.00 Ry     beta= 0.50
     Davidson diagonalization with overlap
     ethr =  1.44E-06,  avg # of iterations =  5.2

     total cpu time spent up to now is       69.5 secs

     total energy              =    -224.22552060 Ry
     Harris-Foulkes estimate   =    -224.22553117 Ry
     estimated scf accuracy    <       0.00005126 Ry

     iteration #  7     ecut=    25.00 Ry     beta= 0.50
     Davidson diagonalization with overlap
     ethr =  1.60E-07,  avg # of iterations =  2.0

     total cpu time spent up to now is       70.7 secs

     total energy              =    -224.22551347 Ry
     Harris-Foulkes estimate   =    -224.22552420 Ry
     estimated scf accuracy    <       0.00001900 Ry

     iteration #  8     ecut=    25.00 Ry     beta= 0.50
     Davidson diagonalization with overlap
     ethr =  5.94E-08,  avg # of iterations =  2.0

     total cpu time spent up to now is       72.1 secs

     total energy              =    -224.22551661 Ry
     Harris-Foulkes estimate   =    -224.22551670 Ry
     estimated scf accuracy    <       0.00000021 Ry

     iteration #  9     ecut=    25.00 Ry     beta= 0.50
     Davidson diagonalization with overlap
     ethr =  6.62E-10,  avg # of iterations =  3.0

     total cpu time spent up to now is       73.6 secs

     total energy              =    -224.22551668 Ry
     Harris-Foulkes estimate   =    -224.22551674 Ry
     estimated scf accuracy    <       0.00000012 Ry

     iteration # 10     ecut=    25.00 Ry     beta= 0.50
     Davidson diagonalization with overlap
     ethr =  3.79E-10,  avg # of iterations =  2.0

     total cpu time spent up to now is       74.9 secs

     End of self-consistent calculation

          k = 0.0000 0.0000 0.0000 (  1419 PWs)   bands (ev):

   -50.0747 -49.4855 -22.0976 -21.9533 -21.9033 -21.4643 -21.3753 -21.3174
   -14.0918  -7.0036  -4.5241  -1.7091  -1.4092  -1.0486  -0.5315   1.5007
     5.4207   6.3435   6.8921   9.1338

          k = 0.0023 0.0012-0.5412 (  1462 PWs)   bands (ev):

   -50.0777 -49.4885 -22.1100 -21.9638 -21.9187 -21.4743 -21.3878 -21.3288
   -14.0679  -6.7125  -4.4539  -2.6902  -1.2156  -1.0621  -0.9764   1.1142
     6.7123   7.8157   8.5626   8.9032

          k = 0.0073-0.5199-0.5400 (  1492 PWs)   bands (ev):

   -50.0801 -49.4908 -22.1133 -21.9735 -21.9211 -21.5187 -21.3972 -21.3516
   -13.9120  -6.5142  -4.6455  -2.6337  -2.1993  -1.0318  -0.7988   1.2884
     5.8640   7.4398   7.9156   8.8502

          k =-0.5041-0.5149-0.5377 (  1472 PWs)   bands (ev):

   -50.0788 -49.4897 -22.1633 -21.9709 -21.9220 -21.4915 -21.3929 -21.3401
   -13.7410  -6.3792  -4.9282  -2.3310  -1.9006  -1.7016  -1.4170   0.8045
     7.2585   7.5351   8.7630   8.9923

          k =-0.5114 0.0050 0.0023 (  1462 PWs)   bands (ev):

   -50.0787 -49.4895 -22.1460 -21.9587 -21.9144 -21.4870 -21.3944 -21.3321
   -13.9103  -7.0066  -4.6125  -2.0390  -1.3988  -1.1728  -0.9481   1.2975
     6.5335   7.1240   7.6100   9.4036

          k = 0.0050-0.5210 0.0012 (  1462 PWs)   bands (ev):

   -50.0783 -49.4892 -22.1059 -21.9686 -21.9114 -21.5130 -21.3893 -21.3427
   -13.9322  -6.9012  -4.5447  -2.0330  -1.3901  -1.2914  -1.0310   1.2042
     6.6094   7.1267   7.5545   9.3676

          k =-0.5137 0.0038 0.5435 (  1492 PWs)   bands (ev):

   -50.0802 -49.4912 -22.1518 -21.9648 -21.9237 -21.4934 -21.4022 -21.3394
   -13.8919  -6.5573  -4.9406  -2.3198  -2.2244  -0.9680  -0.7669   1.3209
     6.0508   7.1957   7.9945   9.5171

          k =-0.5164 0.5260 0.0011 (  1492 PWs)   bands (ev):

   -50.0804 -49.4912 -22.1693 -21.9759 -21.9225 -21.4980 -21.3970 -21.3431
   -13.7575  -6.6575  -5.0723  -2.3890  -1.6454  -1.3110  -0.8587   1.3010
     6.4089   6.7002   8.4763   8.8462

     the Fermi energy is     1.6151 ev

!    total energy              =    -224.22551670 Ry
     Harris-Foulkes estimate   =    -224.22551670 Ry
     estimated scf accuracy    <          2.5E-09 Ry

     The total energy is the sum of the following terms:

     one-electron contribution =    -183.50131255 Ry
     hartree contribution      =      99.11102831 Ry
     xc contribution           =     -41.81048426 Ry
     ewald contribution        =     -98.02599064 Ry
     smearing contrib. (-TS)   =       0.00124244 Ry

     convergence has been achieved in  10 iterations

     Forces acting on atoms (cartesian axes, Ry/au):

     atom    1 type  4   force =     0.02322599    0.06141539    0.01852916
     atom    2 type  4   force =     0.08445420   -0.01354674    0.03585534
     atom    3 type  3   force =     0.01910020   -0.01267099    0.02769558
     atom    4 type  2   force =    -0.07304501   -0.01475066   -0.05158604
     atom    5 type  2   force =    -0.04832283   -0.01588443   -0.05268267
     atom    6 type  1   force =     0.00943486   -0.01211714   -0.03052710
     atom    7 type  2   force =     0.01556474   -0.00249336    0.00143735
     atom    8 type  2   force =    -0.01806804    0.02760037   -0.00529164
     atom    9 type  2   force =    -0.01050105   -0.01657110   -0.00243173
     atom   10 type  2   force =    -0.00184307   -0.00098135    0.05900174

     Total force =     0.141819     Total SCF correction =     0.000014


     Computing stress (Cartesian axis) and pressure

          total   stress  (Ry/bohr**3)                   (kbar)     P=  -17.82
   0.00002615  -0.00000621   0.00009206          3.85     -0.91     13.54
  -0.00000621   0.00003381   0.00003201         -0.91      4.97      4.71
   0.00009206   0.00003201  -0.00042329         13.54      4.71    -62.27


     number of scf cycles    =   3
     number of bfgs steps    =   2

     enthalpy old            =    -224.1648639566 Ry
     enthalpy new            =    -224.2255167047 Ry

     CASE: enthalpy_new < enthalpy_old

     new trust radius        =       0.3131949192 bohr
     new conv_thr            =       0.0000000730 Ry

     new unit-cell volume =    553.23246 a.u.^3 (    81.98059 Ang^3 )
     density =      1.55651 g/cm^3

CELL_PARAMETERS (angstrom)
   4.554776539   0.067263263   0.048773082
   0.067339076   4.426031345   0.024890129
   0.049465197   0.025388638   4.068159822

ATOMIC_POSITIONS (angstrom)
Na       2.302120868   0.046325951   2.058466452    0   0   0
Na       0.058402137   2.225709991   2.046524975    0   0   0
N        2.240989708   2.164574980   2.200105389
H        3.023308374   2.269652060   1.607144785
H        1.794494093   2.927777884   1.644624539
B        0.000000000   0.000000000   0.000000000    0   0   0
H        1.171287872   0.011681394  -0.337585690
H       -0.595472635   0.999869824  -0.363713285
H       -0.616789491  -1.006720555  -0.372610327
H        0.012159453   0.005417373   1.194950749


     NEW-OLD atomic charge density approx. for the potential

     Check: negative core charge=   -0.000001
     extrapolated charge   28.87265, renormalised to   32.00000

     total cpu time spent up to now is       89.0 secs

     Self-consistent Calculation

     iteration #  1     ecut=    25.00 Ry     beta= 0.50
     Davidson diagonalization with overlap
     ethr =  1.00E-06,  avg # of iterations = 10.0

     total cpu time spent up to now is       91.9 secs

     total energy              =    -223.36038346 Ry
     Harris-Foulkes estimate   =    -237.44125031 Ry
     estimated scf accuracy    <       0.64807906 Ry

     iteration #  2     ecut=    25.00 Ry     beta= 0.50
     Davidson diagonalization with overlap
     ethr =  2.03E-03,  avg # of iterations =  3.2

     total cpu time spent up to now is       93.5 secs

     total energy              =    -224.25195524 Ry
     Harris-Foulkes estimate   =    -224.52908134 Ry
     estimated scf accuracy    <       0.78525893 Ry

     iteration #  3     ecut=    25.00 Ry     beta= 0.50
     Davidson diagonalization with overlap
     ethr =  2.03E-03,  avg # of iterations =  2.0

     total cpu time spent up to now is       94.7 secs

     total energy              =    -224.28331656 Ry
     Harris-Foulkes estimate   =    -224.31745114 Ry
     estimated scf accuracy    <       0.12287232 Ry

     iteration #  4     ecut=    25.00 Ry     beta= 0.50
     Davidson diagonalization with overlap
     ethr =  3.84E-04,  avg # of iterations =  1.6

     total cpu time spent up to now is       95.9 secs

     total energy              =    -224.25567743 Ry
     Harris-Foulkes estimate   =    -224.28784501 Ry
     estimated scf accuracy    <       0.05233954 Ry

     iteration #  5     ecut=    25.00 Ry     beta= 0.50
     Davidson diagonalization with overlap
     ethr =  1.64E-04,  avg # of iterations =  2.5

     total cpu time spent up to now is       97.3 secs

     total energy              =    -224.26888858 Ry
     Harris-Foulkes estimate   =    -224.26915850 Ry
     estimated scf accuracy    <       0.00099657 Ry

     iteration #  6     ecut=    25.00 Ry     beta= 0.50
     Davidson diagonalization with overlap
     ethr =  3.11E-06,  avg # of iterations =  3.9

     total cpu time spent up to now is       98.7 secs

     total energy              =    -224.26880959 Ry
     Harris-Foulkes estimate   =    -224.26895856 Ry
     estimated scf accuracy    <       0.00030580 Ry

     iteration #  7     ecut=    25.00 Ry     beta= 0.50
     Davidson diagonalization with overlap
     ethr =  9.56E-07,  avg # of iterations =  2.0

     total cpu time spent up to now is      100.0 secs

     total energy              =    -224.26885240 Ry
     Harris-Foulkes estimate   =    -224.26885735 Ry
     estimated scf accuracy    <       0.00000946 Ry

     iteration #  8     ecut=    25.00 Ry     beta= 0.50
     Davidson diagonalization with overlap
     ethr =  2.96E-08,  avg # of iterations =  2.0

     total cpu time spent up to now is      101.3 secs

     total energy              =    -224.26885331 Ry
     Harris-Foulkes estimate   =    -224.26885367 Ry
     estimated scf accuracy    <       0.00000074 Ry

     iteration #  9     ecut=    25.00 Ry     beta= 0.50
     Davidson diagonalization with overlap
     ethr =  2.30E-09,  avg # of iterations =  2.1

     total cpu time spent up to now is      102.8 secs

     End of self-consistent calculation

          k = 0.0000 0.0000 0.0000 (  1419 PWs)   bands (ev):

   -49.0078 -48.5012 -21.0034 -20.9329 -20.8942 -20.4915 -20.4329 -20.3645
   -13.4827  -6.5868  -3.3905  -1.1868  -0.8662  -0.4853   0.0915   2.1946
     6.4651   6.8590   7.3073   9.4572

          k = 0.0061 0.0032-0.5778 (  1462 PWs)   bands (ev):

   -49.0091 -48.5025 -21.0112 -20.9412 -20.9036 -20.5004 -20.4412 -20.3703
   -13.4326  -6.1481  -3.2142  -2.3287  -0.8626  -0.6432  -0.4639   1.7555
     7.6358   8.2582   9.3089   9.7044

          k = 0.0139-0.5279-0.5745 (  1492 PWs)   bands (ev):

   -49.0108 -48.5042 -21.0114 -20.9457 -20.9058 -20.5468 -20.4499 -20.4014
   -13.2459  -5.8899  -3.4868  -2.2470  -1.8982  -0.6162  -0.2078   1.8745
     6.6938   7.8909   8.3724   9.1639

          k =-0.5022-0.5201-0.5683 (  1472 PWs)   bands (ev):

   -49.0102 -48.5037 -21.0777 -20.9459 -20.9135 -20.5139 -20.4473 -20.3861
   -13.0692  -5.7394  -3.7031  -1.9134  -1.6220  -1.3417  -0.9541   1.2986
     8.0775   8.3307   9.4294  10.1765

          k =-0.5161 0.0078 0.0062 (  1462 PWs)   bands (ev):

   -49.0103 -48.5039 -21.0497 -20.9333 -20.9009 -20.5109 -20.4494 -20.3779
   -13.2883  -6.5916  -3.3375  -1.7789  -0.7166  -0.5804  -0.4064   1.9388
     7.2916   7.8654   8.4209  10.0887

          k = 0.0078-0.5311 0.0032 (  1462 PWs)   bands (ev):

   -49.0101 -48.5035 -21.0070 -20.9406 -20.8984 -20.5428 -20.4430 -20.3947
   -13.2865  -6.4667  -3.3164  -1.7320  -0.8909  -0.5844  -0.4977   1.8201
     7.4033   8.0284   8.3618   9.9322

          k =-0.5223 0.0047 0.5840 (  1492 PWs)   bands (ev):

   -49.0111 -48.5047 -21.0542 -20.9391 -20.9078 -20.5161 -20.4572 -20.3827
   -13.2480  -5.9559  -3.8441  -2.1393  -1.6841  -0.4425  -0.1482   1.9184
     6.7578   7.7040   8.5328  10.1328

          k =-0.5239 0.5389 0.0030 (  1492 PWs)   bands (ev):

   -49.0112 -48.5047 -21.0829 -20.9478 -20.9096 -20.5165 -20.4465 -20.3871
   -13.1048  -6.1687  -4.0349  -2.1331  -1.1200  -0.4504  -0.3144   1.9612
     6.9869   7.4815   9.4691   9.8130

     the Fermi energy is     2.3330 ev

!    total energy              =    -224.26885348 Ry
     Harris-Foulkes estimate   =    -224.26885352 Ry
     estimated scf accuracy    <       0.00000007 Ry

     The total energy is the sum of the following terms:

     one-electron contribution =    -173.63898236 Ry
     hartree contribution      =      95.14354906 Ry
     xc contribution           =     -41.82797611 Ry
     ewald contribution        =    -103.94638662 Ry
     smearing contrib. (-TS)   =       0.00094255 Ry

     convergence has been achieved in   9 iterations

     Forces acting on atoms (cartesian axes, Ry/au):

     atom    1 type  4   force =     0.02672964    0.03178855    0.00924579
     atom    2 type  4   force =     0.03247808   -0.01442237    0.02220734
     atom    3 type  3   force =    -0.04095589    0.06951043    0.00362207
     atom    4 type  2   force =     0.02235059   -0.02660010   -0.06952794
     atom    5 type  2   force =    -0.02714866   -0.05506739   -0.00619385
     atom    6 type  1   force =     0.00099231   -0.00801048   -0.01523096
     atom    7 type  2   force =    -0.01726973   -0.00330143    0.01130550
     atom    8 type  2   force =     0.00037096   -0.00682963    0.00761378
     atom    9 type  2   force =     0.00664645    0.01426849    0.00970410
     atom   10 type  2   force =    -0.00419377   -0.00133607    0.02725417

     Total force =     0.134228     Total SCF correction =     0.000184


     Computing stress (Cartesian axis) and pressure

          total   stress  (Ry/bohr**3)                   (kbar)     P=   31.25
   0.00029716   0.00001393  -0.00016361         43.71      2.05    -24.07
   0.00001393   0.00024637   0.00012906          2.05     36.24     18.99
  -0.00016361   0.00012906   0.00009379        -24.07     18.99     13.80


     number of scf cycles    =   4
     number of bfgs steps    =   3

     enthalpy old            =    -224.2255167047 Ry
     enthalpy new            =    -224.2688534784 Ry

     CASE: enthalpy_new < enthalpy_old

     new trust radius        =       0.1172133801 bohr
     new conv_thr            =       0.0000000695 Ry

     new unit-cell volume =    544.33370 a.u.^3 (    80.66193 Ang^3 )
     density =      1.58195 g/cm^3

CELL_PARAMETERS (angstrom)
   4.567498136   0.073219858   0.040301073
   0.073521681   4.422632155   0.040886721
   0.039102985   0.042304908   3.994881692

ATOMIC_POSITIONS (angstrom)
Na       2.303300561   0.057762383   2.017591383    0   0   0
Na       0.056312333   2.232468531   2.017884207    0   0   0
N        2.220723979   2.191671515   2.184881477
H        3.008414877   2.262028505   1.526875967
H        1.763185112   2.902211332   1.596191689
B        0.000000000   0.000000000   0.000000000    0   0   0
H        1.179350685   0.009400825  -0.329855927
H       -0.604409455   1.008301856  -0.352321227
H       -0.623196603  -1.013016653  -0.367077732
H        0.006839868   0.009762424   1.209992060


     NEW-OLD atomic charge density approx. for the potential

     Check: negative core charge=   -0.000001
     extrapolated charge   31.47708, renormalised to   32.00000

     total cpu time spent up to now is      117.1 secs

     Self-consistent Calculation

     iteration #  1     ecut=    25.00 Ry     beta= 0.50
     Davidson diagonalization with overlap
     ethr =  1.00E-06,  avg # of iterations =  7.8

     total cpu time spent up to now is      119.4 secs

     total energy              =    -224.25254715 Ry
     Harris-Foulkes estimate   =    -226.48630353 Ry
     estimated scf accuracy    <       0.02094244 Ry

     iteration #  2     ecut=    25.00 Ry     beta= 0.50
     Davidson diagonalization with overlap
     ethr =  6.54E-05,  avg # of iterations =  3.5

     total cpu time spent up to now is      121.1 secs

     total energy              =    -224.28229977 Ry
     Harris-Foulkes estimate   =    -224.29073952 Ry
     estimated scf accuracy    <       0.02395383 Ry

     iteration #  3     ecut=    25.00 Ry     beta= 0.50
     Davidson diagonalization with overlap
     ethr =  6.54E-05,  avg # of iterations =  1.9

     total cpu time spent up to now is      122.3 secs

     total energy              =    -224.28247045 Ry
     Harris-Foulkes estimate   =    -224.28399180 Ry
     estimated scf accuracy    <       0.00473600 Ry

     iteration #  4     ecut=    25.00 Ry     beta= 0.50
     Davidson diagonalization with overlap
     ethr =  1.48E-05,  avg # of iterations =  1.2

     total cpu time spent up to now is      123.5 secs

     total energy              =    -224.28164244 Ry
     Harris-Foulkes estimate   =    -224.28270235 Ry
     estimated scf accuracy    <       0.00166180 Ry

     iteration #  5     ecut=    25.00 Ry     beta= 0.50
     Davidson diagonalization with overlap
     ethr =  5.19E-06,  avg # of iterations =  2.9

     total cpu time spent up to now is      125.0 secs

     total energy              =    -224.28210433 Ry
     Harris-Foulkes estimate   =    -224.28215194 Ry
     estimated scf accuracy    <       0.00009671 Ry

     iteration #  6     ecut=    25.00 Ry     beta= 0.50
     Davidson diagonalization with overlap
     ethr =  3.02E-07,  avg # of iterations =  2.0

     total cpu time spent up to now is      126.3 secs

     total energy              =    -224.28211693 Ry
     Harris-Foulkes estimate   =    -224.28211862 Ry
     estimated scf accuracy    <       0.00000294 Ry

     iteration #  7     ecut=    25.00 Ry     beta= 0.50
     Davidson diagonalization with overlap
     ethr =  9.19E-09,  avg # of iterations =  2.2

     total cpu time spent up to now is      127.8 secs

     total energy              =    -224.28211781 Ry
     Harris-Foulkes estimate   =    -224.28211783 Ry
     estimated scf accuracy    <       0.00000013 Ry

     iteration #  8     ecut=    25.00 Ry     beta= 0.50
     Davidson diagonalization with overlap
     ethr =  3.91E-10,  avg # of iterations =  2.0

     total cpu time spent up to now is      129.0 secs

     End of self-consistent calculation

          k = 0.0000 0.0000 0.0000 (  1419 PWs)   bands (ev):

   -48.8040 -48.2804 -20.7939 -20.7354 -20.6971 -20.2602 -20.2200 -20.1463
   -13.2056  -6.5042  -3.1725  -1.0542  -0.7105  -0.3940   0.2715   2.3259
     6.4937   7.1156   7.3533   9.5733

          k = 0.0051 0.0054-0.5884 (  1462 PWs)   bands (ev):

   -48.8050 -48.2815 -20.8007 -20.7463 -20.7043 -20.2721 -20.2267 -20.1504
   -13.1420  -6.0176  -2.9403  -2.2419  -0.8190  -0.5518  -0.3914   1.9082
     7.7705   8.3130   9.4614   9.8235

          k = 0.0136-0.5262-0.5828 (  1492 PWs)   bands (ev):

   -48.8068 -48.2832 -20.8021 -20.7493 -20.7084 -20.3092 -20.2388 -20.1860
   -12.9597  -5.7436  -3.2403  -2.1639  -1.8310  -0.5645  -0.0320   1.9767
     6.8586   7.9588   8.4123   9.1007

          k =-0.5011-0.5177-0.5779 (  1472 PWs)   bands (ev):

   -48.8062 -48.2828 -20.8632 -20.7484 -20.7183 -20.2823 -20.2359 -20.1694
   -12.7863  -5.5955  -3.4252  -1.8300  -1.5789  -1.2653  -0.8392   1.4051
     8.2320   8.5384   9.4768  10.4467

          k =-0.5147 0.0085 0.0049 (  1462 PWs)   bands (ev):

   -48.8065 -48.2831 -20.8381 -20.7361 -20.7038 -20.2779 -20.2370 -20.1601
   -13.0123  -6.5224  -3.0571  -1.7245  -0.5820  -0.4261  -0.2322   2.0582
     7.3351   8.0509   8.5660  10.2595

          k = 0.0085-0.5315 0.0055 (  1462 PWs)   bands (ev):

   -48.8062 -48.2827 -20.7984 -20.7415 -20.7021 -20.3045 -20.2305 -20.1806
   -13.0116  -6.3818  -3.0735  -1.6642  -0.8085  -0.4237  -0.2508   1.9210
     7.4746   8.2021   8.4556   9.9643

          k =-0.5198 0.0032 0.5933 (  1492 PWs)   bands (ev):

   -48.8072 -48.2838 -20.8425 -20.7449 -20.7091 -20.2843 -20.2460 -20.1639
   -12.9608  -5.8199  -3.6106  -2.1236  -1.5621  -0.3623   0.0262   2.0264
     6.9949   7.6746   8.6565  10.1955

          k =-0.5232 0.5401-0.0006 (  1492 PWs)   bands (ev):

   -48.8073 -48.2839 -20.8687 -20.7473 -20.7152 -20.2828 -20.2341 -20.1709
   -12.8321  -6.0807  -3.8481  -2.0595  -0.9754  -0.2465  -0.1168   2.0978
     7.0208   7.6963   9.4975  10.0845

     the Fermi energy is     2.4741 ev

!    total energy              =    -224.28211781 Ry
     Harris-Foulkes estimate   =    -224.28211782 Ry
     estimated scf accuracy    <       0.00000003 Ry

     The total energy is the sum of the following terms:

     one-electron contribution =    -171.05321570 Ry
     hartree contribution      =      94.04804482 Ry
     xc contribution           =     -41.80157286 Ry
     ewald contribution        =    -105.47620864 Ry
     smearing contrib. (-TS)   =       0.00083458 Ry

     convergence has been achieved in   8 iterations

     Forces acting on atoms (cartesian axes, Ry/au):

     atom    1 type  4   force =     0.02550260    0.02645831    0.00530773
     atom    2 type  4   force =     0.01671556   -0.01410844    0.02057309
     atom    3 type  3   force =     0.02921944    0.05226948   -0.03021031
     atom    4 type  2   force =    -0.02634807   -0.03195272   -0.02505495
     atom    5 type  2   force =    -0.02967357   -0.02754326   -0.01492013
     atom    6 type  1   force =    -0.00068077   -0.00640756    0.00005523
     atom    7 type  2   force =    -0.02411942   -0.00273454    0.01288461
     atom    8 type  2   force =     0.00390693   -0.01366627    0.00853013
     atom    9 type  2   force =     0.00938911    0.01951692    0.01101830
     atom   10 type  2   force =    -0.00391181   -0.00183193    0.01181630

     Total force =     0.102382     Total SCF correction =     0.000145


     Computing stress (Cartesian axis) and pressure

          total   stress  (Ry/bohr**3)                   (kbar)     P=   25.03
   0.00014807  -0.00002989  -0.00005040         21.78     -4.40     -7.41
  -0.00002989   0.00024732   0.00008081         -4.40     36.38     11.89
  -0.00005040   0.00008081   0.00011501         -7.41     11.89     16.92


     number of scf cycles    =   5
     number of bfgs steps    =   4

     enthalpy old            =    -224.2688534784 Ry
     enthalpy new            =    -224.2821178067 Ry

     CASE: enthalpy_new < enthalpy_old

     new trust radius        =       0.1887043449 bohr
     new conv_thr            =       0.0000000523 Ry

     new unit-cell volume =    538.66135 a.u.^3 (    79.82138 Ang^3 )
     density =      1.59861 g/cm^3

CELL_PARAMETERS (angstrom)
   4.591874448   0.076078846   0.025925930
   0.076912451   4.442699918   0.069055326
   0.022013981   0.072470286   3.915112069

ATOMIC_POSITIONS (angstrom)
Na       2.306944214   0.074274566   1.970519000    0   0   0
Na       0.049463216   2.257585102   1.992083698    0   0   0
N        2.224527466   2.268584400   2.155878578
H        2.967899298   2.243465465   1.428323577
H        1.703887098   2.875271208   1.537069623
B        0.000000000   0.000000000   0.000000000    0   0   0
H        1.174930727   0.002774042  -0.316341579
H       -0.613941098   1.014097457  -0.332315712
H       -0.623757851  -1.013110923  -0.356726407
H       -0.003906104   0.017252310   1.232787639


     NEW-OLD atomic charge density approx. for the potential

     Check: negative core charge=   -0.000002
     extrapolated charge   31.66316, renormalised to   32.00000

     total cpu time spent up to now is      143.3 secs

     Self-consistent Calculation

     iteration #  1     ecut=    25.00 Ry     beta= 0.50
     Davidson diagonalization with overlap
     ethr =  1.00E-06,  avg # of iterations =  9.0

     total cpu time spent up to now is      145.7 secs

     total energy              =    -224.28559133 Ry
     Harris-Foulkes estimate   =    -225.69828319 Ry
     estimated scf accuracy    <       0.01162238 Ry

     iteration #  2     ecut=    25.00 Ry     beta= 0.50
     Davidson diagonalization with overlap
     ethr =  3.63E-05,  avg # of iterations =  3.4

     total cpu time spent up to now is      147.3 secs

     total energy              =    -224.29837477 Ry
     Harris-Foulkes estimate   =    -224.30232898 Ry
     estimated scf accuracy    <       0.01118120 Ry

     iteration #  3     ecut=    25.00 Ry     beta= 0.50
     Davidson diagonalization with overlap
     ethr =  3.49E-05,  avg # of iterations =  1.9

     total cpu time spent up to now is      148.5 secs

     total energy              =    -224.29854969 Ry
     Harris-Foulkes estimate   =    -224.29924569 Ry
     estimated scf accuracy    <       0.00200767 Ry

     iteration #  4     ecut=    25.00 Ry     beta= 0.50
     Davidson diagonalization with overlap
     ethr =  6.27E-06,  avg # of iterations =  2.0

     total cpu time spent up to now is      149.8 secs

     total energy              =    -224.29843443 Ry
     Harris-Foulkes estimate   =    -224.29869470 Ry
     estimated scf accuracy    <       0.00050377 Ry

     iteration #  5     ecut=    25.00 Ry     beta= 0.50
     Davidson diagonalization with overlap
     ethr =  1.57E-06,  avg # of iterations =  2.8

     total cpu time spent up to now is      151.3 secs

     total energy              =    -224.29856056 Ry
     Harris-Foulkes estimate   =    -224.29859300 Ry
     estimated scf accuracy    <       0.00005780 Ry

     iteration #  6     ecut=    25.00 Ry     beta= 0.50
     Davidson diagonalization with overlap
     ethr =  1.81E-07,  avg # of iterations =  2.0

     total cpu time spent up to now is      152.7 secs

     total energy              =    -224.29857320 Ry
     Harris-Foulkes estimate   =    -224.29857315 Ry
     estimated scf accuracy    <       0.00000033 Ry

     iteration #  7     ecut=    25.00 Ry     beta= 0.50
     Davidson diagonalization with overlap
     ethr =  1.04E-09,  avg # of iterations =  2.4

     total cpu time spent up to now is      154.0 secs

     End of self-consistent calculation

          k = 0.0000 0.0000 0.0000 (  1419 PWs)   bands (ev):

   -48.6738 -48.0813 -20.6505 -20.6122 -20.5647 -20.0496 -20.0247 -19.9414
   -13.0716  -6.4786  -3.1877  -0.9104  -0.5853  -0.3839   0.5145   2.3643
     6.4631   7.3025   7.4448   9.7444

          k = 0.0032 0.0093-0.6004 (  1462 PWs)   bands (ev):

   -48.6746 -48.0821 -20.6546 -20.6298 -20.5683 -20.0691 -20.0269 -19.9436
   -12.9933  -5.9277  -2.9169  -2.1680  -0.8432  -0.4684  -0.3603   2.0476
     7.9081   8.3455   9.6573  10.0269

          k = 0.0120-0.5200-0.5907 (  1492 PWs)   bands (ev):

   -48.6767 -48.0841 -20.6611 -20.6294 -20.5759 -20.0827 -20.0506 -19.9867
   -12.8298  -5.6518  -3.1817  -2.1118  -1.8068  -0.6030   0.2116   2.0162
     7.0174   8.0338   8.4597   9.0979

          k =-0.5000-0.5112-0.5880 (  1472 PWs)   bands (ev):

   -48.6762 -48.0837 -20.7101 -20.6274 -20.5881 -20.0701 -20.0445 -19.9683
   -12.6686  -5.5113  -3.3584  -1.7892  -1.5462  -1.2473  -0.6463   1.4838
     8.3634   8.8066   9.4414  10.5721

          k =-0.5119 0.0088 0.0027 (  1462 PWs)   bands (ev):

   -48.6765 -48.0841 -20.6922 -20.6134 -20.5741 -20.0606 -20.0473 -19.9554
   -12.8895  -6.5125  -3.0153  -1.7231  -0.5417  -0.1723   0.0245   2.0736
     7.3142   8.1514   8.6656  10.3881

          k = 0.0087-0.5293 0.0097 (  1462 PWs)   bands (ev):

   -48.6762 -48.0836 -20.6594 -20.6148 -20.5727 -20.0746 -20.0417 -19.9835
   -12.8949  -6.3591  -3.0569  -1.6576  -0.7946  -0.1306   0.0291   1.9004
     7.5001   8.3723   8.5099   9.9614

          k =-0.5152-0.0005 0.6031 (  1492 PWs)   bands (ev):

   -48.6772 -48.0848 -20.6960 -20.6282 -20.5766 -20.0713 -20.0563 -19.9575
   -12.8248  -5.7333  -3.5436  -2.1296  -1.5173  -0.3639   0.2403   2.0770
     7.2289   7.6579   8.7640  10.2205

          k =-0.5206 0.5381-0.0070 (  1492 PWs)   bands (ev):

   -48.6773 -48.0849 -20.7169 -20.6178 -20.5905 -20.0639 -20.0452 -19.9717
   -12.7269  -6.0632  -3.8442  -1.9606  -0.9426  -0.0440   0.1754   2.1473
     7.0073   7.8386   9.6747  10.3991

     the Fermi energy is     2.5055 ev

!    total energy              =    -224.29857336 Ry
     Harris-Foulkes estimate   =    -224.29857330 Ry
     estimated scf accuracy    <       0.00000002 Ry

     The total energy is the sum of the following terms:

     one-electron contribution =    -168.73007313 Ry
     hartree contribution      =      93.03432544 Ry
     xc contribution           =     -41.79942898 Ry
     ewald contribution        =    -106.80430944 Ry
     smearing contrib. (-TS)   =       0.00091275 Ry

     convergence has been achieved in   7 iterations

     Forces acting on atoms (cartesian axes, Ry/au):

     atom    1 type  4   force =     0.02163437    0.02704527    0.00226475
     atom    2 type  4   force =    -0.00480893   -0.01392554    0.01920401
     atom    3 type  3   force =     0.05253430    0.00823073   -0.02501711
     atom    4 type  2   force =    -0.02747270   -0.02472497   -0.00973661
     atom    5 type  2   force =    -0.02664929    0.00767397   -0.03177731
     atom    6 type  1   force =    -0.00795706   -0.00279364    0.02746456
     atom    7 type  2   force =    -0.01936169   -0.00087109    0.00972426
     atom    8 type  2   force =     0.00580695   -0.01715975    0.00667214
     atom    9 type  2   force =     0.00884623    0.01912856    0.00955539
     atom   10 type  2   force =    -0.00257219   -0.00260355   -0.00835409

     Total force =     0.090304     Total SCF correction =     0.000152


     Computing stress (Cartesian axis) and pressure

          total   stress  (Ry/bohr**3)                   (kbar)     P=   19.28
   0.00005703  -0.00002034  -0.00002382          8.39     -2.99     -3.50
  -0.00002034   0.00015541  -0.00004210         -2.99     22.86     -6.19
  -0.00002382  -0.00004210   0.00018078         -3.50     -6.19     26.59


     number of scf cycles    =   6
     number of bfgs steps    =   5

     enthalpy old            =    -224.2821178067 Ry
     enthalpy new            =    -224.2985733563 Ry

     CASE: enthalpy_new < enthalpy_old

     new trust radius        =       0.1678997296 bohr
     new conv_thr            =       0.0000000525 Ry

     new unit-cell volume =    544.45252 a.u.^3 (    80.67954 Ang^3 )
     density =      1.58161 g/cm^3

CELL_PARAMETERS (angstrom)
   4.624562684   0.077595889   0.004164812
   0.079012532   4.479326956   0.083538913
  -0.003094400   0.087498432   3.897535655

ATOMIC_POSITIONS (angstrom)
Na       2.310734142   0.082547160   1.950850233    0   0   0
Na       0.037959066   2.283412694   1.990537284    0   0   0
N        2.250175436   2.342592827   2.138684134
H        2.940934755   2.220657231   1.351320074
H        1.645120264   2.866176136   1.489142118
B        0.000000000   0.000000000   0.000000000    0   0   0
H        1.161217099  -0.002377817  -0.307808391
H       -0.616746340   1.010285673  -0.317487781
H       -0.616969627  -1.001999302  -0.343942195
H       -0.018174054   0.018705810   1.254012674


     NEW-OLD atomic charge density approx. for the potential

     Check: negative core charge=   -0.000002
     extrapolated charge   32.34024, renormalised to   32.00000

     total cpu time spent up to now is      168.2 secs

     Self-consistent Calculation

     iteration #  1     ecut=    25.00 Ry     beta= 0.50
     Davidson diagonalization with overlap
     ethr =  1.00E-06,  avg # of iterations =  8.1

     total cpu time spent up to now is      170.6 secs

     total energy              =    -224.29267782 Ry
     Harris-Foulkes estimate   =    -222.89808356 Ry
     estimated scf accuracy    <       0.01596636 Ry

     iteration #  2     ecut=    25.00 Ry     beta= 0.50
     Davidson diagonalization with overlap
     ethr =  4.99E-05,  avg # of iterations =  3.0

     total cpu time spent up to now is      172.2 secs

     total energy              =    -224.30907290 Ry
     Harris-Foulkes estimate   =    -224.31482637 Ry
     estimated scf accuracy    <       0.01599895 Ry

     iteration #  3     ecut=    25.00 Ry     beta= 0.50
     Davidson diagonalization with overlap
     ethr =  4.99E-05,  avg # of iterations =  2.0

     total cpu time spent up to now is      173.4 secs

     total energy              =    -224.30926280 Ry
     Harris-Foulkes estimate   =    -224.31004395 Ry
     estimated scf accuracy    <       0.00240700 Ry

     iteration #  4     ecut=    25.00 Ry     beta= 0.50
     Davidson diagonalization with overlap
     ethr =  7.52E-06,  avg # of iterations =  1.8

     total cpu time spent up to now is      174.6 secs

     total energy              =    -224.30897115 Ry
     Harris-Foulkes estimate   =    -224.30939259 Ry
     estimated scf accuracy    <       0.00072951 Ry

     iteration #  5     ecut=    25.00 Ry     beta= 0.50
     Davidson diagonalization with overlap
     ethr =  2.28E-06,  avg # of iterations =  2.9

     total cpu time spent up to now is      176.1 secs

     total energy              =    -224.30917091 Ry
     Harris-Foulkes estimate   =    -224.30921783 Ry
     estimated scf accuracy    <       0.00008739 Ry

     iteration #  6     ecut=    25.00 Ry     beta= 0.50
     Davidson diagonalization with overlap
     ethr =  2.73E-07,  avg # of iterations =  2.0

     total cpu time spent up to now is      177.5 secs

     total energy              =    -224.30918716 Ry
     Harris-Foulkes estimate   =    -224.30918731 Ry
     estimated scf accuracy    <       0.00000061 Ry

     iteration #  7     ecut=    25.00 Ry     beta= 0.50
     Davidson diagonalization with overlap
     ethr =  1.90E-09,  avg # of iterations =  2.8

     total cpu time spent up to now is      179.0 secs

     total energy              =    -224.30918739 Ry
     Harris-Foulkes estimate   =    -224.30918739 Ry
     estimated scf accuracy    <       0.00000009 Ry

     iteration #  8     ecut=    25.00 Ry     beta= 0.50
     Davidson diagonalization with overlap
     ethr =  2.90E-10,  avg # of iterations =  2.0

     total cpu time spent up to now is      180.2 secs

     End of self-consistent calculation

          k = 0.0000 0.0000 0.0000 (  1419 PWs)   bands (ev):

   -48.7528 -48.0855 -20.7171 -20.6914 -20.6307 -20.0531 -20.0181 -19.9337
   -12.9148  -6.5461  -3.2309  -0.9571  -0.6553  -0.4244   0.5531   2.2451
     6.2939   7.2174   7.3878   9.6431

          k = 0.0004 0.0112-0.6032 (  1462 PWs)   bands (ev):

   -48.7536 -48.0864 -20.7226 -20.7097 -20.6336 -20.0745 -20.0199 -19.9356
   -12.8268  -5.9861  -2.9360  -2.1559  -0.9824  -0.5802  -0.4633   2.0476
     7.8629   8.2603   9.5576  10.0530

          k = 0.0092-0.5138-0.5914 (  1492 PWs)   bands (ev):

   -48.7561 -48.0889 -20.7319 -20.7099 -20.6432 -20.0752 -20.0478 -19.9826
   -12.6811  -5.7239  -3.1795  -2.1822  -1.8208  -0.7570   0.2272   1.9390
     6.9300   7.9483   8.3415   9.0367

          k =-0.4992-0.5048-0.5920 (  1472 PWs)   bands (ev):

   -48.7556 -48.0884 -20.7651 -20.7103 -20.6560 -20.0720 -20.0404 -19.9635
   -12.5343  -5.5920  -3.3430  -1.8393  -1.6016  -1.3584  -0.6316   1.4492
     8.3083   8.8255   9.2668  10.2781

          k =-0.5083 0.0090-0.0006 (  1462 PWs)   bands (ev):

   -48.7559 -48.0888 -20.7535 -20.6951 -20.6438 -20.0560 -20.0497 -19.9482
   -12.7465  -6.5887  -3.0243  -1.8069  -0.6837  -0.0617   0.0726   1.9327
     7.1790   7.9848   8.5005  10.2188

          k = 0.0088-0.5250 0.0118 (  1462 PWs)   bands (ev):

   -48.7555 -48.0883 -20.7293 -20.6939 -20.6407 -20.0587 -20.0451 -19.9802
   -12.7552  -6.4391  -3.0659  -1.7357  -0.9325  -0.0151   0.0913   1.7230
     7.4135   8.1501   8.4318   9.8259

          k =-0.5087-0.0023 0.6026 (  1492 PWs)   bands (ev):

   -48.7567 -48.0896 -20.7574 -20.7120 -20.6458 -20.0737 -20.0538 -19.9498
   -12.6728  -5.8020  -3.5311  -2.2145  -1.5393  -0.5048   0.2151   2.0211
     7.1829   7.5301   8.7034  10.0756

          k =-0.5171 0.5340-0.0124 (  1492 PWs)   bands (ev):

   -48.7569 -48.0897 -20.7728 -20.6974 -20.6616 -20.0583 -20.0478 -19.9684
   -12.6009  -6.1595  -3.8643  -1.9718  -1.0181  -0.0357   0.2612   2.0267
     6.8187   7.7172   9.5496  10.3862

     the Fermi energy is     2.3695 ev

!    total energy              =    -224.30918742 Ry
     Harris-Foulkes estimate   =    -224.30918741 Ry
     estimated scf accuracy    <          3.4E-09 Ry

     The total energy is the sum of the following terms:

     one-electron contribution =    -168.37083761 Ry
     hartree contribution      =      92.79399822 Ry
     xc contribution           =     -41.76075928 Ry
     ewald contribution        =    -106.97267422 Ry
     smearing contrib. (-TS)   =       0.00108547 Ry

     convergence has been achieved in   8 iterations

     Forces acting on atoms (cartesian axes, Ry/au):

     atom    1 type  4   force =     0.01753099    0.03019419    0.00279858
     atom    2 type  4   force =    -0.01805290   -0.01416962    0.02190734
     atom    3 type  3   force =     0.03721912   -0.00081852   -0.05450342
     atom    4 type  2   force =    -0.03205017   -0.01414710    0.00550261
     atom    5 type  2   force =     0.00709150    0.00160984   -0.01546267
     atom    6 type  1   force =    -0.01448675    0.00210658    0.05291397
     atom    7 type  2   force =    -0.00437100    0.00077373    0.00347677
     atom    8 type  2   force =     0.00393841   -0.01217044    0.00231203
     atom    9 type  2   force =     0.00334840    0.00897760    0.00397160
     atom   10 type  2   force =    -0.00016760   -0.00235626   -0.02291682

     Total force =     0.082130     Total SCF correction =     0.000031


     Computing stress (Cartesian axis) and pressure

          total   stress  (Ry/bohr**3)                   (kbar)     P=   -5.11
  -0.00012715   0.00005350  -0.00002938        -18.70      7.87     -4.32
   0.00005350  -0.00003097  -0.00007534          7.87     -4.56    -11.08
  -0.00002938  -0.00007534   0.00005381         -4.32    -11.08      7.92


     number of scf cycles    =   7
     number of bfgs steps    =   6

     enthalpy old            =    -224.2985733563 Ry
     enthalpy new            =    -224.3091874233 Ry

     CASE: enthalpy_new < enthalpy_old

     new trust radius        =       0.0925528651 bohr
     new conv_thr            =       0.0000000545 Ry

     new unit-cell volume =    551.27456 a.u.^3 (    81.69046 Ang^3 )
     density =      1.56203 g/cm^3

CELL_PARAMETERS (angstrom)
   4.633025700   0.084159599  -0.016019400
   0.086390836   4.501173949   0.082089054
  -0.026386003   0.085157414   3.920271339

ATOMIC_POSITIONS (angstrom)
Na       2.303319849   0.084658507   1.952125970    0   0   0
Na       0.030002417   2.293165681   2.001180196    0   0   0
N        2.271686736   2.384299244   2.110137586
H        2.919462585   2.204219755   1.319988073
H        1.625877707   2.862229799   1.470206674
B        0.000000000   0.000000000   0.000000000    0   0   0
H        1.147371088  -0.002123325  -0.306613273
H       -0.609666592   0.997901498  -0.311945461
H       -0.608589498  -0.988390240  -0.334500822
H       -0.028717514   0.014407365   1.256996811


     NEW-OLD atomic charge density approx. for the potential

     Check: negative core charge=   -0.000002
     extrapolated charge   32.39584, renormalised to   32.00000

     total cpu time spent up to now is      194.5 secs

     Self-consistent Calculation

     iteration #  1     ecut=    25.00 Ry     beta= 0.50
     Davidson diagonalization with overlap
     ethr =  1.00E-06,  avg # of iterations =  6.6

     total cpu time spent up to now is      196.8 secs

     total energy              =    -224.29666426 Ry
     Harris-Foulkes estimate   =    -222.66260875 Ry
     estimated scf accuracy    <       0.01425898 Ry

     iteration #  2     ecut=    25.00 Ry     beta= 0.50
     Davidson diagonalization with overlap
     ethr =  4.46E-05,  avg # of iterations =  3.0

     total cpu time spent up to now is      198.4 secs

     total energy              =    -224.31586282 Ry
     Harris-Foulkes estimate   =    -224.32144424 Ry
     estimated scf accuracy    <       0.01567102 Ry

     iteration #  3     ecut=    25.00 Ry     beta= 0.50
     Davidson diagonalization with overlap
     ethr =  4.46E-05,  avg # of iterations =  2.0

     total cpu time spent up to now is      199.6 secs

     total energy              =    -224.31549575 Ry
     Harris-Foulkes estimate   =    -224.31653586 Ry
     estimated scf accuracy    <       0.00306077 Ry

     iteration #  4     ecut=    25.00 Ry     beta= 0.50
     Davidson diagonalization with overlap
     ethr =  9.56E-06,  avg # of iterations =  1.9

     total cpu time spent up to now is      200.8 secs

     total energy              =    -224.31501955 Ry
     Harris-Foulkes estimate   =    -224.31565664 Ry
     estimated scf accuracy    <       0.00099854 Ry

     iteration #  5     ecut=    25.00 Ry     beta= 0.50
     Davidson diagonalization with overlap
     ethr =  3.12E-06,  avg # of iterations =  2.8

     total cpu time spent up to now is      202.3 secs

     total energy              =    -224.31529135 Ry
     Harris-Foulkes estimate   =    -224.31532692 Ry
     estimated scf accuracy    <       0.00006230 Ry

     iteration #  6     ecut=    25.00 Ry     beta= 0.50
     Davidson diagonalization with overlap
     ethr =  1.95E-07,  avg # of iterations =  2.0

     total cpu time spent up to now is      203.7 secs

     total energy              =    -224.31530489 Ry
     Harris-Foulkes estimate   =    -224.31530482 Ry
     estimated scf accuracy    <       0.00000031 Ry

     iteration #  7     ecut=    25.00 Ry     beta= 0.50
     Davidson diagonalization with overlap
     ethr =  9.68E-10,  avg # of iterations =  2.6

     total cpu time spent up to now is      205.0 secs

     total energy              =    -224.31530496 Ry
     Harris-Foulkes estimate   =    -224.31530498 Ry
     estimated scf accuracy    <       0.00000015 Ry

     iteration #  8     ecut=    25.00 Ry     beta= 0.50
     Davidson diagonalization with overlap
     ethr =  4.69E-10,  avg # of iterations =  2.0

     total cpu time spent up to now is      206.3 secs

     End of self-consistent calculation

          k = 0.0000 0.0000 0.0000 (  1419 PWs)   bands (ev):

   -48.8761 -48.1732 -20.8325 -20.8110 -20.7467 -20.1391 -20.0999 -20.0154
   -13.0460  -6.6404  -3.4204  -1.0480  -0.7822  -0.4921   0.4756   2.1108
     6.2357   7.1034   7.3087   9.6513

          k =-0.0023 0.0110-0.5997 (  1462 PWs)   bands (ev):

   -48.8771 -48.1742 -20.8427 -20.8246 -20.7501 -20.1599 -20.1022 -20.0177
   -12.9643  -6.1017  -3.1583  -2.1877  -1.0883  -0.7061  -0.5052   1.9648
     7.7970   8.2051   9.5573  10.0772

          k = 0.0073-0.5115-0.5883 (  1492 PWs)   bands (ev):

   -48.8798 -48.1768 -20.8498 -20.8290 -20.7600 -20.1592 -20.1287 -20.0662
   -12.8277  -5.8603  -3.3668  -2.2261  -1.8818  -0.8826   0.1855   1.8281
     6.8454   7.8979   8.3845   9.0020

          k =-0.5002-0.5017-0.5919 (  1472 PWs)   bands (ev):

   -48.8792 -48.1762 -20.8757 -20.8315 -20.7735 -20.1569 -20.1225 -20.0465
   -12.6880  -5.7315  -3.5428  -1.8810  -1.6688  -1.4592  -0.6292   1.3498
     8.2641   8.7784   9.1610  10.1088

          k =-0.5074 0.0098-0.0036 (  1462 PWs)   bands (ev):

   -48.8795 -48.1766 -20.8658 -20.8175 -20.7617 -20.1422 -20.1320 -20.0302
   -12.8865  -6.6807  -3.2320  -1.8908  -0.8134  -0.0536  -0.0162   1.7916
     7.1084   7.8553   8.3926  10.0845

          k = 0.0095-0.5225 0.0114 (  1462 PWs)   bands (ev):

   -48.8791 -48.1761 -20.8453 -20.8154 -20.7570 -20.1425 -20.1265 -20.0635
   -12.8969  -6.5415  -3.2547  -1.8234  -1.0443  -0.0251   0.0164   1.5644
     7.3477   8.0096   8.3320   9.7963

          k =-0.5051-0.0012 0.5961 (  1492 PWs)   bands (ev):

   -48.8804 -48.1775 -20.8704 -20.8333 -20.7641 -20.1590 -20.1367 -20.0319
   -12.8177  -5.9309  -3.6903  -2.2578  -1.6234  -0.6455   0.1505   1.9225
     7.1321   7.4980   8.6726   9.9392

          k =-0.5169 0.5323-0.0150 (  1492 PWs)   bands (ev):

   -48.8805 -48.1776 -20.8832 -20.8199 -20.7795 -20.1441 -20.1303 -20.0518
   -12.7505  -6.2711  -4.0098  -2.0174  -1.1612  -0.0966   0.1977   1.8746
     6.7597   7.5843   9.5203  10.2912

     the Fermi energy is     2.2401 ev

!    total energy              =    -224.31530494 Ry
     Harris-Foulkes estimate   =    -224.31530497 Ry
     estimated scf accuracy    <       0.00000005 Ry

     The total energy is the sum of the following terms:

     one-electron contribution =    -169.43159733 Ry
     hartree contribution      =      93.21387784 Ry
     xc contribution           =     -41.77906165 Ry
     ewald contribution        =    -106.31957370 Ry
     smearing contrib. (-TS)   =       0.00104990 Ry

     convergence has been achieved in   8 iterations

     Forces acting on atoms (cartesian axes, Ry/au):

     atom    1 type  4   force =     0.01504673    0.03363033    0.00482205
     atom    2 type  4   force =    -0.02007192   -0.01360662    0.02429950
     atom    3 type  3   force =     0.01751921   -0.01322829   -0.03212723
     atom    4 type  2   force =    -0.01447449   -0.01352766   -0.01148715
     atom    5 type  2   force =     0.01014781    0.00796866   -0.01983065
     atom    6 type  1   force =    -0.01524299    0.00324446    0.06374928
     atom    7 type  2   force =     0.01068490    0.00104006   -0.00148936
     atom    8 type  2   force =    -0.00206736   -0.00041491   -0.00271856
     atom    9 type  2   force =    -0.00333620   -0.00376663   -0.00205277
     atom   10 type  2   force =     0.00179431   -0.00133940   -0.02316511

     Total force =     0.057435     Total SCF correction =     0.000080


     Computing stress (Cartesian axis) and pressure

          total   stress  (Ry/bohr**3)                   (kbar)     P=   -6.77
  -0.00012957   0.00003192  -0.00003468        -19.06      4.69     -5.10
   0.00003192  -0.00006594  -0.00008741          4.69     -9.70    -12.86
  -0.00003468  -0.00008741   0.00005736         -5.10    -12.86      8.44


     number of scf cycles    =   8
     number of bfgs steps    =   7

     enthalpy old            =    -224.3091874233 Ry
     enthalpy new            =    -224.3153049371 Ry

     CASE: enthalpy_new < enthalpy_old

     new trust radius        =       0.1085964711 bohr
     new conv_thr            =       0.0000000321 Ry

     new unit-cell volume =    556.26995 a.u.^3 (    82.43070 Ang^3 )
     density =      1.54801 g/cm^3

CELL_PARAMETERS (angstrom)
   4.628111768   0.093512899  -0.039940933
   0.096884379   4.513256744   0.070770949
  -0.054528134   0.071724160   3.949684563

ATOMIC_POSITIONS (angstrom)
Na       2.286791817   0.082618530   1.954871815    0   0   0
Na       0.021178122   2.292490452   2.010227756    0   0   0
N        2.287792005   2.406657905   2.069411067
H        2.887117505   2.173575605   1.274076005
H        1.610124039   2.853406772   1.437181656
B        0.000000000   0.000000000   0.000000000    0   0   0
H        1.142254661   0.000619085  -0.308592979
H       -0.603111384   0.987563470  -0.310938998
H       -0.603488982  -0.978860497  -0.325638210
H       -0.038840517   0.005827467   1.253165562


     NEW-OLD atomic charge density approx. for the potential

     Check: negative core charge=   -0.000002
     extrapolated charge   32.28725, renormalised to   32.00000

     total cpu time spent up to now is      220.7 secs

     Self-consistent Calculation

     iteration #  1     ecut=    25.00 Ry     beta= 0.50
     Davidson diagonalization with overlap
     ethr =  1.00E-06,  avg # of iterations =  6.5

     total cpu time spent up to now is      223.0 secs

     total energy              =    -224.31071299 Ry
     Harris-Foulkes estimate   =    -223.11511333 Ry
     estimated scf accuracy    <       0.00878885 Ry

     iteration #  2     ecut=    25.00 Ry     beta= 0.50
     Davidson diagonalization with overlap
     ethr =  2.75E-05,  avg # of iterations =  3.0

     total cpu time spent up to now is      224.5 secs

     total energy              =    -224.32110648 Ry
     Harris-Foulkes estimate   =    -224.32422871 Ry
     estimated scf accuracy    <       0.00861910 Ry

     iteration #  3     ecut=    25.00 Ry     beta= 0.50
     Davidson diagonalization with overlap
     ethr =  2.69E-05,  avg # of iterations =  2.0

     total cpu time spent up to now is      225.8 secs

     total energy              =    -224.32073394 Ry
     Harris-Foulkes estimate   =    -224.32131368 Ry
     estimated scf accuracy    <       0.00154471 Ry

     iteration #  4     ecut=    25.00 Ry     beta= 0.50
     Davidson diagonalization with overlap
     ethr =  4.83E-06,  avg # of iterations =  2.0

     total cpu time spent up to now is      227.0 secs

     total energy              =    -224.32061214 Ry
     Harris-Foulkes estimate   =    -224.32084364 Ry
     estimated scf accuracy    <       0.00039526 Ry

     iteration #  5     ecut=    25.00 Ry     beta= 0.50
     Davidson diagonalization with overlap
     ethr =  1.24E-06,  avg # of iterations =  2.4

     total cpu time spent up to now is      228.5 secs

     total energy              =    -224.32071449 Ry
     Harris-Foulkes estimate   =    -224.32073178 Ry
     estimated scf accuracy    <       0.00002906 Ry

     iteration #  6     ecut=    25.00 Ry     beta= 0.50
     Davidson diagonalization with overlap
     ethr =  9.08E-08,  avg # of iterations =  2.0

     total cpu time spent up to now is      229.9 secs

     total energy              =    -224.32072216 Ry
     Harris-Foulkes estimate   =    -224.32072252 Ry
     estimated scf accuracy    <       0.00000111 Ry

     iteration #  7     ecut=    25.00 Ry     beta= 0.50
     Davidson diagonalization with overlap
     ethr =  3.46E-09,  avg # of iterations =  2.0

     total cpu time spent up to now is      231.1 secs

     total energy              =    -224.32072228 Ry
     Harris-Foulkes estimate   =    -224.32072230 Ry
     estimated scf accuracy    <       0.00000008 Ry

     iteration #  8     ecut=    25.00 Ry     beta= 0.50
     Davidson diagonalization with overlap
     ethr =  2.60E-10,  avg # of iterations =  2.0

     total cpu time spent up to now is      232.4 secs

     End of self-consistent calculation

          k = 0.0000 0.0000 0.0000 (  1419 PWs)   bands (ev):

   -48.9374 -48.2352 -20.8887 -20.8690 -20.8050 -20.2000 -20.1597 -20.0742
   -13.1457  -6.7032  -3.5227  -1.1128  -0.8504  -0.5688   0.3746   2.0143
     6.2064   7.0118   7.2573   9.6528

          k =-0.0053 0.0094-0.5952 (  1462 PWs)   bands (ev):

   -48.9386 -48.2364 -20.9028 -20.8784 -20.8090 -20.2200 -20.1625 -20.0770
   -13.0698  -6.1943  -3.2859  -2.2100  -1.1434  -0.7933  -0.5512   1.8959
     7.7318   8.1490   9.5757  10.1547

          k = 0.0053-0.5116-0.5856 (  1492 PWs)   bands (ev):

   -48.9414 -48.2391 -20.9072 -20.8870 -20.8179 -20.2189 -20.1874 -20.1267
   -12.9383  -5.9678  -3.4788  -2.2700  -1.9039  -0.9555   0.1393   1.7437
     6.7924   7.8367   8.4341   9.0122

          k =-0.5028-0.5006-0.5928 (  1472 PWs)   bands (ev):

   -48.9406 -48.2384 -20.9267 -20.8918 -20.8338 -20.2167 -20.1819 -20.1059
   -12.8034  -5.8362  -3.6553  -1.8928  -1.7388  -1.5178  -0.6462   1.2657
     8.2649   8.7482   9.0459  10.0155

          k =-0.5081 0.0110-0.0072 (  1462 PWs)   bands (ev):

   -48.9409 -48.2387 -20.9171 -20.8792 -20.8217 -20.2033 -20.1918 -20.0893
   -12.9919  -6.7378  -3.3425  -1.9444  -0.8957  -0.1332  -0.0764   1.6854
     7.0634   7.7720   8.3463   9.9564

          k = 0.0106-0.5211 0.0096 (  1462 PWs)   bands (ev):

   -48.9405 -48.2383 -20.9005 -20.8762 -20.8145 -20.2030 -20.1849 -20.1236
   -13.0026  -6.6131  -3.3514  -1.8766  -1.1061  -0.1224  -0.0325   1.4551
     7.3006   7.9079   8.2600   9.7794

          k =-0.5027 0.0016 0.5880 (  1492 PWs)   bands (ev):

   -48.9418 -48.2397 -20.9222 -20.8935 -20.8245 -20.2190 -20.1968 -20.0913
   -12.9281  -6.0316  -3.7714  -2.2955  -1.6694  -0.7426   0.0893   1.8437
     7.0921   7.5045   8.6535   9.7983

          k =-0.5187 0.5321-0.0168 (  1492 PWs)   bands (ev):

   -48.9419 -48.2398 -20.9336 -20.8819 -20.8398 -20.2052 -20.1897 -20.1112
   -12.8615  -6.3424  -4.0858  -2.0556  -1.2437  -0.1763   0.1204   1.7593
     6.7061   7.4998   9.4907  10.2329

     the Fermi energy is     2.1512 ev

!    total energy              =    -224.32072231 Ry
     Harris-Foulkes estimate   =    -224.32072230 Ry
     estimated scf accuracy    <          4.4E-09 Ry

     The total energy is the sum of the following terms:

     one-electron contribution =    -170.36273297 Ry
     hartree contribution      =      93.60540206 Ry
     xc contribution           =     -41.79268176 Ry
     ewald contribution        =    -105.77170276 Ry
     smearing contrib. (-TS)   =       0.00099311 Ry

     convergence has been achieved in   8 iterations

     Forces acting on atoms (cartesian axes, Ry/au):

     atom    1 type  4   force =     0.01337066    0.03499073    0.00671822
     atom    2 type  4   force =    -0.02015613   -0.01278527    0.02609677
     atom    3 type  3   force =    -0.00461096   -0.01518978   -0.01642394
     atom    4 type  2   force =     0.00309923   -0.01709637   -0.02821147
     atom    5 type  2   force =     0.01352999    0.00985560   -0.01829738
     atom    6 type  1   force =    -0.01104036    0.00301290    0.06667299
     atom    7 type  2   force =     0.01735934    0.00078177   -0.00364701
     atom    8 type  2   force =    -0.00710682    0.00953177   -0.00652741
     atom    9 type  2   force =    -0.00800739   -0.01344760   -0.00717522
     atom   10 type  2   force =     0.00356244    0.00034624   -0.01920556

     Total force =     0.058411     Total SCF correction =     0.000078


     Computing stress (Cartesian axis) and pressure

          total   stress  (Ry/bohr**3)                   (kbar)     P=   -7.64
  -0.00013698  -0.00000499  -0.00003336        -20.15     -0.73     -4.91
  -0.00000499  -0.00007578  -0.00006119         -0.73    -11.15     -9.00
  -0.00003336  -0.00006119   0.00005690         -4.91     -9.00      8.37


     number of scf cycles    =   9
     number of bfgs steps    =   8

     enthalpy old            =    -224.3153049371 Ry
     enthalpy new            =    -224.3207223080 Ry

     CASE: enthalpy_new < enthalpy_old

     new trust radius        =       0.1627850291 bohr
[...]
     atom    4 type  2   force =    -0.00001638   -0.00015746   -0.00040506
     atom    5 type  2   force =     0.00020810    0.00015074   -0.00013861
     atom    6 type  1   force =    -0.00492244   -0.00046304   -0.00683491
     atom    7 type  2   force =    -0.00037249    0.00030052    0.00016924
     atom    8 type  2   force =    -0.00001196   -0.00078745    0.00014348
     atom    9 type  2   force =     0.00015727   -0.00028309    0.00021314
     atom   10 type  2   force =    -0.00010226   -0.00002731    0.00057693

     Total force =     0.001435     Total SCF correction =     0.000010


     Computing stress (Cartesian axis) and pressure

          total   stress  (Ry/bohr**3)                   (kbar)     P=   -0.05
  -0.00000237   0.00000151  -0.00000072         -0.35      0.22     -0.11
   0.00000151  -0.00000244   0.00000076          0.22     -0.36      0.11
  -0.00000072   0.00000076   0.00000378         -0.11      0.11      0.56


     number of scf cycles    =  48
     number of bfgs steps    =  47

     enthalpy old            =    -224.4015622980 Ry
     enthalpy new            =    -224.4015659357 Ry

     CASE: enthalpy_new < enthalpy_old

     new trust radius        =       0.0051419228 bohr
     new conv_thr            =       0.0000000010 Ry

     new unit-cell volume =    536.93136 a.u.^3 (    79.56502 Ang^3 )
     density =      1.60376 g/cm^3

CELL_PARAMETERS (angstrom)
   4.382388362   0.055259454  -0.084950508
   0.065958410   4.401421238   0.022393521
  -0.126584153  -0.000879507   4.128184154

ATOMIC_POSITIONS (angstrom)
Na       2.127902104   0.027189973   2.021616823    0   0   0
Na      -0.030312872   2.200270865   2.075288837    0   0   0
N        2.110785062   2.234913594   1.278383425
H        2.658634826   1.692499492   0.592721528
H        1.588724086   2.793205110   0.585156660
B        0.000000000   0.000000000   0.000000000    0   0   0
H        1.161629461   0.029355471  -0.326092152
H       -0.582118136   0.979434726  -0.420700523
H       -0.578351876  -0.998147013  -0.374747345
H       -0.057120680   0.019484823   1.213927922


     NEW-OLD atomic charge density approx. for the potential

     Check: negative core charge=   -0.000001
     extrapolated charge   32.00143, renormalised to   32.00000

     total cpu time spent up to now is     1184.5 secs

     Self-consistent Calculation

     iteration #  1     ecut=    25.00 Ry     beta= 0.50
     Davidson diagonalization with overlap
     ethr =  1.00E-06,  avg # of iterations =  2.0

     Threshold (ethr) on eigenvalues was too large:
     Diagonalizing with lowered threshold

     Davidson diagonalization with overlap
     ethr =  7.87E-09,  avg # of iterations =  1.9

     total cpu time spent up to now is     1186.9 secs

     total energy              =    -224.40156863 Ry
     Harris-Foulkes estimate   =    -224.39583230 Ry
     estimated scf accuracy    <       0.00000255 Ry

     iteration #  2     ecut=    25.00 Ry     beta= 0.50
     Davidson diagonalization with overlap
     ethr =  7.96E-09,  avg # of iterations =  2.0

     total cpu time spent up to now is     1188.2 secs

     total energy              =    -224.40156880 Ry
     Harris-Foulkes estimate   =    -224.40156900 Ry
     estimated scf accuracy    <       0.00000066 Ry

     iteration #  3     ecut=    25.00 Ry     beta= 0.50
     Davidson diagonalization with overlap
     ethr =  2.07E-09,  avg # of iterations =  2.0

     total cpu time spent up to now is     1189.5 secs

     total energy              =    -224.40156886 Ry
     Harris-Foulkes estimate   =    -224.40156890 Ry
     estimated scf accuracy    <       0.00000013 Ry

     iteration #  4     ecut=    25.00 Ry     beta= 0.50
     Davidson diagonalization with overlap
     ethr =  4.16E-10,  avg # of iterations =  2.0

     total cpu time spent up to now is     1190.7 secs

     total energy              =    -224.40156888 Ry
     Harris-Foulkes estimate   =    -224.40156888 Ry
     estimated scf accuracy    <          8.8E-09 Ry

     iteration #  5     ecut=    25.00 Ry     beta= 0.50
     Davidson diagonalization with overlap
     ethr =  2.76E-11,  avg # of iterations =  2.0

     total cpu time spent up to now is     1192.1 secs

     total energy              =    -224.40156888 Ry
     Harris-Foulkes estimate   =    -224.40156888 Ry
     estimated scf accuracy    <          1.3E-09 Ry

     iteration #  6     ecut=    25.00 Ry     beta= 0.50
     Davidson diagonalization with overlap
     ethr =  3.95E-12,  avg # of iterations =  2.0

     total cpu time spent up to now is     1193.4 secs

     End of self-consistent calculation

          k = 0.0000 0.0000 0.0000 (  1419 PWs)   bands (ev):

   -48.2177 -48.1687 -20.2079 -20.1708 -20.1675 -20.1083 -20.0394 -19.9876
   -12.1928  -6.4681  -3.2926  -0.8183  -0.6662  -0.1686   0.1550   2.5985
     6.7762   7.3030   7.5019  10.5161

          k =-0.0111 0.0031-0.5696 (  1462 PWs)   bands (ev):

   -48.2185 -48.1700 -20.2131 -20.1865 -20.1720 -20.1252 -20.0411 -19.9892
   -12.1078  -6.0927  -3.1695  -2.3660  -0.6848  -0.2831  -0.0178   2.4993
     8.1348   8.4013   9.7475   9.8822

          k =-0.0043-0.5310-0.5695 (  1492 PWs)   bands (ev):

   -48.2189 -48.1719 -20.1969 -20.1772 -20.1603 -20.1323 -20.0846 -20.0222
   -12.0221  -6.1269  -2.8522  -2.0834  -1.7672  -0.6156   0.4677   2.3701
     7.5656   8.0269   9.3663  10.0975

          k =-0.5410-0.5228-0.5860 (  1472 PWs)   bands (ev):

   -48.2183 -48.1712 -20.2552 -20.1749 -20.1551 -20.1256 -20.1016 -19.9648
   -11.9558  -5.7325  -3.6110  -1.7713  -1.5389  -0.8989  -0.1283   2.0304
     8.3283   8.7131   9.0410  11.2459

          k =-0.5367 0.0081-0.0165 (  1462 PWs)   bands (ev):

   -48.2184 -48.1714 -20.2044 -20.1674 -20.1495 -20.1171 -20.0652 -20.0399
   -12.0767  -6.5772  -2.6760  -1.8287  -0.6399  -0.5167   0.3884   2.1906
     7.0478   8.3976   8.7066  10.0620

          k = 0.0067-0.5340 0.0001 (  1462 PWs)   bands (ev):

   -48.2184 -48.1714 -20.1949 -20.1653 -20.1589 -20.1204 -20.0830 -20.0200
   -12.0772  -6.5965  -2.6899  -1.6959  -0.7526  -0.4871   0.3497   2.2204
     7.0759   8.3012   8.7079   9.5309

          k =-0.5256 0.0051 0.5531 (  1492 PWs)   bands (ev):

   -48.2189 -48.1718 -20.2053 -20.1798 -20.1510 -20.1290 -20.0671 -20.0409
   -12.0227  -6.1120  -2.8527  -2.1225  -1.7937  -0.5064   0.4332   2.3405
     7.6162   8.4315   9.0461  10.0126

          k =-0.5434 0.5421-0.0165 (  1492 PWs)   bands (ev):

   -48.2191 -48.1720 -20.2605 -20.1666 -20.1599 -20.1177 -20.1060 -19.9689
   -11.9955  -6.0875  -3.9541  -1.9304  -0.4681  -0.4218   0.3781   2.5231
     6.8055   7.7259  10.5336  10.9343

     the Fermi energy is     4.2209 ev

!    total energy              =    -224.40156888 Ry
     Harris-Foulkes estimate   =    -224.40156888 Ry
     estimated scf accuracy    <          3.9E-11 Ry

     The total energy is the sum of the following terms:

     one-electron contribution =    -163.76124731 Ry
     hartree contribution      =      90.74015374 Ry
     xc contribution           =     -41.77461298 Ry
     ewald contribution        =    -109.60586233 Ry
     smearing contrib. (-TS)   =       0.00000000 Ry

     convergence has been achieved in   6 iterations

     Forces acting on atoms (cartesian axes, Ry/au):

     atom    1 type  4   force =     0.00565355   -0.00028737    0.00332289
     atom    2 type  4   force =    -0.00091357    0.00132509    0.00254052
     atom    3 type  3   force =     0.00044069    0.00015618    0.00038223
     atom    4 type  2   force =    -0.00000573   -0.00019973   -0.00032976
     atom    5 type  2   force =     0.00007627    0.00026073   -0.00008879
     atom    6 type  1   force =    -0.00544795   -0.00059724   -0.00640724
     atom    7 type  2   force =    -0.00008595    0.00030909   -0.00007935
     atom    8 type  2   force =     0.00007799   -0.00064014    0.00013913
     atom    9 type  2   force =     0.00031818   -0.00025371    0.00027787
     atom   10 type  2   force =    -0.00011349   -0.00007290    0.00024250

     Total force =     0.001208     Total SCF correction =     0.000001


     Computing stress (Cartesian axis) and pressure

          total   stress  (Ry/bohr**3)                   (kbar)     P=   -0.16
  -0.00000275   0.00000126   0.00000059         -0.40      0.19      0.09
   0.00000126  -0.00000122   0.00000155          0.19     -0.18      0.23
   0.00000059   0.00000155   0.00000071          0.09      0.23      0.10


     number of scf cycles    =  49
     number of bfgs steps    =  48

     enthalpy old            =    -224.4015659357 Ry
     enthalpy new            =    -224.4015688796 Ry

     CASE: enthalpy_new < enthalpy_old

     new trust radius        =       0.0040117518 bohr
     new conv_thr            =       0.0000000010 Ry

     new unit-cell volume =    536.88672 a.u.^3 (    79.55840 Ang^3 )
     density =      1.60390 g/cm^3

CELL_PARAMETERS (angstrom)
   4.381964964   0.055380353  -0.085582010
   0.066091952   4.400992078   0.022180666
  -0.127301429  -0.001112935   4.128676807

ATOMIC_POSITIONS (angstrom)
Na       2.127331768   0.027133709   2.021547399    0   0   0
Na      -0.030604739   2.199939572   2.075428736    0   0   0
N        2.110320063   2.234879579   1.278141222
H        2.657818282   1.691830878   0.592625256
H        1.588397746   2.792547585   0.584268253
B        0.000000000   0.000000000   0.000000000    0   0   0
H        1.161473098   0.030565085  -0.325487533
H       -0.583529293   0.977984783  -0.421122020
H       -0.577720313  -0.998883074  -0.374264070
H       -0.057510471   0.019900566   1.214308742


     NEW-OLD atomic charge density approx. for the potential

     Check: negative core charge=   -0.000001
     extrapolated charge   31.99734, renormalised to   32.00000

     total cpu time spent up to now is     1207.6 secs

     Self-consistent Calculation

     iteration #  1     ecut=    25.00 Ry     beta= 0.50
     Davidson diagonalization with overlap
     ethr =  1.00E-06,  avg # of iterations =  2.0

     Threshold (ethr) on eigenvalues was too large:
     Diagonalizing with lowered threshold

     Davidson diagonalization with overlap
     ethr =  5.22E-09,  avg # of iterations =  2.0

     total cpu time spent up to now is     1210.1 secs

     total energy              =    -224.40157009 Ry
     Harris-Foulkes estimate   =    -224.41225754 Ry
     estimated scf accuracy    <       0.00000171 Ry

     iteration #  2     ecut=    25.00 Ry     beta= 0.50
     Davidson diagonalization with overlap
     ethr =  5.35E-09,  avg # of iterations =  2.0

     total cpu time spent up to now is     1211.5 secs

     total energy              =    -224.40157085 Ry
     Harris-Foulkes estimate   =    -224.40157121 Ry
     estimated scf accuracy    <       0.00000101 Ry

     iteration #  3     ecut=    25.00 Ry     beta= 0.50
     Davidson diagonalization with overlap
     ethr =  3.15E-09,  avg # of iterations =  2.0

     total cpu time spent up to now is     1212.7 secs

     total energy              =    -224.40157090 Ry
     Harris-Foulkes estimate   =    -224.40157095 Ry
     estimated scf accuracy    <       0.00000017 Ry

     iteration #  4     ecut=    25.00 Ry     beta= 0.50
     Davidson diagonalization with overlap
     ethr =  5.33E-10,  avg # of iterations =  2.0

     total cpu time spent up to now is     1214.0 secs

     total energy              =    -224.40157092 Ry
     Harris-Foulkes estimate   =    -224.40157092 Ry
     estimated scf accuracy    <       0.00000002 Ry

     iteration #  5     ecut=    25.00 Ry     beta= 0.50
     Davidson diagonalization with overlap
     ethr =  4.70E-11,  avg # of iterations =  2.0

     total cpu time spent up to now is     1215.3 secs

     total energy              =    -224.40157092 Ry
     Harris-Foulkes estimate   =    -224.40157092 Ry
     estimated scf accuracy    <          5.7E-09 Ry

     iteration #  6     ecut=    25.00 Ry     beta= 0.50
     Davidson diagonalization with overlap
     ethr =  1.77E-11,  avg # of iterations =  2.0

     total cpu time spent up to now is     1216.6 secs

     End of self-consistent calculation

          k = 0.0000 0.0000 0.0000 (  1419 PWs)   bands (ev):

   -48.2170 -48.1674 -20.2071 -20.1699 -20.1665 -20.1070 -20.0386 -19.9864
   -12.1925  -6.4673  -3.2904  -0.8189  -0.6648  -0.1668   0.1539   2.5990
     6.7760   7.3020   7.5050  10.5164

          k =-0.0112 0.0030-0.5695 (  1462 PWs)   bands (ev):

   -48.2178 -48.1687 -20.2123 -20.1857 -20.1710 -20.1239 -20.0402 -19.9881
   -12.1076  -6.0924  -3.1672  -2.3646  -0.6857  -0.2811  -0.0184   2.4998
     8.1363   8.4039   9.7484   9.8835

          k =-0.0044-0.5310-0.5695 (  1492 PWs)   bands (ev):

   -48.2182 -48.1706 -20.1962 -20.1764 -20.1591 -20.1310 -20.0839 -20.0209
   -12.0218  -6.1266  -2.8501  -2.0824  -1.7648  -0.6170   0.4675   2.3709
     7.5674   8.0273   9.3661  10.1013

          k =-0.5411-0.5229-0.5860 (  1472 PWs)   bands (ev):

   -48.2176 -48.1699 -20.2544 -20.1741 -20.1543 -20.1242 -20.1005 -19.9637
   -11.9555  -5.7319  -3.6093  -1.7697  -1.5376  -0.8998  -0.1285   2.0312
     8.3296   8.7135   9.0412  11.2464

          k =-0.5367 0.0081-0.0165 (  1462 PWs)   bands (ev):

   -48.2176 -48.1701 -20.2037 -20.1667 -20.1483 -20.1158 -20.0646 -20.0387
   -12.0763  -6.5761  -2.6735  -1.8300  -0.6380  -0.5153   0.3876   2.1911
     7.0458   8.4001   8.7071  10.0606

          k = 0.0068-0.5341 0.0001 (  1462 PWs)   bands (ev):

   -48.2176 -48.1701 -20.1942 -20.1645 -20.1577 -20.1191 -20.0823 -20.0187
   -12.0768  -6.5959  -2.6870  -1.6941  -0.7534  -0.4859   0.3480   2.2213
     7.0739   8.3032   8.7079   9.5314

          k =-0.5256 0.0051 0.5530 (  1492 PWs)   bands (ev):

   -48.2181 -48.1705 -20.2045 -20.1790 -20.1498 -20.1276 -20.0665 -20.0397
   -12.0224  -6.1112  -2.8508  -2.1239  -1.7914  -0.5045   0.4322   2.3410
     7.6184   8.4333   9.0466  10.0133

          k =-0.5435 0.5422-0.0166 (  1492 PWs)   bands (ev):

   -48.2184 -48.1707 -20.2596 -20.1658 -20.1591 -20.1164 -20.1049 -19.9678
   -11.9951  -6.0865  -3.9526  -1.9296  -0.4678  -0.4201   0.3767   2.5238
     6.8052   7.7238  10.5335  10.9345

     the Fermi energy is     4.2215 ev

!    total energy              =    -224.40157092 Ry
     Harris-Foulkes estimate   =    -224.40157092 Ry
     estimated scf accuracy    <          7.6E-11 Ry

     The total energy is the sum of the following terms:

     one-electron contribution =    -163.76050276 Ry
     hartree contribution      =      90.74072694 Ry
     xc contribution           =     -41.77468014 Ry
     ewald contribution        =    -109.60711495 Ry
     smearing contrib. (-TS)   =       0.00000000 Ry

     convergence has been achieved in   6 iterations

     Forces acting on atoms (cartesian axes, Ry/au):

     atom    1 type  4   force =     0.00560805   -0.00029808    0.00337818
     atom    2 type  4   force =    -0.00090723    0.00132186    0.00257467
     atom    3 type  3   force =     0.00045119    0.00010481    0.00020197
     atom    4 type  2   force =     0.00003021   -0.00019607   -0.00023458
     atom    5 type  2   force =     0.00003418    0.00030881    0.00001360
     atom    6 type  1   force =    -0.00571883   -0.00093041   -0.00597741
     atom    7 type  2   force =     0.00013396    0.00030880   -0.00024803
     atom    8 type  2   force =     0.00002395   -0.00031888    0.00002759
     atom    9 type  2   force =     0.00045206   -0.00020689    0.00032223
     atom   10 type  2   force =    -0.00010755   -0.00009393   -0.00005822

     Total force =     0.001048     Total SCF correction =     0.000006


     Computing stress (Cartesian axis) and pressure

          total   stress  (Ry/bohr**3)                   (kbar)     P=   -0.13
  -0.00000134   0.00000021   0.00000162         -0.20      0.03      0.24
   0.00000021   0.00000065   0.00000182          0.03      0.10      0.27
   0.00000162   0.00000182  -0.00000202          0.24      0.27     -0.30


     number of scf cycles    =  50
     number of bfgs steps    =  49

     enthalpy old            =    -224.4015688796 Ry
     enthalpy new            =    -224.4015709173 Ry

     CASE: enthalpy_new < enthalpy_old

     new trust radius        =       0.0036341305 bohr
     new conv_thr            =       0.0000000010 Ry

     new unit-cell volume =    536.80276 a.u.^3 (    79.54596 Ang^3 )
     density =      1.60415 g/cm^3

CELL_PARAMETERS (angstrom)
   4.381420580   0.055575440  -0.085954569
   0.066295472   4.400713833   0.022225508
  -0.127729288  -0.001064441   4.128830213

ATOMIC_POSITIONS (angstrom)
Na       2.126845646   0.027255500   2.021437822    0   0   0
Na      -0.030716908   2.199824696   2.075527861    0   0   0
N        2.110284350   2.235160446   1.278166977
H        2.657228411   1.691358084   0.592610032
H        1.588207029   2.792272903   0.583835092
B        0.000000000   0.000000000   0.000000000    0   0   0
H        1.161388732   0.031772517  -0.325051421
H       -0.584702037   0.976547059  -0.421391252
H       -0.576965713  -0.999650076  -0.373722808
H       -0.057832071   0.020226134   1.214530881


     NEW-OLD atomic charge density approx. for the potential

     Check: negative core charge=   -0.000001
     extrapolated charge   31.99500, renormalised to   32.00000

     init_run     :      5.59s CPU      6.01s WALL (       1 calls)
     electrons    :    494.55s CPU    511.92s WALL (      50 calls)
     update_pot   :    260.67s CPU    260.67s WALL (      50 calls)
     forces       :    134.76s CPU    136.13s WALL (      50 calls)
     stress       :    302.43s CPU    306.39s WALL (      50 calls)

     Called by init_run:
     wfcinit      :      0.38s CPU      0.49s WALL (       1 calls)
     potinit      :      1.51s CPU      1.55s WALL (       1 calls)
     hinit0       :      3.62s CPU      3.78s WALL (       1 calls)

     Called by electrons:
     c_bands      :    325.20s CPU    326.27s WALL (     365 calls)
     sum_band     :    102.45s CPU    110.71s WALL (     365 calls)
     v_of_rho     :     15.72s CPU     15.80s WALL (     399 calls)
     newd         :     56.98s CPU     66.10s WALL (     399 calls)
     mix_rho      :      2.06s CPU      2.09s WALL (     365 calls)

     Called by c_bands:
     init_us_2    :      5.54s CPU      5.59s WALL (    6648 calls)
     cegterg      :    315.41s CPU    316.38s WALL (    2920 calls)

     Called by sum_band:
     sum_band:bec :      0.11s CPU      0.11s WALL (    2920 calls)
     addusdens    :     54.20s CPU     62.24s WALL (     365 calls)

     Called by *egterg:
     h_psi        :    228.45s CPU    229.25s WALL (   10271 calls)
     s_psi        :     20.92s CPU     20.97s WALL (   10271 calls)
     g_psi        :      1.08s CPU      1.09s WALL (    7343 calls)
     cdiaghg      :      9.19s CPU      9.34s WALL (    9735 calls)

     Called by h_psi:
     h_psi:pot    :    227.87s CPU    228.66s WALL (   10271 calls)
     h_psi:calbec :     23.03s CPU     23.09s WALL (   10271 calls)
     vloc_psi     :    183.79s CPU    184.48s WALL (   10271 calls)
     add_vuspsi   :     20.97s CPU     21.03s WALL (   10271 calls)

     General routines
     calbec       :     37.15s CPU     37.28s WALL (   15191 calls)
     fft          :     12.68s CPU     12.91s WALL (    6404 calls)
     ffts         :      0.98s CPU      0.98s WALL (     764 calls)
     fftw         :    201.17s CPU    202.00s WALL (  367146 calls)
     interpolate  :      1.13s CPU      1.14s WALL (     399 calls)
     davcio       :      0.00s CPU      0.10s WALL (       8 calls)

     Parallel routines

     PWSCF        :  20m 6.02s CPU  20m30.93s WALL


   This run was terminated on:   4:22:19  14Dec2020            

=------------------------------------------------------------------------------=
   JOB DONE.
=------------------------------------------------------------------------------=
