LAMMPS (3 Mar 2020)

    # ---------- Initialize simulation ---------------------
    units metal
    atom_style atomic
    dimension  3
    boundary   p p p
    read_data /home/modeler/RemLabs/Lab4/Problem2A_size_4/temp_1320/lammps.data
  orthogonal box = (0 0 0) to (16.36 16.36 16.36)
  1 by 1 by 1 MPI processor grid
  reading atoms ...
  256 atoms
  read_data CPU = 0.00101146 secs

    pair_style eam
    pair_coeff * * /usr/share/lammps-stable/potentials/Ag_u3.eam
Reading potential file /usr/share/lammps-stable/potentials/Ag_u3.eam with DATE: 2007-06-11

    velocity  all create 1320 87287 dist gaussian

    # ---------- Describe computed properties------------------
    compute msdall all msd
    thermo_style custom step pe ke etotal temp press density c_msdall[4]
    thermo 100

    # ---------- Specify ensemble  ---------------------
    #fix  1 all nve
    fix  1 all nvt temp 1320 1320 0.05

    # --------- Compute RDF ---------------
    compute rdfall all rdf 100 1 1
    fix 2 all ave/time 1 2500 2500 c_rdfall[*] file /home/modeler/RemLabs/Lab4/Problem2A_size_4/temp_1320/lammps.rdf mode vector

    # --------- Run -------------
    timestep 0.001
    run 10000
Neighbor list info ...
  update every 1 steps, delay 10 steps, check yes
  max neighbors/atom: 2000, page size: 100000
  master list distance cutoff = 7.55
  ghost atom cutoff = 7.55
  binsize = 3.775, bins = 5 5 5
  2 neighbor lists, perpetual/occasional/extra = 1 1 0
  (1) pair eam, perpetual
      attributes: half, newton on
      pair build: half/bin/atomonly/newton
      stencil: half/bin/3d/newton
      bin: standard
  (2) compute rdf, occasional, copy from (1)
      attributes: half, newton on
      pair build: copy
      stencil: none
      bin: none
Per MPI rank memory allocation (min/avg/max) = 3.744 | 3.744 | 3.744 Mbytes
Step PotEng KinEng TotEng Temp Press Density c_msdall[4] 
       0       -729.6    43.508965   -686.09104         1320    10613.181    10.472245            0 
     100   -703.48128    26.979851   -676.50143    818.53024     44118.99    10.472245   0.07647459 
     200   -693.39069    39.162933   -654.22776    1188.1476    62108.286    10.472245   0.10050749 
     300   -681.32225    45.875423   -635.44682     1391.795    78582.291    10.472245   0.13346398 
     400   -679.16432    44.438026   -634.72629    1348.1864    81999.978    10.472245   0.12862331 
     500   -690.22062    42.210014   -648.01061    1280.5917    66455.819    10.472245  0.093541921 
     600   -690.59358    41.402212   -649.19137    1256.0841    66058.395    10.472245  0.087157416 
     700   -686.91588    47.950204   -638.96567    1454.7409    72808.779    10.472245   0.09810711 
     800   -684.87742    41.428471   -643.44895    1256.8808    73641.668    10.472245   0.11983449 
     900    -687.7893     45.93908   -641.85022    1393.7262    70532.499    10.472245   0.12236676 
    1000   -684.58669    45.832665   -638.75403    1390.4977    76142.131    10.472245   0.12178492 
    1100   -687.01511    44.958318   -642.05679    1363.9713    72132.339    10.472245   0.09953518 
    1200   -687.04349    41.324371   -645.71912    1253.7225    70946.916    10.472245   0.10030757 
    1300   -683.74513    42.095984   -641.64915    1277.1322    75911.124    10.472245   0.11031312 
    1400   -680.39334    42.588174   -637.80516    1292.0645    80775.401    10.472245   0.12273824 
    1500   -688.61218    44.590549   -644.02163    1352.8137    70057.644    10.472245  0.099088086 
    1600    -690.6568    43.756442   -646.90036    1327.5081     67015.73    10.472245  0.082389134 
    1700   -691.04361    42.739798   -648.30381    1296.6646    66068.603    10.472245  0.087399967 
    1800   -684.67993    43.566061   -641.11387    1321.7322    75313.745    10.472245   0.10508935 
    1900   -683.97576    45.178712   -638.79704    1370.6577    76390.918    10.472245   0.10357363 
    2000   -689.14165    41.170723   -647.97092    1249.0611     68967.11    10.472245  0.091045398 
    2100   -687.57449    43.511031   -644.06346    1320.0627    71034.553    10.472245  0.094209445 
    2200   -684.67519    45.348214   -639.32697    1375.8002    74828.703    10.472245   0.10898827 
    2300   -685.78577     50.14237    -635.6434     1521.248     75232.86    10.472245   0.09902132 
    2400   -687.06772    42.120548   -644.94717    1277.8774    71768.046    10.472245  0.097769633 
    2500    -688.7745      47.8783    -640.8962    1452.5594    71580.023    10.472245  0.089208315 
    2600   -688.95845    43.608427   -645.35002    1323.0175    69732.631    10.472245  0.090646637 
    2700    -691.4099    43.595845   -647.81405    1322.6358    65656.598    10.472245  0.089130324 
    2800   -684.41668    43.550564   -640.86612    1321.2621    75250.481    10.472245   0.11000365 
    2900   -683.19237    42.411607   -640.78077    1286.7077    76159.738    10.472245   0.11933202 
    3000   -684.76651    45.991096   -638.77541    1395.3043    75459.869    10.472245   0.10948218 
    3100    -686.5482    41.250165   -645.29804    1251.4712    72006.721    10.472245   0.10682649 
    3200   -686.57995    46.746776   -639.83318    1418.2306    73120.256    10.472245   0.10137455 
    3300   -687.19901    39.961459   -647.23755    1212.3737    69907.697    10.472245    0.1130573 
    3400   -686.50364    44.500606   -642.00304     1350.085    72252.978    10.472245   0.11067287 
    3500   -685.66179    46.297686   -639.36411    1404.6058    74929.149    10.472245   0.11234015 
    3600   -684.59423    41.160997   -643.43324     1248.766    73942.855    10.472245   0.11917759 
    3700   -684.86842    45.203019   -639.66541    1371.3952    75921.626    10.472245   0.10149131 
    3800    -686.9543    40.353648   -646.60066    1224.2722    71067.873    10.472245   0.10177299 
    3900    -687.4582    45.686837   -641.77136    1386.0735    71520.055    10.472245   0.09328288 
    4000   -687.05794     39.43267   -647.62527     1196.331    70658.846    10.472245  0.098499508 
    4100   -685.40861    43.768051   -641.64056    1327.8603    73970.036    10.472245   0.10170071 
    4200   -685.07099    44.519023   -640.55197    1350.6437    74352.296    10.472245   0.11104205 
    4300   -688.50294    41.546525   -646.95642    1260.4624    68816.731    10.472245   0.11221554 
    4400   -684.93577    44.188533   -640.74723    1340.6171    75437.608    10.472245   0.11637467 
    4500   -685.98341    46.723908   -639.25951    1417.5368    73205.131    10.472245   0.10383881 
    4600   -689.34012     42.69789   -646.64223    1295.3931    68005.668    10.472245   0.09513025 
    4700    -688.7686    45.896293    -642.8723    1392.4281    69173.388    10.472245   0.10009553 
    4800    -681.8965    45.751162   -636.14534    1388.0251    79019.273    10.472245   0.12196786 
    4900   -683.95171    43.828681   -640.12303    1329.6997    76141.628    10.472245   0.11348727 
    5000   -691.96926    44.130615   -647.83865      1338.86    65162.429    10.472245  0.086017874 
    5100   -687.60574    43.662864   -643.94287    1324.6691    70715.524    10.472245   0.09264921 
    5200   -686.41003    45.462228    -640.9478    1379.2592      72688.5    10.472245   0.10069223 
    5300    -687.0129    43.736104   -643.27679    1326.8911     72823.18    10.472245  0.097215697 
    5400   -686.71019    37.851297    -648.8589    1148.3544    70636.731    10.472245   0.10293575 
    5500   -686.94639    45.084774   -641.86161    1367.8078    71799.639    10.472245  0.096658651 
    5600   -687.47635    42.360653    -645.1157    1285.1618    70434.738    10.472245   0.10048326 
    5700   -690.97791    42.560584   -648.41732    1291.2275    65525.114    10.472245  0.098794815 
    5800   -684.81782    42.495913   -642.32191    1289.2655    74086.142    10.472245   0.11601477 
    5900   -683.78265    44.934642   -638.84801     1363.253    75533.303    10.472245   0.12087236 
    6000   -689.33031    44.295768   -645.03455    1343.8705    68063.417    10.472245  0.099882309 
    6100   -690.01396    42.859108   -647.15486    1300.2843    67140.025    10.472245  0.096764377 
    6200   -683.14675    42.929498   -640.21725    1302.4198    77632.491    10.472245   0.11516197 
    6300   -685.11587    44.867114   -640.24876    1361.2043    75241.552    10.472245   0.11557826 
    6400   -683.25172    40.078084   -643.17363     1215.912    76512.431    10.472245   0.12030379 
    6500   -684.34266    42.555521   -641.78714    1291.0739    75003.091    10.472245   0.10834608 
    6600   -690.21741     42.29341     -647.924    1283.1218    66666.942    10.472245  0.095378741 
    6700   -688.96565     42.50208   -646.46357    1289.4526    68600.323    10.472245  0.093922407 
    6800   -683.14889    43.975276   -639.17361    1334.1472    76417.601    10.472245   0.11887911 
    6900   -688.67662    50.763111   -637.91351    1540.0804    71480.806    10.472245   0.10502652 
    7000   -686.57012    42.053761   -644.51635    1275.8512    72374.709    10.472245   0.10597579 
    7100   -683.48829    44.627389    -638.8609    1353.9314    78060.913    10.472245   0.10426041 
    7200   -683.08174    38.733877   -644.34786    1175.1306    76933.122    10.472245   0.10376245 
    7300   -685.49614      40.4809   -645.01524    1228.1328    73635.016    10.472245  0.091422427 
    7400   -685.39648    44.101644   -641.29484     1337.981    73918.555    10.472245  0.090943062 
    7500   -687.97576    41.043419   -646.93234    1245.1989    69360.222    10.472245  0.096415663 
    7600   -687.52282    48.218321   -639.30449    1462.8752    72053.402    10.472245  0.097682612 
    7700   -686.21682    47.723986   -638.49283    1447.8777    73558.485    10.472245   0.10808715 
    7800   -687.27858    45.407257   -641.87132    1377.5915    72238.164    10.472245   0.10297763 
    7900   -689.43072    45.409677   -644.02104    1377.6649     69126.89    10.472245   0.10484992 
    8000   -685.49559    42.822291    -642.6733    1299.1673    73834.789    10.472245   0.10525771 
    8100   -686.24851    44.439396   -641.80911     1348.228    72985.449    10.472245  0.092941384 
    8200   -685.66036    39.889513   -645.77085     1210.191    72219.377    10.472245  0.098868259 
    8300   -684.90827    40.934508   -643.97376    1241.8947    73197.951    10.472245   0.11116977 
    8400   -683.92027     44.02563   -639.89464    1335.6749    75930.819    10.472245   0.11991557 
    8500    -685.4108    45.038691   -640.37211    1366.4097    73976.099    10.472245   0.11340424 
    8600   -686.45678    41.510396   -644.94638    1259.3663    72688.206    10.472245  0.099922557 
    8700   -689.02402    41.507232   -647.51679    1259.2703     68868.39    10.472245  0.088004493 
    8800   -688.17577    44.941703   -643.23406    1363.4672    71119.283    10.472245  0.095658167 
    8900   -682.87147    45.358691   -637.51278    1376.1181    77364.786    10.472245   0.12365406 
    9000   -684.64429    47.990737   -636.65356    1455.9706    76227.899    10.472245   0.12161375 
    9100   -685.67746    42.815598   -642.86186    1298.9642    73432.193    10.472245   0.11213175 
    9200   -688.37415    44.963258   -643.41089    1364.1212    69839.026    10.472245    0.0951659 
    9300   -689.59503    43.069254   -646.52577    1306.6598    68482.733    10.472245  0.095815408 
    9400   -685.73304    45.036834    -640.6962    1366.3534    74251.828    10.472245   0.10683359 
    9500   -685.30144    47.226669   -638.07477    1432.7899    75061.859    10.472245   0.11925119 
    9600   -687.86396    44.461187   -643.40277    1348.8891    70632.298    10.472245   0.10903572 
    9700    -688.4195    40.722249   -647.69725     1235.455    69741.597    10.472245    0.1077642 
    9800   -684.63091     40.32075   -644.31016    1223.2741    73586.124    10.472245   0.11223223 
    9900    -685.6075    42.712507   -642.89499    1295.8366    73706.518    10.472245   0.10328431 
   10000   -685.53963    39.034175   -646.50545    1184.2412    72675.786    10.472245    0.1055332 
Loop time of 4.98551 on 1 procs for 10000 steps with 256 atoms

Performance: 173.302 ns/day, 0.138 hours/ns, 2005.813 timesteps/s
100.0% CPU use with 1 MPI tasks x no OpenMP threads

MPI task timing breakdown:
Section |  min time  |  avg time  |  max time  |%varavg| %total
---------------------------------------------------------------
Pair    | 3.3336     | 3.3336     | 3.3336     |   0.0 | 66.87
Neigh   | 0          | 0          | 0          |   0.0 |  0.00
Comm    | 0.061753   | 0.061753   | 0.061753   |   0.0 |  1.24
Output  | 0.0025654  | 0.0025654  | 0.0025654  |   0.0 |  0.05
Modify  | 1.5717     | 1.5717     | 1.5717     |   0.0 | 31.52
Other   |            | 0.01595    |            |       |  0.32

Nlocal:    256 ave 256 max 256 min
Histogram: 1 0 0 0 0 0 0 0 0 0
Nghost:    1431 ave 1431 max 1431 min
Histogram: 1 0 0 0 0 0 0 0 0 0
Neighs:    11008 ave 11008 max 11008 min
Histogram: 1 0 0 0 0 0 0 0 0 0

Total # of neighbors = 11008
Ave neighs/atom = 43
Neighbor list builds = 0
Dangerous builds = 0
    
Total wall time: 0:00:04
