LAMMPS (3 Mar 2020)
Reading data file ...
  orthogonal box = (0 0 0) to (8.18 8.18 8.18)
  1 by 1 by 1 MPI processor grid
  reading atoms ...
  32 atoms
  read_data CPU = 0.000885357 secs
Reading potential file /usr/share/lammps-stable/potentials/Ag_u3.eam with DATE: 2007-06-11
Neighbor list info ...
  update every 1 steps, delay 10 steps, check yes
  max neighbors/atom: 2000, page size: 100000
  master list distance cutoff = 7.55
  ghost atom cutoff = 7.55
  binsize = 3.775, bins = 3 3 3
  2 neighbor lists, perpetual/occasional/extra = 1 1 0
  (1) pair eam, perpetual
      attributes: half, newton on
      pair build: half/bin/atomonly/newton
      stencil: half/bin/3d/newton
      bin: standard
  (2) compute rdf, occasional, copy from (1)
      attributes: half, newton on
      pair build: copy
      stencil: none
      bin: none
Setting up Verlet run ...
  Unit style    : metal
  Current step  : 0
  Time step     : 0.005
Per MPI rank memory allocation (min/avg/max) = 3.706 | 3.706 | 3.706 Mbytes
Step PotEng KinEng TotEng Temp Press Density c_msdall[4] 
       0        -91.2    4.9367035   -86.263297         1232    9633.7108    10.472245            0 
     100   -88.189155    3.2725454    -84.91661    816.69397   -13455.638    9.8898086  0.046411913 
     200   -86.563792    2.8259015   -83.737891    705.22985   -15334.179    9.6723629  0.096303861 
     300   -86.663399    3.9829706   -82.680428    993.98714    1125.9874    9.8250619   0.11082284 
     400   -85.914341    4.3591846   -81.555156    1087.8748    21400.464    9.9599564   0.10264286 
     500   -85.487968    4.9033664   -80.584602    1223.6804    3661.3888    9.6786063   0.12323502 
     600   -85.089019    5.1989927   -79.890026    1297.4567   -13654.326    9.4316095   0.13198006 
     700   -85.035589    3.8222261   -81.213363    953.87186   -3904.1235    9.5354717   0.12090851 
     800   -86.263874    4.1101611   -82.153713    1025.7287   -5643.5892    9.6556707  0.083402979 
     900   -84.740895    4.5608433   -80.180052    1138.2006     6877.196    9.6475423   0.14919124 
    1000   -85.137104    5.4729306   -79.664174    1365.8204   -10886.012    9.4653712    0.1421834 
    1100   -84.996104     3.532539   -81.463565    881.57778    20012.251    9.8495853   0.14308369 
    1200    -85.78298    4.2103513   -81.572629    1050.7321     308.0722    9.7060072   0.12063079 
    1300   -83.909312     4.430505   -79.478807    1105.6735   -11551.411    9.2905125   0.15011204 
    1400   -84.483549    3.9253389    -80.55821    979.60461    8220.3979    9.5715601   0.17957758 
    1500    -86.41516    4.3600816   -82.055079    1088.0987    24746.636    10.030117  0.078195586 
    1600   -84.598955    4.8056395   -79.793316    1199.2918   -115.80353    9.5251594   0.14406202 
    1700   -83.044347     3.207875   -79.836472    800.55488   -12269.851    9.2192032   0.20040274 
    1800   -85.282118    4.3929936   -80.889124    1096.3122   -2585.0922    9.5571286   0.15852076 
    1900   -86.940821     5.043095   -81.897726     1258.551   -863.69682    9.8437468  0.085570753 
    2000   -87.988269    4.1668708   -83.821398    1039.8811    2163.0297    10.009368  0.055291999 
    2100   -86.232599    4.6964514   -81.536148    1172.0429    -12959.31    9.6136482   0.11006657 
    2200   -85.879617    5.1113252   -80.768292    1275.5785   -19474.394    9.4715643   0.14354296 
    2300   -84.296879    4.5603487   -79.736531    1138.0772    20069.774    9.6778454   0.16005348 
    2400   -83.191293     4.774102   -78.417191    1191.4213    8602.9789    9.4023731   0.23434167 
    2500    -82.11885    5.8289625   -76.289888    1454.6715   -31576.308    8.7938797   0.33516937 
    2600   -84.269637    4.2822746   -79.987362    1068.6812    -21998.69    9.2265155   0.16848263 
    2700   -84.391096    4.1438701   -80.247226    1034.1411   -801.59085      9.47409   0.16415893 
    2800   -85.104915    4.8816035   -80.223311    1218.2493    19808.075    9.7836973   0.13810978 
    2900   -85.570891    5.1509934   -80.419898     1285.478    5275.4362    9.7290077   0.10667408 
    3000   -87.018902    4.0856274   -82.933274    1019.6061    1187.3553    9.8665255  0.082546747 
    3100   -85.581575    4.4591898   -81.122385     1112.832   -11993.506    9.5579508   0.13713162 
    3200   -83.961509    3.8017318   -80.159777    948.75732    14172.113    9.6149822   0.11864414 
    3300   -84.997747    4.9329632   -80.064783    1231.0666    12613.462    9.7436905   0.12895541 
    3400    -82.96372    5.7949302    -77.16879    1446.1784    6871.7679    9.3503643   0.21580487 
    3500   -85.010012    5.3275503   -79.682462    1329.5394   -24740.173    9.3092322   0.13699346 
    3600   -85.189247    4.6178144   -80.571432    1152.4183   -10063.616    9.4845923   0.12351913 
    3700   -85.202706     5.243838   -79.958868    1308.6483    22800.185    9.8518105    0.1551588 
    3800    -84.10957     6.656504   -77.453066    1661.1921    12477.445    9.5479853   0.15814164 
    3900   -85.573571    5.3712416    -80.20233     1340.443   -10261.009    9.5311167   0.12213886 
    4000   -84.742319    4.1006932   -80.641626    1023.3659    8847.9728    9.6349587   0.13625136 
    4100   -84.549835    4.3963076   -80.153527    1097.1392    570.12403    9.4962052   0.16551187 
    4200   -83.330579    6.1652542   -77.165325    1538.5962   -6544.4446    9.2435627   0.18508401 
    4300   -84.762548    4.8641767   -79.898371    1213.9003    5211.9351    9.5747431   0.15608502 
    4400   -85.699889    5.1998932   -80.499996    1297.6814   -22049.616    9.4286537   0.13854738 
    4500   -85.276197    5.4304367    -79.84576    1355.2157   -19858.525    9.3707788   0.14225098 
    4600   -83.213988    5.8363671    -77.37762    1456.5194   -22793.752    9.0710778   0.23145063 
    4700   -85.717508    5.3392517   -80.378256    1332.4596     -2559.92      9.62601     0.117509 
    4800   -85.709967     5.489078   -80.220889    1369.8502     35472.74     10.06218   0.10979821 
    4900   -85.307352    5.8026614   -79.504691    1448.1078    13898.974     9.744254   0.11086193 
    5000   -84.024877    6.3576908   -77.667187    1586.6205   -1124.0643     9.398909   0.16857114 
    5100   -83.646797     5.437044   -78.209753    1356.8646   -18467.503    9.1203309   0.21867353 
    5200   -85.137935    4.6527045    -80.48523    1161.1254   -19854.511    9.3920367   0.13086614 
    5300   -84.213558    4.0736629   -80.139895    1016.6202    30614.939    9.7924645   0.13161786 
    5400   -85.913769    5.7379259   -80.175843    1431.9525    18259.644    9.8797464   0.11658779 
    5500   -83.348765     5.915161   -77.433604    1476.1831   -14495.496    9.2009213   0.20130176 
    5600   -85.147387    5.4591454   -79.688241    1362.3802   -2881.3534    9.5447769    0.1531552 
    5700   -85.610462    5.1036458   -80.506817     1273.662   -16251.636    9.4929987    0.1379345 
    5800   -85.000563    5.3022163   -79.698347    1323.2171   -17700.376     9.365106   0.12293761 
    5900   -84.117119    6.2711644   -77.845955    1565.0271   -6403.3103    9.3247998   0.17713887 
    6000   -86.114282    5.2959846   -80.818298    1321.6619    13543.969    9.8405797   0.11392589 
    6100   -84.794762    4.2321644   -80.562598    1056.1758   -6257.8961    9.5002454   0.15271648 
    6200   -83.954075    5.2188496   -78.735225    1302.4122   -5433.0077    9.3204136   0.17722283 
    6300   -84.796652    4.4670583   -80.329593    1114.7957    11840.782    9.6622241   0.12893223 
    6400   -85.534536    4.5170414   -81.017494    1127.2694    31251.693    9.9768613   0.10459899 
    6500   -83.693968    4.1146986    -79.57927    1026.8611    -9173.635    9.3068273   0.18349635 
    6600   -84.322014    5.5229886   -78.799025    1378.3129   -25635.014    9.1660099   0.15806223 
    6700   -86.126224    4.8809175   -81.245307    1218.0781     21874.58    9.9565212   0.12214333 
    6800   -84.639696     4.525404   -80.114292    1129.3564    20893.563    9.7650448   0.11256595 
    6900   -83.986192    5.0052715    -78.98092    1249.1118   -12813.885    9.2752547   0.22083277 
    7000   -84.972356    3.9962202   -80.976136    997.29372   -28717.539    9.2352831   0.13010212 
    7100   -85.558202    4.2854448   -81.272757    1069.4724     22217.29    9.9153666   0.13224848 
    7200   -84.069209    5.2886113   -78.780598    1319.8218    9077.2481    9.5738114   0.16915022 
    7300   -85.501171    5.6034372   -79.897734    1398.3896   -22752.414    9.3646009   0.14194701 
    7400    -86.42254    4.6952739   -81.727266     1171.749    764.97363    9.7636785  0.085715781 
    7500   -85.888271    4.8382936   -81.049977    1207.4409     17754.45     9.905068  0.077712911 
    7600   -84.695548    5.7217905   -78.973757    1427.9257    11013.147    9.6443129   0.14620233 
    7700   -85.182226    5.0775026   -80.104724    1267.1377    -6928.069    9.4972286   0.12816337 
    7800   -86.526923    4.8393161   -81.687607    1207.6961   -14810.895    9.6046605  0.091419321 
    7900   -84.814891    5.2467241   -79.568167    1309.3685    1269.9949    9.5261999   0.11080268 
    8000   -83.945166    4.8108488   -79.134317    1200.5918    44979.205    9.9258546   0.14712977 
    8100   -85.244525    4.4296231   -80.814902    1105.4534   -1453.9535    9.6056364   0.13947326 
    8200   -84.539272    3.8691442   -80.670128    965.58072   -27651.285    9.2313743    0.1548664 
    8300   -84.111481     5.850153   -78.261328    1459.9598    7061.6106    9.4859712   0.19372181 
    8400   -85.246981    5.1085038   -80.138477    1274.8744    1768.7907    9.6444844   0.11370469 
    8500   -85.308681    4.5915989   -80.717082     1145.876    14335.011    9.7853816   0.10863606 
    8600   -85.021311    5.6850762   -79.336235    1418.7633   -6951.4517    9.4771788   0.12988657 
    8700   -83.592009    5.7381632   -77.853846    1432.0117   -12969.294    9.2443649   0.18492468 
    8800   -84.012168    3.9825394   -80.029628    993.87954    4053.9172    9.5532606   0.17285559 
    8900   -86.301214    5.4292816   -80.871933    1354.9274   -7978.0581    9.6578018   0.10349497 
    9000   -86.053108    5.3905419   -80.662566    1345.2596    10515.549    9.8225634   0.10431314 
    9100   -84.757931    6.8364017   -77.921529    1706.0873    11559.225     9.656635   0.10924647 
    9200   -84.978405    5.8388208   -79.139584    1457.1317    20242.917    9.7697702    0.1159353 
    9300   -85.835229    5.5756124   -80.259617    1391.4456   -5634.8859    9.6362752   0.12598931 
    9400   -85.047949    4.5199381   -80.528011    1127.9924   -28875.998    9.2726361   0.12713028 
    9500   -83.743492    5.9609734   -77.782519     1487.616   -4700.2604    9.3360019   0.25248928 
    9600   -84.410574    6.0969429   -78.313631    1521.5485    8448.2949    9.5699768   0.13850539 
    9700   -84.947447    5.1762633   -79.771184    1291.7844   -6676.4239    9.4328948   0.14655517 
    9800   -84.478439    4.0693596   -80.409079    1015.5463   -7532.4346    9.4333143   0.17203125 
    9900    -84.60213    3.1669863   -81.435143    790.35071    1295.0179     9.581565   0.15685414 
   10000   -86.716008    3.7860558   -82.929952    944.84523    29102.794    10.139218  0.080395097 
   10100    -85.68634    4.9698077   -80.716532    1240.2615    31852.351    10.000773  0.099529764 
   10200   -85.873919     5.782146   -80.091773     1442.988   -25362.829    9.4183815   0.11384781 
   10300    -84.25429    4.5980505    -79.65624     1147.486   -1067.2125    9.4048426   0.19164256 
   10400   -85.817457    4.2886259   -81.528831    1070.2663   -16997.772    9.5293478   0.13484348 
   10500   -85.147734    3.4984168   -81.649317    873.06226   -3719.8217    9.5821848   0.13234406 
   10600   -84.672128    4.7195131   -79.952615    1177.7981    19219.235    9.7525092   0.14166345 
   10700   -84.576145    5.1854012   -79.390744    1294.0648    6507.6941    9.6127917   0.17313193 
   10800   -85.630756    3.9738905   -81.656865    991.72112    9413.5486    9.8159062  0.099692871 
   10900   -86.792686    5.0568809   -81.735805    1261.9914   -396.53977    9.8146388  0.085650545 
   11000   -84.312451    4.1659073   -80.146544    1039.6407    12108.614    9.6334109   0.16648352 
   11100   -84.602652    5.2363414    -79.36631    1306.7774   -10236.696     9.404708   0.16012394 
   11200   -86.304288    4.6309251   -81.673363    1155.6902    4319.2237    9.8258155   0.10653442 
   11300   -86.713772    5.1600884   -81.553684    1287.7478   -1897.6177    9.7614311  0.095185056 
   11400   -84.351887    4.3625011   -79.989386    1088.7025   -3169.7732    9.4933085   0.14069038 
   11500   -84.240684    4.9270022   -79.313682     1229.579    19417.369    9.6890887   0.16121381 
   11600   -86.011763    4.6213928    -81.39037    1153.3113     22913.72    9.9660858  0.090649729 
   11700   -85.756556    4.1689284   -81.587628    1040.3946    9778.7576    9.7887166  0.094328831 
   11800    -84.66462    4.5099589   -80.154661    1125.5019   -10373.343    9.3972067   0.14670532 
   11900   -84.384901    5.2637941   -79.121107    1313.6285   -8340.0073    9.4310654   0.15960966 
   12000   -86.148661    4.7045415   -81.444119    1174.0618    22585.959    9.9576619   0.13759896 
   12100   -86.205748     5.192713   -81.013035    1295.8896   -5227.0813    9.7002153   0.10540291 
   12200   -84.772388    5.6573777    -79.11501    1411.8509   -16309.543    9.3574571   0.12187803 
   12300   -85.390619    4.3367535   -81.053866    1082.2769    526.76705    9.6314135   0.11354024 
   12400   -86.110669    4.8228669   -81.287802     1203.591    12704.381    9.8778254  0.099345107 
   12500   -83.944099    5.2813612   -78.662737    1318.0125    39506.675    9.8566157   0.15259569 
   12600   -85.525426    5.6339994   -79.891427    1406.0166   -28296.306    9.3127761   0.12993681 
   12700   -85.249926    4.1770713   -81.072854    1042.4268    -9528.405    9.5038495   0.14671784 
   12800   -84.856657    4.1954998   -80.661157    1047.0258   -7734.7675    9.4604056   0.16482559 
   12900    -83.15101    4.6311717   -78.519838    1155.7517    6830.1727    9.3905897   0.24052543 
   13000   -85.239001    4.7898731   -80.449128    1195.3571    2257.6877    9.6375223   0.12832559 
   13100   -84.844985    3.9813794   -80.863605    993.59006   -16835.379    9.3740593   0.16405982 
   13200   -83.263058    4.6529186   -78.610139    1161.1789     -20607.4    9.1086929    0.2039943 
   13300   -83.807849    4.3067403   -79.501109    1074.7869    3187.3906    9.4843763   0.19697911 
   13400   -85.668851    4.4896917   -81.179159    1120.4441        21169    9.8810811  0.092340069 
   13500    -85.00296    5.2924932   -79.710467    1320.7906    10479.987    9.6581149   0.12627679 
   13600   -84.822842    5.6063343   -79.216507    1399.1126   -28330.022    9.2654682   0.14968506 
   13700   -85.272575    3.9295642   -81.343011    980.65909   -7869.3291    9.5579223   0.13443439 
   13800    -84.21736    4.3820642   -79.835296    1093.5847    12723.194    9.6357011   0.17733832 
   13900   -85.178186    6.1257638   -79.052422     1528.741    12231.901    9.6799026   0.13055915 
   14000    -85.15956    3.8262196    -81.33334    954.86849    17838.959    9.7942274    0.1550785 
   14100   -83.839166    4.0150153    -79.82415    1001.9842   -18561.982    9.1921331   0.18264006 
   14200    -82.74409    4.0029751   -78.741115    998.97945   -25998.468    8.9589322   0.24694227 
   14300   -84.401026    3.8350406   -80.565985    957.06984   -23496.081    9.2417056    0.1690645 
   14400   -84.819927      4.25107   -80.568857    1060.8938     24230.31    9.8241727   0.11959973 
   14500   -84.317306    6.4055481   -77.911758    1598.5638     14324.88    9.6115203    0.1522194 
   14600   -85.010142    4.6665931   -80.343549    1164.5915    24173.033    9.8654618   0.12740186 
   14700   -84.986187    3.6403176    -81.34587    908.47493     4065.607    9.6367655   0.11315963 
   14800   -83.059579    4.0637693    -78.99581    1014.1512   -6251.1174    9.2325092   0.20014517 
   14900   -84.017154    4.6826104   -79.334544    1168.5887    -22123.85    9.2142052   0.19145125 
   15000   -85.148102    4.5036475   -80.644455    1123.9269    9723.9052    9.7703513   0.12330708 
   15100   -86.735787    4.8155856   -81.920202    1201.7739     19910.95    10.038407  0.081870871 
   15200   -84.172532    4.4467313   -79.725801    1109.7229    5693.1643    9.5187975   0.15641789 
   15300   -84.645619     4.901887   -79.743732    1223.3112   -14771.893    9.3742619   0.20309493 
   15400   -85.298106    4.9832695   -80.314836     1243.621   -13440.434    9.4748159   0.13757968 
   15500   -86.563148     4.128297   -82.434851    1030.2547   -16317.051    9.6372194    0.1205676 
   15600   -84.279276    4.1611585   -80.118117    1038.4556    6420.5659    9.5185973   0.13465128 
   15700   -84.366746    4.7252291   -79.641517    1179.2246    12051.812    9.5811831   0.15878468 
   15800   -85.321247    3.9187054   -81.402542    977.94918    3695.5239    9.6263559   0.13196847 
   15900   -85.068339     3.447456   -81.620883    860.34452    513.26512    9.6188476   0.15187268 
   16000   -84.965526    5.4333924   -79.532134    1355.9533     9691.668    9.6458071   0.12816557 
   16100   -85.373736    4.9251411   -80.448595    1229.1145    5190.1544    9.6526148   0.11129913 
   16200   -85.870974    3.7358815   -82.135092    932.32379    5084.4393     9.805221   0.11315773 
   16300   -86.976793    5.1791614   -81.797632    1292.5076   -14566.533    9.6989939   0.08381533 
   16400   -84.703481    4.8739364   -79.829545    1216.3359    16835.188    9.7001031   0.14747168 
   16500   -85.750047    5.4008911   -80.349156    1347.8423   -10473.125    9.5468452   0.12325657 
   16600   -85.810466     4.652435   -81.158031    1161.0582   -9307.7349    9.5816419   0.11193034 
   16700   -87.406651    4.1569454   -83.249706    1037.4042   -471.29887    9.8864639  0.073467295 
   16800   -85.562471    4.7393961   -80.823075    1182.7601   -1724.5861    9.6399231   0.12005234 
   16900   -85.338671    5.0923438   -80.246327    1270.8415   -11638.698    9.4907556   0.13409907 
   17000   -85.026398    4.4193699   -80.607028    1102.8946   -4445.0742    9.5403649   0.13937327 
   17100   -85.881723    5.7462101   -80.135513    1434.0199    10780.713    9.7881362   0.11423726 
   17200   -83.031764    6.0529617   -76.978803    1510.5726    9243.6315    9.3803112   0.21891776 
   17300    -84.57744    4.9643308    -79.61311    1238.8947    10811.194    9.6277384   0.16536784 
   17400   -84.801105    4.1451465   -80.655958    1034.4597    198.39569    9.5633637   0.13833614 
   17500   -85.330305    4.8695872   -80.460718    1215.2505    6731.4791    9.6954447   0.13375672 
   17600   -84.731936    7.1475489   -77.584387    1783.7369   -11216.691    9.3710071   0.12658741 
   17700   -84.791591    4.7789813    -80.01261     1192.639    20889.261     9.769139   0.11964135 
   17800   -85.967049    5.0530209   -80.914028    1261.0281    4417.1934    9.7253965   0.12328446 
   17900   -83.082739    3.8646021   -79.218136     964.4472   -17404.938    9.0533656   0.23379984 
   18000   -82.504633    3.9950759   -78.509557    997.00813   -16799.413    9.0619177   0.28855508 
   18100   -85.454033    5.4679142   -79.986119    1364.5685   -16278.554    9.4679383   0.16624744 
   18200   -86.297044    5.6470235   -80.650021    1409.2669     -9107.68    9.6336318  0.087291902 
   18300   -86.712325    4.1879492   -82.524376    1045.1414    3223.6219    9.8741464  0.088407041 
   18400   -85.257649    3.6968109   -81.560838    922.57336    13865.148    9.7777485   0.14786155 
   18500   -84.267408    3.9392046   -80.328204    983.06492   -16158.446     9.282231   0.17199463 
   18600    -84.75989     4.551646   -80.208244    1135.9053   -20289.147    9.3204991   0.15661616 
   18700   -84.216773    4.8057623   -79.411011    1199.3224   -3843.9153    9.4267887   0.17134976 
   18800   -83.315949    5.8020203   -77.513928    1447.9478    32201.132    9.6976266   0.20527529 
   18900   -84.013004    5.8096288   -78.203375    1449.8466   -7089.6322    9.3658569   0.20080234 
   19000   -85.770307     5.569435   -80.200872     1389.904    1376.6758    9.6909985   0.10060289 
   19100   -85.678062    5.4385247   -80.239537    1357.2341     7898.427    9.7502955   0.10224541 
   19200   -85.134957    5.2301521   -79.904805    1305.2328    7668.3273    9.6924227   0.13652203 
   19300   -83.789377    6.6181382   -77.171238    1651.6176   -16122.603    9.1847335   0.18959968 
   19400   -82.965335    3.3919177   -79.573418    846.48442    14809.861    9.4646048   0.20304604 
   19500   -83.603198    3.3292109   -80.273987    830.83537   -9040.4363     9.328093   0.21992644 
   19600    -85.52799    6.5487514   -78.979238    1634.3015   -9672.9003    9.4962868   0.12619335 
   19700    -86.44088    5.3437041   -81.097176    1333.5708    28874.751     10.05494  0.088846335 
   19800   -86.447767    5.0769534   -81.370813    1267.0007   -6947.0969    9.6756915  0.098321906 
   19900   -84.913777    5.1533585   -79.760418    1286.0683   -32879.096    9.1985419   0.15155772 
   20000   -84.724152    5.1804217    -79.54373    1292.8222    2331.6603    9.5290589   0.13194359 
   20100    -87.18461    5.5073807   -81.677229    1374.4178    18735.732    10.070888  0.064367948 
   20200   -85.766096    5.3002037   -80.465892    1322.7148   -1085.2851    9.6589467   0.12238059 
   20300   -84.301837    4.9020676    -79.39977    1223.3563   -20150.525    9.2508316   0.15175488 
   20400   -85.251658    4.2461635   -81.005495    1059.6694   -9413.0456    9.5060419   0.17306906 
   20500    -86.35971    3.9761765   -82.383533    992.29161    9267.5275    9.8641569  0.098841999 
   20600    -84.79435    5.0243796    -79.76997    1253.8804   -3332.7927    9.4884054   0.13776912 
   20700   -84.794867    4.8750195   -79.919847    1216.6062   -11098.074    9.4004732   0.15873481 
   20800   -86.120557    4.9554978    -81.16506    1236.6903   -11114.682     9.593295  0.087964597 
   20900   -86.653921    3.9919534   -82.661967     996.2289    25637.041    10.090915  0.083481697 
   21000   -85.519854    5.4939277   -80.025926    1371.0605   -6219.4607    9.5903435   0.11352946 
   21100    -85.05386    5.0870227   -79.966838    1269.5135   -742.55392    9.5804298   0.15771626 
   21200   -84.962608    4.4545967   -80.508011    1111.6858    -2652.567    9.5223986    0.1389474 
   21300   -86.096387    3.4792044   -82.617182    868.26763     282.4519    9.7590135   0.10157884 
   21400   -85.357372    5.0872035   -80.270168    1269.5587    3.0114303    9.6206869   0.11328442 
   21500   -84.926982    5.0191897   -79.907792    1252.5852   -851.15313    9.5930805   0.19676943 
   21600    -84.74674    5.1561236   -79.590617    1286.7583    137.19909     9.548437   0.13710281 
   21700   -86.668461    4.4195018   -82.248959    1102.9276    -19252.93    9.6041095  0.098857099 
   21800   -85.932933    4.6248338   -81.308099      1154.17   -3896.1432    9.6666991   0.11492873 
   21900   -85.895041    5.9916708    -79.90337    1495.2769   -14492.198    9.5195054   0.12377493 
   22000   -85.665966    6.0414677   -79.624498    1507.7041   -5944.5553    9.5843716   0.13044296 
   22100   -86.741522    4.4746189   -82.266903    1116.6825    9202.6774    9.8950625  0.072585516 
   22200   -85.088986    4.5108854   -80.578101    1125.7332    -11130.56    9.4565639   0.15820426 
   22300   -84.425154    5.1219107   -79.303243    1278.2202   -33435.204    9.0924264   0.19008704 
   22400   -84.572265    3.7893248    -80.78294    945.66105    4196.8057    9.5071484   0.15585761 
   22500   -86.484222    4.6661504   -81.818072     1164.481    16821.475    9.9665238  0.089785669 
   22600   -86.038254    6.7672469   -79.271007     1688.829   -3324.1449    9.6649633  0.084607694 
   22700   -85.466676    5.6962434   -79.770433    1421.5502    24607.874     9.924377   0.12613255 
   22800   -85.004858    3.9246182   -81.080239    979.42477   -12677.129    9.4521207    0.1258059 
   22900   -86.136927    3.7624906   -82.374437    938.96433   -17949.769    9.5480471   0.10641276 
   23000   -87.589673    3.6629342   -83.926738     914.1191    4987.8818    9.9860353  0.053853073 
   23100   -85.587371    4.2446466   -81.342724    1059.2908    16309.947    9.8403769  0.097640364 
   23200   -85.794844    5.0108679   -80.783976    1250.5084    8371.5586    9.7665589   0.11001022 
   23300   -84.698831    4.8419886   -79.856842     1208.363   -15998.237    9.3742603   0.16793046 
   23400   -83.736557    5.1980122   -78.538544     1297.212   -19372.484    9.2163898   0.19223986 
   23500   -85.808107    4.5267582   -81.281349    1129.6944     25761.62    9.9815802   0.11416108 
   23600   -85.570507    5.2914675   -80.279039    1320.5346    9850.9978    9.7684299   0.13100257 
   23700   -83.772255    4.4499223   -79.322333    1110.5193    -20858.98    9.1626298   0.19348024 
   23800   -85.304799    4.2144051   -81.090394    1051.7438   -12731.732    9.4504724   0.14347158 
   23900   -85.933083    4.3174754   -81.615608    1077.4659    3058.1611    9.7378156   0.11494182 
   24000   -85.399972    5.7729294   -79.627043    1440.6879    2767.4422    9.6795256   0.13510147 
   24100   -84.874001    5.6404421   -79.233559    1407.6245    12028.699    9.6790905   0.13119688 
   24200   -87.236434    5.2637013   -81.972733    1313.6053   -9941.2287    9.7381469   0.06183989 
   24300   -85.891896    4.9969856   -80.894911     1247.044   -23707.691    9.4203851   0.11713765 
   24400    -84.70031    5.3223054   -79.378004    1328.2305   -18803.732    9.3332191   0.18481346 
   24500    -84.26092    4.5427077   -79.718212    1133.6747    32864.381    9.8316459   0.14094228 
   24600   -86.096382    4.1440598   -81.952322    1034.1884   -12925.212    9.6157574   0.11999185 
   24700   -84.839336    4.6951468   -80.144189    1171.7173   -19774.421    9.3307013   0.13873547 
   24800   -83.727472    4.0476149   -79.679857    1010.1197    16254.136    9.5967978   0.16689545 
   24900   -86.774723    4.7880577   -81.986665    1194.9041   -1000.5143    9.8099398  0.093403326 
   25000   -85.476773    4.8587214   -80.618052    1212.5389    11590.619    9.7507319   0.11671736 
   25100   -84.091885    4.5713479   -79.520537    1140.8221   -7949.6839    9.3754502   0.18866364 
   25200   -84.865403    3.9764169   -80.888986    992.35161   -19744.719    9.3676247   0.18451187 
   25300   -86.782738    5.3609725   -81.421765    1337.8803   -17173.128    9.6229476  0.091946858 
   25400   -84.483725    6.0684135   -78.415311    1514.4287    25812.861    9.7652163   0.14025791 
   25500   -85.052815    5.2134034   -79.839412     1301.053    4147.5356    9.6248144   0.14152345 
   25600   -86.173368    4.6380754   -81.535292    1157.4746   -9387.0172    9.6446085   0.13196186 
   25700   -84.184604    4.8555489   -79.329055    1211.7471   -11738.514    9.3316117   0.16608945 
   25800   -84.990306    5.8837103   -79.106595    1468.3343    15183.203    9.6969567    0.1407228 
   25900   -87.365196    6.0336957   -81.331501    1505.7646   -7152.6684    9.7950299  0.079375902 
   26000   -84.382842    4.2262689   -80.156573    1054.7045   -7965.9294    9.4396876   0.20185622 
   26100   -83.303444    4.2864805   -79.016963    1069.7309   -20687.821    9.1488556    0.2032006 
   26200   -84.971671    3.8690248   -81.102646    965.55093    10361.286    9.7363587   0.13762345 
   26300    -85.11081    4.6107512   -80.500059    1150.6556    23640.777    9.8703621   0.11629376 
   26400   -85.100093    6.9028581   -78.197234    1722.6721   -17377.596     9.365443   0.14941028 
   26500   -85.557029    5.0102992    -80.54673    1250.3665   -1048.2668    9.6610261   0.13353321 
   26600   -84.563798    4.1878913   -80.375907     1045.127    13337.392    9.6356469   0.14129966 
   26700   -83.249714    5.0744961   -78.175218    1266.3874     3961.509    9.3530178   0.20464401 
   26800   -85.673371    4.9956385   -80.677733    1246.7078   -1404.3773    9.6402085   0.12425528 
   26900   -85.830357    4.9697345   -80.860623    1240.2432   -19601.239    9.4693201   0.13625484 
   27000   -84.832972    5.1954183   -79.637554    1296.5647    8326.4253    9.6000288   0.13663106 
   27100   -83.963192     5.448242    -78.51495    1359.6592    26477.912    9.7202683   0.12739832 
   27200   -85.861437    4.5616202   -81.299817    1138.3945    8016.0225    9.7854484   0.11587861 
   27300   -84.992048    4.5159185   -80.476129    1126.9892   -19246.445    9.3271506   0.13897169 
   27400   -84.552986    5.3231995   -79.229787    1328.4537    -24663.68    9.2180028   0.14458502 
   27500   -85.709715    4.1782817   -81.531434    1042.7288    26424.185    9.9951687   0.11996647 
   27600   -86.333007    5.5291694   -80.803837    1379.8554    13856.343    9.9037004  0.092814147 
   27700   -84.890102    5.9650296   -78.925072    1488.6283   -28408.403    9.2569254   0.11747655 
   27800   -85.529946    4.9502817   -80.579664    1235.3886    20229.592    9.8457408   0.13131979 
   27900   -86.855937    4.9233322   -81.932605    1228.6631    10485.684    9.9661988  0.088457554 
   28000   -84.568741    5.0591054   -79.509635    1262.5465   -14411.289    9.3429528   0.16734839 
   28100   -84.965816    4.9603511   -80.005465    1237.9015   -15925.617    9.4048764   0.14468889 
   28200   -85.288408    3.8125071   -81.475901    951.44641    23806.147     9.902754    0.1161662 
   28300   -85.619924    4.9250426   -80.694882    1229.0899    6109.6518     9.726273   0.11466699 
   28400   -84.916865    5.8128754    -79.10399    1450.6568    15604.808    9.6604835   0.11604963 
   28500   -85.662745    5.0376242   -80.625121    1257.1857   -8865.5219    9.5719536    0.1326191 
   28600   -85.394559    4.0138217   -81.380737    1001.6863   -22935.646    9.4037938   0.14800311 
   28700    -84.20029    5.6179438   -78.582346    1402.0098   -18488.682    9.2730985   0.21719489 
   28800   -83.712238    4.4892591   -79.222979    1120.3361    13779.628    9.4982862   0.22417581 
   28900   -85.413295     4.831267   -80.582028    1205.6874    -20376.23    9.4087253   0.11072767 
   29000    -85.67416    4.1662879   -81.507872    1039.7357     12536.13     9.798997   0.11507698 
   29100   -83.764627    4.9834296   -78.781198    1243.6609    3941.6186    9.4469368   0.19646937 
   29200   -84.837358    4.8909504   -79.946408    1220.5819    2734.6855     9.594604   0.11921247 
   29300   -86.640967    5.2442885   -81.396678    1308.7607    12617.122    9.9043012   0.07698423 
   29400   -85.274534    5.8473029   -79.427231    1459.2485   -6491.4539    9.5069415   0.12758374 
   29500   -83.995965    4.7865568   -79.209408    1194.5295    10865.304    9.5685087   0.16005243 
   29600   -85.538308    4.4510704   -81.087237    1110.8058   -5323.2518    9.5902002   0.13017837 
   29700   -85.624339    5.5508321   -80.073507    1385.2615   -13282.951    9.5093838   0.10802721 
   29800   -83.518977    6.0020657   -77.516912     1497.871    31410.605    9.6554278   0.19259652 
   29900   -85.511986    5.9044105   -79.607576    1473.5003    6961.6808    9.7038235   0.11402144 
   30000    -86.03044    5.6222739   -80.408166    1403.0904   -1619.4862    9.6729365   0.11137034 
   30100   -84.140318    5.3584924   -78.781826    1337.2613     17383.76    9.6951576   0.14951615 
   30200   -84.311592     6.846151   -77.465441    1708.5203   -15404.432    9.2905748   0.17282492 
   30300   -85.239226    5.4168674   -79.822358    1351.8293   -21816.764    9.3760922   0.13579997 
   30400   -85.224661    4.4545408    -80.77012    1111.6719    7806.8012    9.7152992     0.146848 
   30500   -85.829023    5.1850966   -80.643926    1293.9888    4538.9162    9.7132786   0.11834447 
   30600   -84.126057    6.1866505   -77.939407    1543.9358    17756.104    9.6145278   0.18425095 
   30700   -85.943959    6.3382694   -79.605689    1581.7737    4965.0952    9.7303022   0.13648887 
   30800   -84.534602    3.4992476   -81.035355     873.2696   -17391.256    9.3935581   0.16278205 
   30900   -84.161702    4.8118885   -79.349813    1200.8513   -32894.273    9.1117607    0.1821735 
   31000    -85.02108    6.4447043   -78.576376    1608.3355   -18302.132    9.3383042   0.13220748 
   31100   -85.687005    5.1238338   -80.563171    1278.7001    23895.289    9.9006997   0.11436116 
   31200   -85.470225    5.5145222   -79.955703       1376.2   -249.80294    9.6173323   0.11182255 
   31300   -83.170555    5.0410583   -78.129497    1258.0427    6698.2659    9.3514845   0.21874684 
   31400   -85.812512    4.6106994   -81.201813    1150.6427   -1471.8245    9.6538151  0.095752612 
   31500   -85.651981    4.7692926   -80.882689    1190.2211   -6455.2896    9.5970793   0.11260269 
   31600   -84.344424    4.9824992   -79.361925    1243.4288    1910.2181    9.5267184   0.18564588 
   31700   -83.975389    5.3834843   -78.591905    1343.4983     2189.695    9.3927552   0.24509325 
   31800   -86.348301    4.6949512    -81.65335    1171.6685    -2126.044    9.7616652  0.094026287 
   31900   -85.176455    4.4266382   -80.749817    1104.7085   -21018.713    9.4054907   0.12779535 
   32000   -85.606877    6.0633288   -79.543548    1513.1598    -16301.98     9.438925   0.12258069 
   32100   -85.469991    5.2245228   -80.245469     1303.828    30276.132    9.9630495   0.11784888 
   32200   -86.266725    4.4365444    -81.83018    1107.1807   -7753.2294     9.681874   0.10902228 
   32300   -84.411724    4.3464356   -80.065288    1084.6932   -7909.8284    9.4538894    0.1764534 
   32400   -85.135943    5.3651056   -79.770838    1338.9117   -3591.1522    9.5577422   0.12915231 
   32500   -86.034947    3.8900787   -82.144868     970.8051    17675.466     9.927803  0.087663801 
   32600   -85.687687    5.0957591   -80.591928    1271.6938    4382.3261    9.7344257    0.1025776 
   32700   -85.109262    5.1449982   -79.964264    1283.9819   -13550.682     9.443797   0.15212658 
   32800   -84.371178    5.2025537   -79.168625    1298.3454    6555.8951    9.5875426   0.14319029 
   32900   -83.173577     6.328692   -76.844885    1579.3836    10886.589    9.3898476    0.2227449 
   33000   -80.976478    6.8932694   -74.083209    1720.2791    21245.398    9.2729485   0.29394297 
   33100   -84.751513    6.2935663   -78.457947    1570.6177   -702.78304    9.5422901   0.13099926 
   33200   -83.643839    4.2434989    -79.40034    1059.0044    2593.0884    9.4435583   0.18571722 
   33300   -84.538313    4.7357235    -79.80259    1181.8436    5814.0649    9.6017641   0.16870086 
   33400   -86.131986    4.9499478   -81.182038    1235.3052    13078.927    9.8412089   0.10477019 
   33500    -86.14738    4.1352254   -82.012155    1031.9837   -3171.0136    9.7079999   0.10666804 
   33600   -84.889107    5.2266665   -79.662441     1304.363   -8853.1175    9.4533145    0.1446025 
   33700   -84.917105    4.7510791   -80.166026    1185.6757    6743.6185    9.6711922   0.12064937 
   33800   -86.024186    4.3440245   -81.680162    1084.0915    38771.069    10.173709  0.089956247 
   33900   -86.292721    4.8815271   -81.411194    1218.2302   -4771.5562     9.690117   0.10628311 
   34000   -84.270768    4.6788222   -79.591945    1167.6434   -22304.762    9.2022507   0.15245099 
   34100   -84.722599    4.3881152   -80.334484    1095.0947   -5908.1163    9.4561574   0.13574729 
   34200    -85.99242    4.2481379   -81.744282    1060.1621    1708.6816    9.7353623   0.10975061 
   34300   -86.240006     5.097533   -81.142473    1272.1365   -7067.5225    9.6621138   0.11889843 
   34400   -84.992406      5.50659   -79.485816    1374.2204    5877.1839    9.6199852   0.12515809 
   34500    -85.57833    5.2016448   -80.376686    1298.1186    2583.3396    9.6722894   0.11377469 
   34600   -86.296323    5.4092183   -80.887104    1349.9205    3686.6314     9.808275  0.098361386 
   34700   -83.193625    5.1043855   -78.089239    1273.8466   -6840.7221    9.2522951   0.17011414 
   34800   -84.228338    5.5221531   -78.706185    1378.1044    -26872.21    9.1447249    0.2055206 
   34900   -85.073152    4.5385648   -80.534587    1132.6408   -560.16217    9.5799585   0.15107699 
   35000   -86.422627    5.5588947   -80.863732    1387.2736    3462.5869    9.7841395   0.10758977 
   35100   -83.380508    5.4535798   -77.926928    1360.9913    3643.6612    9.3905644   0.18649501 
   35200   -82.677186    4.2641183   -78.413068    1064.1502   -23186.897    8.9207207   0.33135184 
   35300    -84.03803    4.3593628   -79.678668    1087.9193   -5114.2285    9.3637693   0.17029577 
   35400   -86.088176    5.1307478   -80.957429    1280.4256    24390.536    9.9612885   0.10471659 
   35500   -85.332855    5.5024501   -79.830405    1373.1873    13502.501    9.7844097   0.12662937 
   35600   -83.472153    4.9930447   -78.479108    1246.0605    2731.8303    9.3722514   0.24992545 
   35700   -84.341315    3.3405392   -81.000775    833.66246    -16943.56    9.2782586   0.21087015 
   35800   -84.306007    3.6410226   -80.664984    908.65087   -5167.3747    9.4164882   0.14976267 
   35900   -85.625011     6.601675   -79.023336     1647.509   -18212.467    9.4481208   0.12141409 
   36000   -86.444845    5.1210025   -81.323843    1277.9935    18917.252    9.9724666  0.094107552 
   36100   -86.330238    5.5365398   -80.793698    1381.6947   -5321.7263    9.6833668   0.11465312 
   36200   -84.946831    5.9894368   -78.957394    1494.7193   -17997.205    9.3709638   0.12953263 
   36300   -85.011992    4.2508153   -80.761177    1060.8303    8337.2508    9.6950064   0.11969366 
   36400    -85.58124    4.1091305    -81.47211    1025.4715    14086.722    9.8271413   0.11058925 
   36500   -85.068819    6.0850748   -78.983745    1518.5867    10053.915    9.6677052   0.11684895 
   36600   -85.819644    5.4870152   -80.332628    1369.3354   -6566.4192    9.5913946   0.12105415 
   36700   -85.701276    4.7526628   -80.948613     1186.071   -14619.472    9.5006135   0.12488114 
   36800   -83.548954     5.231502   -78.317452    1305.5697     893.8507    9.3016261   0.22947818 
   36900   -84.680937    5.7070698   -78.973867     1424.252    5352.0254    9.5460608   0.14255425 
   37000   -85.340124    4.6328926   -80.707231    1156.1812   -15437.993    9.4834673   0.11388728 
   37100   -85.096329    4.9397244   -80.156604    1232.7539     8554.983    9.6819067   0.17279115 
   37200   -82.130502    4.6143044   -77.516198    1151.5423    18913.895    9.3636746   0.24911053 
   37300   -84.704413    5.1000927    -79.60432    1272.7753   -20387.797    9.3077492   0.16656064 
   37400   -84.443989    3.9622326   -80.481757    988.81179     2653.895    9.5640892    0.1610614 
   37500    -85.63965    5.5108613   -80.128789    1375.2864    30323.599    9.9571519   0.10563677 
   37600   -86.779274    4.0095084   -82.769766    1000.6099    10502.439    9.9531087  0.071927447 
   37700   -85.472606    3.8928162    -81.57979    971.48828   -13943.982    9.5415412   0.15042214 
   37800   -84.008998    3.7339983      -80.275    931.85381   -7087.4076    9.3894992   0.16457625 
   37900   -85.107129    5.0287865   -80.078342    1254.9802    8090.0224    9.6672782   0.14299274 
   38000   -86.695817    4.8692834   -81.826534    1215.1747    24707.446    10.075874  0.082055172 
   38100   -86.604968     4.542386   -82.062582    1133.5944    1443.1295    9.8295531  0.084746545 
   38200   -83.808864    3.8144339    -79.99443    951.92726   -19812.195    9.2046215   0.21321235 
   38300   -83.892002    4.1418888   -79.750113    1033.6466   -15780.049    9.2607581   0.21234597 
   38400   -85.267937    3.9395338   -81.328403    983.14709   -15498.838    9.4558024   0.17043796 
   38500   -86.057983    5.7904085   -80.267574      1445.05     13848.82    9.8340892   0.10167782 
   38600   -84.271528    5.6724896   -78.599039    1415.6222    4510.7889    9.4827412   0.16199567 
   38700   -84.877648    4.3092361   -80.568412    1075.4097     4379.125    9.5873298   0.15556983 
   38800   -85.161623    4.0448239   -81.116799    1009.4232    6998.2214     9.680792   0.13183011 
   38900   -84.096026     6.131341   -77.964685    1530.1328   -12140.597    9.2509672   0.19794155 
   39000   -85.179331    5.7851136   -79.394218    1443.7286    22203.783    9.8146559   0.14483148 
   39100    -86.15451    5.3319902    -80.82252    1330.6475    13607.327    9.8749901   0.09101433 
   39200   -84.873646    4.7773918   -80.096254    1192.2423   -14940.513     9.366172   0.17834655 
   39300   -83.133622    4.9259373   -78.207685    1229.3132   -37361.808    8.8784378   0.27034167 
   39400   -85.417346    5.0309911   -80.386355    1255.5304   -22273.842    9.3476245   0.15710307 
   39500   -86.138278    5.3384389   -80.799839    1332.2568    5833.4673      9.75681  0.093987245 
   39600   -85.716942    6.2666208   -79.450321    1563.8932    5117.6309    9.6906239   0.11892908 
   39700   -83.885698    6.2151683   -77.670529    1551.0527    -4897.006    9.3184095   0.19252073 
   39800   -84.723688    4.5370638   -80.186625    1132.2662   -15065.417    9.3560756   0.13734943 
   39900    -85.15519    4.4697591   -80.685431    1115.4697   -5438.6503    9.5297936   0.13584292 
   40000   -84.348902    5.5659235   -78.782979    1389.0277    33660.185    9.8437148   0.16802018 
   40100   -83.194822    5.6584195   -77.536403    1412.1109   -319.31767    9.2778306    0.2556444 
   40200   -85.899726    5.1859079   -80.713818    1294.1913   -6525.0965     9.625806   0.12317238 
   40300   -85.497111    4.8825787   -80.614533    1218.4927    10156.407    9.7351195   0.12535904 
   40400   -85.148792    6.1217614    -79.02703    1527.7422   -3672.6837    9.5430554   0.13292126 
   40500   -82.738983    5.4414468   -77.297536    1357.9634    4475.9508    9.2765107   0.22613817 
   40600   -84.084998     4.069008    -80.01599    1015.4586    34199.215    9.8591994   0.14418286 
   40700   -86.096711    5.9795901   -80.117121     1492.262    -813.5594    9.6926752  0.099272941 
   40800   -85.401574    4.9989382   -80.402636    1247.5313   -12338.291    9.5180858    0.1233565 
   40900   -85.451025    4.5970548   -80.853971    1147.2375   -15581.296     9.513066   0.13176092 
   41000   -86.834879    3.7672692   -83.067609    940.15688    8414.1859    9.9458666  0.089300001 
   41100   -85.685829    4.2921228   -81.393706    1071.1389    3169.2286    9.7259417   0.11279853 
   41200   -84.943573    4.8926998   -80.050873    1221.0185     773.5656    9.5916551   0.13870008 
   41300   -84.946345    5.0963299   -79.850015    1271.8362    35923.738    9.9476812   0.10613941 
   41400   -86.699582    4.4260007   -82.273581    1104.5494     11309.26    9.9456493  0.073328606 
   41500   -84.864477    4.4579663   -80.406511    1112.5267    -26849.76    9.2589997   0.14808613 
   41600   -83.653225    3.8518477   -79.801377    961.26421   -6502.6909    9.2925521   0.21965875 
   41700   -84.149431    3.8829838   -80.266447     969.0345   -7089.8769    9.4068606    0.1884808 
   41800   -86.817721    4.1947511    -82.62297    1046.8389   -18854.653    9.6368072  0.084321267 
   41900   -85.938472    5.3137532   -80.624719    1326.0962    10888.151    9.8006115  0.094607569 
   42000   -85.578981    5.6845482   -79.894432    1418.6316    9551.3606    9.7542891   0.10114986 
   42100   -85.673104    4.8907561   -80.782348    1220.5334   -1348.0067    9.6269021   0.11079008 
   42200   -86.397994    3.6638899   -82.734104     914.3576   -5907.4302    9.7118318   0.10152051 
   42300   -84.593832     4.202202    -80.39163    1048.6984   -4930.7069    9.4541074   0.15717272 
   42400   -84.565742    4.5361417     -80.0296    1132.0361   -7780.9068    9.4071689   0.16904201 
   42500   -85.255928    4.5989427   -80.656985    1147.7087   -262.68706    9.5587359   0.11884876 
   42600   -86.087822    3.9569481   -82.130874      987.493    12779.885    9.8744202   0.10369245 
   42700   -86.598291    3.6604125   -82.937879    913.48979   -4846.1998    9.7750091   0.09872352 
   42800   -86.543238    5.8530908   -80.690147    1460.6929   -4975.4955    9.7139625   0.10418701 
   42900   -85.937473    5.6227312   -80.314742    1403.2046   -10727.936    9.6054277   0.13820833 
   43000   -84.651397    5.1281022   -79.523295    1279.7653   -15109.103    9.3681806   0.15128862 
   43100    -84.89303    6.8090355   -78.083994    1699.2578   -14965.523    9.3057825   0.12377738 
   43200   -82.438003    7.9529835   -74.485019    1984.7406   -4338.9189    9.1219944   0.23538776 
   43300   -84.650197    7.1625631   -77.487634    1787.4839    27354.162    9.7838317   0.14144334 
   43400   -84.660379    5.1638482    -79.49653    1288.6861    22512.202     9.800209   0.12937665 
   43500   -85.687138    5.6862284    -80.00091    1419.0509   -23705.851    9.4094738   0.13448195 
   43600   -84.727077    3.2645756   -81.462501    814.70503    1869.4411    9.5240183   0.15735624 
   43700   -86.173161    4.2796188   -81.893542    1068.0184   -9297.9279    9.6291561   0.10225848 
   43800   -84.849515    5.2739098   -79.575605     1316.153    11218.016    9.6777505   0.13672924 
   43900   -85.746884    5.6548744    -80.09201    1411.2262     11468.94    9.7734161   0.13478448 
   44000    -85.87889    4.1269717   -81.751919     1029.924    -7070.561    9.6141646   0.12070096 
   44100   -84.898577    4.8484036   -80.050173     1209.964   -24258.643    9.2822534   0.16081739 
   44200   -84.018977    4.8377259   -79.181251    1207.2992    -681.5161     9.418906   0.15433419 
   44300    -85.89757    5.5074647   -80.390105    1374.4387    7098.8691    9.7544836   0.12561412 
   44400   -85.798431    4.9669888   -80.831442     1239.558    8722.7889    9.7514609    0.1140732 
   44500   -83.261713    5.3861064   -77.875606    1344.1527   -20728.402    9.1029588      0.19154 
   44600   -84.276062    4.8190596   -79.457003    1202.6409    -1651.639    9.4518943   0.17282022 
   44700   -85.945471    4.8927576   -81.052714    1221.0329    543.26444    9.7130611  0.089730415 
   44800   -85.623463    6.0924758   -79.530988    1520.4337     21292.44    9.8710881   0.10606922 
   44900   -85.206944    6.0923389   -79.114605    1520.3995   -8605.8092    9.4698121   0.12820647 
   45000   -86.464674    4.8867555   -81.577918     1219.535   -5081.1139    9.7183994  0.098608531 
   45100   -85.395598    5.2993811   -80.096217    1322.5096    13091.652    9.7774171   0.11787984 
   45200   -84.984265    5.8156116   -79.168653    1451.3397   -5791.7283    9.5162534    0.1565866 
   45300    -86.67278    5.1284079   -81.544372    1279.8416    -16943.39    9.6051547  0.087456162 
   45400   -85.695331    4.6429709    -81.05236    1158.6963   -3912.9885    9.6298899    0.1174943 
   45500   -84.671165    5.5190292   -79.152136    1377.3248    25673.537    9.7860435    0.1342554 
   45600   -85.344531     4.653097   -80.691434    1161.2234    8086.2075    9.7281806   0.12723905 
   45700   -85.923672    4.5039258   -81.419746    1123.9963    -2539.327     9.691595   0.09751617 
   45800   -83.648632    4.8381406   -78.810492    1207.4027    1454.4441    9.3965021   0.21133302 
   45900   -84.366837    4.9418309   -79.425007    1233.2796    4623.8092    9.5502629   0.14053431 
   46000    -86.19004    4.6973904   -81.492649    1172.2772    8360.8028    9.8367987   0.12544734 
   46100   -85.656717     5.689172   -79.967545    1419.7855   -6569.0377     9.593974   0.10026269 
   46200   -84.373193     5.047352   -79.325841    1259.6134   -1049.4558    9.5155572   0.14971013 
   46300   -86.310433    4.3420596   -81.968374    1083.6011   -11456.076    9.6517027  0.091263094 
   46400   -86.258668    5.6632488   -80.595419    1413.3161    7349.6247    9.8071324   0.10510161 
   46500   -85.980007    6.6586414   -79.321366    1661.7255    21956.568    9.8794845  0.081099892 
   46600   -86.173676    4.8212653   -81.352411    1203.1913   -1181.7362    9.7133885   0.11367238 
   46700   -84.840901    3.2026542   -81.638246    799.25196   -13371.575    9.4578469    0.1182342 
   46800   -84.182602    4.7596922   -79.422909    1187.8252   -15524.124    9.2851552    0.1886381 
   46900    -85.35261    5.5577477   -79.794862    1386.9873    17703.391    9.8003755   0.11662117 
   47000   -86.265063    4.4074013   -81.857661    1099.9078    8787.9126    9.8546933  0.083402572 
   47100   -85.148573    5.3744847   -79.774088    1341.2524   -2839.5392    9.5403398   0.12858842 
   47200    -84.62153    5.4946997    -79.12683    1371.2531   -9062.6437    9.4321631   0.18396823 
   47300   -85.874662    4.2341302   -81.640532    1056.6663   -1226.7856    9.6950017   0.11826194 
   47400   -85.768847    5.2213051   -80.547542     1303.025   -1879.0675    9.6328992    0.1038904 
   47500   -84.820621     5.446585   -79.374036    1359.2456   -16943.982    9.3373658   0.15044385 
   47600   -86.242093    4.6067588   -81.635334    1149.6593   -7021.7868    9.6528437  0.094065835 
   47700   -86.485576    5.6261182   -80.859458    1404.0498    9144.7557    9.8653839    0.1017835 
   47800   -85.343036    6.1735378   -79.169498    1540.6634    14019.505    9.7314952   0.12062299 
   47900   -85.504221    4.6599117   -80.844309     1162.924   -16470.171    9.4528272   0.10409317 
   48000   -85.605238    3.8655834   -81.739655    964.69209    -28945.53    9.3770921   0.12311264 
   48100   -84.982751      5.77264   -79.210111    1440.6157   -7220.5875    9.5035951   0.17012984 
   48200   -85.729372    6.1232622    -79.60611    1528.1167   -2270.8814     9.623215   0.11381029 
   48300   -86.595001    5.0048769   -81.590124    1249.0133    6892.6249    9.8289504  0.071699048 
   48400   -85.231266    5.1058705   -80.125395    1274.2172    -6635.379    9.5439659   0.11645632 
   48500   -85.204188    5.7629377    -79.44125    1438.1944   -6629.3893    9.5348237   0.13122035 
   48600   -86.330975    5.3793205   -80.951654    1342.4592    177.67307    9.7407613    0.0928588 
   48700   -85.650868    4.3375387   -81.313329    1082.4729    4210.3375    9.7325608   0.09913575 
   48800   -83.704922    5.5445036   -78.160418    1383.6821    -29813.66    9.0824285   0.19808946 
   48900   -84.594391    4.4307987   -80.163593    1105.7468    17752.333    9.7475328   0.13941162 
   49000    -85.33802     4.846227   -80.491793    1209.4208    44750.548    10.103989   0.10822169 
   49100    -85.56846    6.6019945   -78.966466    1647.5888    -3542.442     9.561125   0.12273161 
   49200   -83.240553    5.2973913   -77.943162     1322.013   -4605.0499    9.2445161   0.22150344 
   49300   -84.716275     4.167061   -80.549214    1039.9286   -6072.8583     9.504865    0.1339215 
   49400   -85.320252    4.3982373   -80.922015    1097.6208   -44.105805    9.6119164   0.11410036 
   49500   -84.135598    5.6584514   -78.477147    1412.1189    3781.6747    9.4574646   0.15997166 
   49600   -83.648959    5.0334088    -78.61555    1256.1337    11750.501    9.5686653   0.17900578 
   49700    -85.89491    4.8933475   -81.001562    1221.1801    4086.7944    9.7415874   0.10261734 
   49800   -85.553551    5.4866832   -80.066868    1369.2525   -19906.945    9.4356095    0.1080515 
   49900   -84.923156     6.212134   -78.711022    1550.2955    3680.4004    9.5560694   0.14586249 
   50000   -86.033818    5.0752775    -80.95854    1266.5824    24296.691    9.9907682    0.1001054 
   50100   -85.746817    4.5395576   -81.207259    1132.8886    13793.757     9.848875   0.10367015 
   50200   -83.232935    4.2416842   -78.991251    1058.5515    -6622.527    9.2895301   0.19996048 
   50300   -84.902672    4.5039228    -80.39875    1123.9956   -11495.757    9.4346137   0.13637534 
   50400    -86.47937    4.7880659   -81.691304    1194.9061    12235.137    9.9074007   0.11140388 
   50500   -84.905469     5.708387   -79.197082    1424.5808    1336.7025    9.5776748   0.13883749 
   50600    -85.44623    5.6583473   -79.787883    1412.0929    5778.8167    9.6772277   0.11684174 
   50700   -86.314586    4.6153809   -81.699205     1151.811   -4461.3058    9.7144499  0.089103759 
   50800   -83.435573    3.8899353   -79.545638    970.76933   -17969.207    9.1821064   0.21710323 
   50900   -83.725058    4.6687738   -79.056284    1165.1357   -13176.813    9.1780405   0.20819452 
   51000   -86.392541    6.1969738   -80.195567    1546.5121    5782.2521    9.8036556   0.10278135 
   51100   -86.723554    5.4316752   -81.291879    1355.5248    21804.631    10.053413  0.074429962 
   51200   -84.255254    5.4864197   -78.768835    1369.1868   -17179.254     9.280402   0.16333627 
   51300   -83.776538    4.2750475   -79.501491    1066.8776     11277.24    9.4758956   0.22810917 
   51400   -85.119795    4.1634683   -80.956326     1039.032   -18565.309    9.4124009   0.11905125 
   51500   -85.669122    4.1316366   -81.537485    1031.0881   -7410.1526    9.6055274    0.1289772 
   51600   -84.491429    5.7201937   -78.771236    1427.5272    1932.8559    9.5048141   0.14051135 
   51700    -85.12665    5.1675441   -79.959106    1289.6084    7517.2635    9.6584548   0.13135067 
   51800   -85.790075    4.0624624   -81.727613    1013.8251    21183.659     9.905266  0.095399249 
   51900   -85.259529    5.7283714   -79.531158    1429.5681   -13105.438     9.448576   0.14153144 
   52000   -84.211014    4.8116812   -79.399333    1200.7995   -4857.9505    9.3754101   0.17112738 
   52100   -84.858179     3.740776   -81.117403    933.54525   -13065.236    9.4532973   0.14739417 
   52200   -84.660563    4.6455894   -80.014974    1159.3498    10796.213    9.6383589   0.12037745 
   52300    -84.18421    5.6853681   -78.498842    1418.8362    24068.615    9.7584733   0.16604133 
   52400   -85.432581    4.6186562   -80.813925    1152.6284    13683.198    9.7562384  0.095494726 
   52500   -85.687463    5.1864316   -80.501032     1294.322   -12642.893    9.5258413   0.12143957 
   52600   -82.699113     4.669546   -78.029567    1165.3284   -18606.948    8.9829736   0.29609744 
   52700   -84.072386    4.7257554   -79.346631     1179.356   -24384.905    9.1905127   0.18362672 
   52800   -85.996254    5.6604856   -80.335768    1412.6265   -12658.918    9.5525664   0.11677695 
   52900   -86.073391    5.1796616   -80.893729    1292.6325     8931.659    9.7748674  0.091008364 
   53000   -87.197743    5.3775689   -81.820174    1342.0221   -14116.427    9.7180985  0.083256636 
   53100   -86.688842    3.4339684   -83.254874    856.97858    10397.369    9.9195026  0.066892549 
   53200   -86.118704    4.7469929   -81.371711     1184.656    -13539.28     9.578829   0.12519324 
   53300   -85.050452    4.9668424   -80.083609    1239.5215    4921.5008    9.6257101   0.13193712 
   53400    -84.61806    4.1410332   -80.477027    1033.4331   -1619.7329    9.4977239   0.15181472 
   53500   -86.048072    3.4194613    -82.62861    853.35818    6973.0286    9.7947009  0.090615038 
   53600   -85.976374    4.9812568   -80.995117    1243.1187    14180.742    9.8414087   0.10159491 
   53700     -86.0502    5.9090092   -80.141191    1474.6479   -4297.0519    9.6517164   0.11627288 
   53800   -84.804694    4.5618323   -80.242861    1138.4474   -13171.659    9.3900155   0.13001637 
   53900   -86.234837    3.7500605   -82.484776    935.86227   -21750.365    9.5241428   0.10489794 
   54000   -84.771194    3.8649597   -80.906234    964.53644    13013.919    9.6813757   0.15153742 
   54100   -84.104018      4.34697   -79.757048    1084.8266    10655.136    9.6000629   0.16752657 
   54200   -85.583773    5.5787048   -80.005069    1392.2174    26576.985    9.9179196     0.104228 
   54300   -86.616155    4.5718356    -82.04432    1140.9438    16214.128    9.9753808  0.099536482 
   54400   -84.397785    4.0711791   -80.326606    1016.0004   -27968.103    9.2264096   0.18439629 
   54500   -83.680669    4.1631897   -79.517479    1038.9625   -18886.928    9.1735799   0.21604162 
   54600   -84.084148    3.6508921   -80.433256    911.11387    18053.913    9.6768345   0.14426004 
   54700   -86.605787    4.7050714   -81.900716    1174.1941   -1592.4861    9.7681182  0.097873441 
   54800   -86.045379    3.8753238   -82.170055     967.1229    23188.029    9.9708097   0.10908817 
   54900   -85.091419    5.0788236   -80.012596    1267.4674   -7808.1699       9.4958   0.13448485 
   55000   -85.383175    5.0991992   -80.283976    1272.5523   -18337.723    9.4350918   0.12877249 
   55100   -85.287692    4.3207441   -80.966948    1078.2816    12032.832    9.7389714   0.12194449 
   55200   -87.433424    4.2724105   -83.161014    1066.2195    12597.167    10.055896  0.069148423 
   55300   -85.796893    3.9175637   -81.879329    977.66426    10745.686    9.8075598   0.10139605 
   55400   -85.138355     4.550004   -80.588351    1135.4956   -12390.758    9.4770931   0.13183022 
   55500   -85.284915    5.1568777   -80.128037    1286.9465   -11059.122    9.4384192   0.14462946 
   55600   -84.512506      4.91081   -79.601696    1225.5381   -1329.0281    9.4771899   0.16918781 
   55700   -81.636481    5.3302864   -76.306195    1330.2223   -1509.3716    9.0636299   0.33959853 
   55800   -84.293247    5.0051838   -79.288063    1249.0899    -27141.54    9.1665988   0.16483425 
   55900   -84.200442    4.1218444   -80.078597    1028.6444   -3033.9296    9.4755429   0.20527252 
   56000    -85.42003    5.6446866   -79.775343    1408.6837     24719.37    9.8610312   0.11946373 
   56100    -86.42197    4.3779597    -82.04401    1092.5603   -2415.0897    9.7553101  0.095691869 
   56200   -86.465035    4.7864732   -81.678562    1194.5087   -24762.749    9.5041644   0.10035679 
   56300   -85.011057    5.0110489   -80.000008    1250.5536   -426.99548    9.5784838    0.1332929 
   56400   -86.096069    6.1739295    -79.92214    1540.7612    17024.728    9.8779848    0.1069901 
   56500   -84.887781    5.9098896   -78.977891    1474.8676    38976.509    9.9372392    0.1162478 
   56600   -83.176209    6.2347108   -76.941498    1555.9297   -4889.8825    9.2510188   0.21875354 
   56700   -84.657714    5.7148332   -78.942881    1426.1895   -819.75967    9.5189267   0.16522054 
   56800   -86.569287    6.3611348   -80.208152      1587.48   -19096.321    9.5752428    0.1004753 
   56900    -85.03358     4.362508   -80.671072    1088.7042    18288.059    9.7942214   0.11150331 
   57000   -84.041414     4.851293   -79.190121     1210.685    10970.985    9.5387662   0.13707931 
   57100   -82.774003    4.6833546   -78.090648    1168.7744   -5268.3428    9.2219903   0.23883759 
   57200    -85.46524    5.3701729   -80.095067    1340.1763   -20804.157    9.4010908    0.1258576 
   57300   -86.300556    5.7258455   -80.574711    1428.9377    4424.1223    9.7739159  0.092185256 
   57400   -84.156157    5.8611685   -78.294988    1462.7088    21043.409    9.5824351   0.19692095 
   57500   -83.929149    5.4694201   -78.459729    1364.9444   -9762.7001    9.2482508   0.18473324 
   57600   -85.511636    4.7720662    -80.73957    1190.9133   -22578.645    9.4231152   0.14207698 
   57700   -85.902341    5.4902131   -80.412127    1370.1335    2842.6012    9.7062923   0.12271621 
   57800   -82.096726     4.349472   -77.747254    1085.4509    21937.416    9.4046047    0.2363884 
   57900   -84.434597     4.388369   -80.046228    1095.1581     336.0943     9.507004   0.15680794 
   58000   -85.733591    4.9580351   -80.775556    1237.3235    -9016.271    9.5961237   0.10498296 
   58100    -84.90996    5.4843731   -79.425587     1368.676   -2514.7977    9.5023215    0.1131191 
   58200   -84.064858    6.3923959   -77.672462    1595.2815    18588.386    9.6360009   0.18875148 
   58300   -86.154006     5.629562   -80.524444    1404.9093   -9221.1423    9.6213483  0.089971998 
   58400   -85.549024    4.6468321   -80.902192    1159.6599    3657.4942    9.6708798   0.11794392 
   58500   -84.434166    5.1303928   -79.303774     1280.337     953.7505    9.5018222   0.15413653 
   58600   -83.954099     4.984244   -78.969855    1243.8642   -11097.324    9.3336901   0.14768401 
   58700   -85.574524    4.1768525   -81.397672    1042.3722    25079.843    9.9382297   0.12219522 
   58800   -85.822008    5.7653379    -80.05667    1438.7934   -38.093474    9.6870437  0.095754717 
   58900   -84.291192    4.5578313    -79.73336     1137.449    14166.452    9.5905681   0.15707921 
   59000   -85.950188    3.5903394   -82.359849    896.00241    -14524.95    9.5771453   0.10152123 
   59100    -85.87055    4.9230166   -80.947534    1228.5843    -13914.96    9.5514305    0.1390906 
   59200   -85.343639    5.6690255   -79.674613    1414.7577    18612.399    9.8247237   0.11647261 
   59300   -85.943994    5.3771099   -80.566884    1341.9075    9766.0528    9.7921791   0.10847662 
   59400    -87.18123    4.9068191   -82.274411    1224.5421    3635.5075     9.920042  0.087581986 
   59500   -85.134262    5.2417446   -79.892517    1308.1258   -26389.753    9.3218427   0.12589908 
   59600   -84.460778    4.6782038   -79.782574     1167.489   -5036.4649    9.4134771   0.19355918 
   59700   -84.860622    4.1058553   -80.754767    1024.6542   -8276.2034    9.4958362   0.13864643 
   59800   -86.700821    4.4636842   -82.237137    1113.9537    3679.5208    9.8490136  0.084455696 
   59900    -85.52742    5.4294954   -80.097924    1354.9808    20119.644    9.8714908   0.14137914 
   60000   -84.698968    5.1250831   -79.573885    1279.0119   -4606.1562    9.5050655   0.13541259 
   60100    -84.10911    3.8499987   -80.259111    960.80277   -8402.2077    9.3770731   0.14921322 
   60200   -86.413759    4.9426883   -81.471071    1233.4936   -19379.175    9.5457145   0.11270452 
   60300   -86.736577    4.4506078   -82.285969    1110.6903    31060.599    10.145259  0.064685692 
   60400   -85.482034    5.9172811   -79.564753    1476.7122    1886.2678    9.6312023   0.12785305 
   60500   -84.205272    4.3145718     -79.8907    1076.7413    10067.379    9.5912771   0.14652279 
   60600   -84.107591    3.4562062   -80.651384    862.52822   -1121.2916    9.4324646   0.13785981 
   60700   -84.357151    3.8658816    -80.49127    964.76651   -20958.365    9.2669626   0.21900349 
   60800   -82.496946    4.8478104   -77.649136    1209.8159   -5818.5759    9.1107705   0.22351932 
   60900   -85.359034    5.7043258   -79.654709    1423.5672    23987.401    9.8774089   0.13381174 
   61000   -84.589071    4.6377361   -79.951335    1157.3899    39533.744    9.9746224   0.16493245 
   61100   -84.115114     5.126016   -78.989098    1279.2447    1463.0274    9.4375534   0.17732692 
   61200   -83.796438    7.2005635   -76.595875    1796.9672   -10194.526    9.2170655    0.1930839 
   61300   -85.235626    5.5326341   -79.702992      1380.72    20006.128    9.8279353   0.12682423 
   61400   -85.269992    4.9317198   -80.338272    1230.7563    12296.049    9.7563864   0.12198447 
   61500   -84.508393    4.1204456   -80.387948    1028.2953   -4136.1771    9.5008404   0.15576285 
   61600   -83.552146    5.4869316   -78.065215    1369.3145   -18326.983    9.1613774   0.16908137 
   61700     -83.8086    5.5971188   -78.211481    1396.8128    3821.0017    9.4379773   0.16300558 
   61800   -85.897419    5.7474785   -80.149941    1434.3364    10437.633    9.7858272  0.098650611 
   61900   -85.927943    5.8350588   -80.092884    1456.1929    17796.951    9.8589635   0.10277135 
   62000   -83.427535    4.9162985   -78.511236    1226.9078    7331.2816    9.4659617   0.26781814 
   62100   -82.564653    4.2484338    -78.31622    1060.2359   -11742.276    9.0722449   0.23393882 
   62200   -84.695713    4.3032249   -80.392488    1073.9096   -12100.954    9.3949871   0.16120569 
   62300   -85.806285    4.9182522   -80.888033    1227.3953   -6159.7275    9.6348661    0.1384064 
   62400   -85.060415    6.4877121   -78.572703    1619.0685   -7652.0964    9.4485729   0.13911405 
   62500   -83.227487    4.7366407   -78.490847    1182.0725    5766.0726    9.4268146   0.24585128 
   62600   -85.661642    4.8154436   -80.846198    1201.7385    2727.0837    9.7117442   0.12043177 
   62700   -85.424634    4.7516787   -80.672955    1185.8254   -7812.8864    9.5732648   0.15566146 
   62800   -83.278028    4.8875196   -78.390508    1219.7257     -8339.96    9.1756672   0.18279849 
   62900   -85.305885    4.7901043    -80.51578    1195.4148   -7456.9434    9.5394772   0.14263311 
   63000   -86.162556     5.088214   -81.074342    1269.8109    15153.258    9.9105581   0.11904473 
   63100   -84.724985    6.2197005   -78.505284    1552.1838    14259.054     9.716345   0.13532189 
   63200   -84.452438    5.1096697   -79.342769    1275.1653    12144.534    9.6549129   0.16946322 
   63300    -85.46627    4.0356104    -81.43066    1007.1239   -19826.151    9.4689447   0.12011172 
   63400     -84.9023    4.4061083   -80.496192    1099.5851   -6556.4219     9.487522   0.12229919 
   63500   -83.364956    4.5802418   -78.784714    1143.0417    8013.6332    9.4542733   0.23145091 
   63600   -85.358651    4.8752488   -80.483402    1216.6634   -6092.3355    9.5541404   0.12852095 
   63700   -85.636433    4.1766858   -81.459747    1042.3306    16636.969    9.8786352   0.13779165 
   63800   -84.820711     5.359231    -79.46148    1337.4457     18065.77    9.7672979   0.14146006 
   63900   -84.802474    4.8864858   -79.915988    1219.4677    -2159.611    9.5325239   0.13917705 
   64000   -85.882564    3.8151053   -82.067459    952.09481   -22290.445    9.4545953   0.11298818 
   64100   -84.967317    4.7404996   -80.226818    1183.0355   -10713.945    9.4193343   0.11819315 
   64200   -83.945271    4.6556191   -79.289652    1161.8528    26319.535    9.7376164   0.17797661 
   64300   -85.531016    4.3424022   -81.188614    1083.6866    2107.7713    9.6527162   0.11097868 
   64400   -85.559086    4.0031869   -81.555899    999.03231   -12804.741    9.5359274   0.14946666 
   64500    -84.15423    4.5904427   -79.563788    1145.5874   -7714.2646    9.3952905   0.16939711 
   64600   -85.377788    5.0722163   -80.305571    1265.8185    16176.375    9.7928527   0.13311581 
   64700    -87.56626    5.9060583   -81.660202    1473.9115    522.69072    9.9072057  0.072869687 
   64800   -84.158695    5.2473997   -78.911295    1309.5371   -33650.166    9.0814145   0.17711213 
   64900   -84.317133    4.7449982   -79.572135    1184.1582   -30993.477    9.0590487   0.17457319 
   65000   -84.971033    4.9944681   -79.976565    1246.4157    6042.9796    9.6196387    0.1640223 
   65100   -86.692537    4.2490061   -82.443531    1060.3788   -4768.7814    9.7834917   0.09164439 
   65200   -85.475263    4.4346332   -81.040629    1106.7037   -6570.1022    9.5875667   0.11888276 
   65300   -84.722347    4.8670647   -79.855282     1214.621   -7756.6708    9.4373391   0.16610721 
   65400   -85.535206    4.8388666    -80.69634    1207.5839   -942.54882    9.6212937    0.1190823 
   65500   -86.087595    3.4304077   -82.657188    856.08997    5776.2812    9.8260374  0.089955304 
   65600   -84.689809     4.431354   -80.258455    1105.8854    412.00169     9.550583   0.17113939 
   65700   -84.959964    5.2113587   -79.748605    1300.5427   -6932.1714    9.4390257   0.16104798 
   65800    -85.25233    4.5255238   -80.726806    1129.3863    4736.2509    9.6462708   0.14396033 
   65900   -85.932592    3.5399155   -82.392676    883.41865    9603.6744    9.8290334   0.10692814 
   66000   -84.878974    5.0259078   -79.853066    1254.2618   -11706.712    9.4182566   0.12496957 
   66100   -85.284755    5.1698025   -80.114952     1290.172   -1439.8903    9.5363907   0.10378952 
   66200   -85.732162    4.4992738   -81.232888    1122.8354   -1135.8343     9.660501   0.11870781 
   66300   -85.944154    3.4361228   -82.508031    857.51622    11174.021    9.8789733  0.091016048 
   66400   -84.824205    5.1166026   -79.707602    1276.8955    15230.421    9.6767446    0.1237972 
   66500   -85.015881    5.1528357   -79.863045    1285.9378    8993.2414    9.6559559   0.15163571 
   66600   -85.345644    4.9641058   -80.381538    1238.8385   -20318.477    9.4194908    0.1423063 
   66700   -85.895268    4.2124617   -81.682806    1051.2588   -5581.7319    9.6318127   0.12983798 
   66800     -87.3136    4.2693966   -83.044204    1065.4674    6042.5894    9.9487247  0.063285832 
   66900   -85.216212    4.4757725   -80.740439    1116.9704      9292.91    9.7260372   0.13243621 
   67000   -84.170753    4.0729208   -80.097832    1016.4351     4050.074    9.5409717   0.17106983 
   67100    -84.04943    3.8838015   -80.165628    969.23858   -4252.4224    9.4080411   0.17497475 
   67200   -86.975358    4.3033086   -82.672049    1073.9305   -11952.921    9.7416377  0.080814945 
   67300   -86.814218     6.170539   -80.643679    1539.9151    19457.483    10.015041  0.075886407 
   67400   -86.178396    6.3749223   -79.803474    1590.9208    11728.199    9.8433695  0.090060894 
   67500   -85.621791    4.9657668   -80.656024     1239.253   -8846.8812     9.520894   0.14016605 
   67600   -85.947517    3.5657275    -82.38179    889.86026   -25819.957    9.4801462   0.11332269 
   67700   -85.460596    4.6691498   -80.791446    1165.2295    3596.7484    9.6508363   0.12616999 
   67800   -84.782545    4.8959621   -79.886583    1221.8326    14664.198    9.7370445   0.13886847 
   67900   -85.498556    5.8807341   -79.617822    1467.5916    31791.996     9.950904  0.097934159 
   68000   -86.667268    5.9587758   -80.708492    1487.0676   -26171.658     9.491257  0.097576682 
   68100   -85.937934     3.420604    -82.51733    853.64335    8647.5049    9.8332299   0.10038556 
   68200    -84.91575    4.9382846   -79.977465    1232.3946   -3473.7878    9.5051692   0.12689492 
   68300   -84.727924    4.6627848   -80.065139    1163.6411    1662.0937    9.5136761   0.12304863 
   68400   -86.309796    5.1635947   -81.146202    1288.6228    9526.3555    9.8468747  0.092102145 
   68500     -87.5382     5.055348   -82.482852    1261.6088     23276.57    10.167564  0.072036283 
   68600   -85.939866    5.7390778   -80.200789    1432.2399   -18712.597    9.4818634   0.13005023 
   68700    -84.58586    4.4959267   -80.089933    1122.0001   -34933.976    9.1598546   0.13910297 
   68800   -84.347364    4.1932503   -80.154114    1046.4644    -6170.832     9.426856   0.16778639 
   68900   -83.988182    4.8761055   -79.112076    1216.8772    7279.7223    9.5331206   0.15221647 
   69000   -82.974483    7.0326078   -75.941876    1755.0523   -12639.868    9.0736647   0.26448691 
   69100   -85.016023    5.9444915   -79.071531    1483.5028    -4742.318    9.5269121   0.16428896 
   69200   -84.760784    4.7753794   -79.985405    1191.7401     6931.832    9.6730178   0.15490249 
   69300   -86.371292    5.7911136   -80.580178     1445.226   -10822.566    9.6345935  0.096460447 
   69400   -86.684015    4.1718416   -82.512173    1041.1217   -4644.0918    9.7433284   0.09274668 
   69500   -85.704146    4.3563435   -81.347803    1087.1658   -9241.7399    9.5411248   0.11797748 
   69600   -85.230377    5.1871265    -80.04325    1294.4954   -19294.346    9.3823415   0.12256389 
   69700    -84.77156    4.3040804    -80.46748    1074.1231    5532.7604    9.6113083   0.16056665 
   69800   -86.286275    6.1152419   -80.171033    1526.1152    461.67023    9.7256116   0.10550714 
   69900   -83.679963    6.5976079   -77.082355    1646.4941    24740.873    9.6044471   0.21826754 
   70000   -84.734135    5.3965314   -79.337603    1346.7543    5870.0274    9.6210787   0.12436409 
   70100   -85.314119    4.4258602   -80.888258    1104.5143   -11300.477    9.5029435   0.13532988 
   70200    -84.85965    5.0415374   -79.818113    1258.1623   -6040.9034    9.5042342   0.15626197 
   70300   -84.387226    6.5359491   -77.851277    1631.1065    20556.992    9.6714508    0.1563796 
   70400   -86.156331    5.5467159   -80.609616    1384.2342    36413.236    10.132218  0.089130028 
   70500   -84.729122    4.0246077   -80.704514    1004.3781   -8800.3152    9.4518937    0.1635502 
   70600   -83.994706    5.1713685   -78.823338    1290.5628   -28655.688    9.1266328   0.19220526 
   70700   -86.118617    5.2682566    -80.85036    1314.7422   -17227.297     9.530629   0.11086958 
   70800   -86.085835    4.6581343     -81.4277    1162.4805    12267.693    9.8417441   0.09284177 
   70900   -85.424298    6.4440491   -78.980249    1608.1721    7100.3373    9.7029445   0.11165914 
   71000   -85.111327    5.1534111   -79.957916    1286.0814    7775.4818    9.6696321   0.11919836 
   71100   -86.013045    4.4358858   -81.577159    1107.0163   -18267.999    9.5132472     0.106653 
   71200   -83.448661    4.1281523   -79.320508    1030.2186   -10109.768    9.2063467   0.22225664 
   71300   -84.708076    5.8101806   -78.897896    1449.9843    1972.3086    9.5228415   0.13129808 
   71400   -85.448474    4.8157048    -80.63277    1201.8037    6776.8847    9.7162145   0.13975148 
   71500   -85.897164    5.9039846   -79.993179     1473.394    2322.7091    9.6858929   0.12791531 
   71600   -83.672816    5.8713428   -77.801473    1465.2479   -8791.3939    9.2967274   0.23041417 
   71700   -84.854816    4.5968272   -80.257989    1147.1807   -8164.6901    9.4362533   0.14454529 
   71800   -85.546985    4.6217311   -80.925254    1153.3957   -10798.675    9.5517805   0.11807887 
   71900   -84.832478    5.6575208   -79.174958    1411.8866   -1912.5969    9.4689459   0.11932155 
   72000   -83.295536     5.439085   -77.856451    1357.3739    17722.456    9.5517487   0.19172389 
   72100   -85.286227    4.8241333   -80.462094    1203.9071     20632.25    9.8171417   0.12468468 
   72200   -85.436942    5.1026321    -80.33431     1273.409   -28687.239    9.3440951   0.13614125 
   72300   -83.478547    5.0364644   -78.442082    1256.8963   -10864.388    9.2258594   0.17921506 
   72400     -82.9364    4.7179076   -78.218492    1177.3975   -10385.942     9.159955   0.23780944 
   72500   -85.633355    5.2196364   -80.413719    1302.6085   -7074.4846    9.5429819   0.11904297 
   72600   -85.856125    5.2507904   -80.605335    1310.3833   -8132.2482    9.6203841   0.11805833 
   72700   -84.955405    6.8661095   -78.089295    1713.5011    14620.621     9.716254   0.13017477 
   72800    -85.36085    5.7375524   -79.623297    1431.8593    19175.226    9.8146074   0.11522409 
   72900   -85.320076    4.2960323   -81.024044    1072.1146     -14567.5    9.4781285   0.12635981 
   73000   -83.511449    4.1134054   -79.398044    1026.5384   -7138.1549    9.2305296   0.21498531 
   73100   -82.999935    4.6548318   -78.345103    1161.6563   -1215.4846    9.2351146   0.26661547 
   73200   -84.954234    4.1513033    -80.80293    1035.9961      22511.3     9.842101   0.11225993 
   73300   -85.691649    4.4951035   -81.196545    1121.7946    20999.542    9.9384441   0.11382578 
   73400    -84.14768    5.1704044   -78.977275    1290.3222   -5771.7278    9.3819596   0.24094445 
   73500   -84.424751     5.302704   -79.122047    1323.3388   -22380.298    9.2310647   0.18359186 
   73600   -85.272632    4.1091424    -81.16349    1025.4745   -34310.448    9.2747361   0.16795997 
   73700   -84.464123    4.4722509   -79.991872    1116.0916     4858.503    9.5293226    0.1848326 
   73800   -83.567891    5.0878779   -78.480013     1269.727    10070.244    9.4405486   0.16159359 
   73900   -85.588851    4.8102795   -80.778571    1200.4497    4445.4785    9.6845212   0.10923699 
   74000   -86.003272    5.3597694   -80.643502      1337.58   -7041.9858    9.6509262   0.11867448 
   74100   -83.234112    4.8058367   -78.428276     1199.341   -6607.5122    9.2410666   0.23283785 
   74200   -83.533719    3.5217293   -80.011989    878.88011   -5575.4988    9.3182959   0.16927918 
   74300   -85.027465    4.0888027   -80.938662    1020.3985   -545.88791    9.5883298   0.13371511 
   74400   -85.356735    5.9270097   -79.429725    1479.1401    10774.752    9.7307673   0.14640934 
   74500   -84.856224    6.6101266   -78.246097    1649.6182    1425.7994    9.5360664   0.15163427 
   74600   -86.067278    5.1652132   -80.902064    1289.0267    9101.5422    9.8516089   0.10895056 
   74700   -85.487975    4.8560128   -80.631962    1211.8629    5632.3729    9.6837786   0.10645757 
   74800   -83.593408    5.2715969   -78.321811    1315.5758   -6961.6425    9.3023104   0.18693824 
   74900   -84.850797    4.2317436   -80.619054    1056.0708    18906.334    9.7491381   0.12170345 
   75000   -85.559808    4.6410273    -80.91878    1158.2113   -11970.011    9.5624067   0.13594194 
   75100   -84.728472     5.518359   -79.210113    1377.1575   -19787.274    9.2994469   0.17270629 
   75200   -83.431897    5.6378292   -77.794068    1406.9724    25370.349    9.5919155    0.1799341 
   75300   -85.239343    4.9061709   -80.333172    1224.3803    46989.407    10.144853  0.087416573 
   75400   -86.273788    5.6396096   -80.634178    1407.4167    3962.8078    9.7729863   0.11853725 
   75500   -84.102397    5.0740431   -79.028354    1266.2744    -12116.21    9.3054384    0.1960445 
   75600   -85.096617    4.2675784   -80.829039    1065.0137   -9125.2102    9.4942366    0.1342547 
   75700   -87.123052    5.4803455   -81.642706    1367.6709    -2928.461    9.8183679  0.073810219 
   75800   -86.089773    6.7007826    -79.38899    1672.2423   -18912.318    9.4636057   0.12366183 
   75900   -84.392234    5.8531011   -78.539133    1460.6955    21854.378    9.7224086   0.12917553 
   76000    -85.92263      5.11874    -80.80389    1277.4289    38801.846    10.150547  0.096861487 
   76100   -85.802896    5.1211193   -80.681777    1278.0227   -4615.3726    9.6553587   0.11873609 
   76200   -83.767718    5.0414938   -78.726224    1258.1514   -2875.1891    9.3528001   0.21270524 
   76300   -84.818251    4.3854214    -80.43283    1094.4225   -2772.2454    9.5404345   0.13515807 
   76400   -85.451642    4.0416915   -81.409951    1008.6415     6018.741    9.7234032   0.14255748 
   76500   -84.770365    5.3761911   -79.394174    1341.6782    -1088.114    9.5012471   0.12368636 
   76600   -84.423687    4.3852303   -80.038456    1094.3748    29713.729    9.8130212   0.17419588 
   76700   -86.280357    4.2232356   -82.057122    1053.9475   -283.47813    9.7824415  0.095709792 
   76800   -85.042951    5.1475396   -79.895411    1284.6161   -25437.585    9.3006608   0.14542967 
   76900   -84.029113    4.8958466   -79.133267    1221.8038    12573.008     9.599166   0.15155042 
   77000   -85.918382    5.0987213    -80.81966     1272.433      46676.5    10.244075  0.083762896 
   77100   -85.461734    4.7218596   -80.739874    1178.3837   -52.528743    9.6059322   0.13306825 
   77200   -83.684676    4.8457824   -78.838893    1209.3098   -32854.735    8.9812673   0.19742706 
   77300   -84.986107    4.6104725   -80.375634     1150.586   -18097.371    9.3661686   0.14173606 
   77400   -86.016274    4.5015496   -81.514724    1123.4033    20247.903    9.9416361   0.10266376 
   77500   -84.224593     5.400957   -78.823636    1347.8588    3746.5365    9.5008491   0.17321665 
   77600   -84.135258    4.4871156   -79.648142    1119.8012    4211.9143    9.4738329   0.15427823 
   77700   -85.970832    4.4251852   -81.545647    1104.3459    4746.6708    9.7818296   0.10464196 
   77800   -85.741205    5.3924693   -80.348736    1345.7406   -16299.787    9.5184514   0.11414909 
   77900   -84.205022    5.4469563   -78.758065    1359.3383   -13130.609     9.303175   0.13943121 
   78000   -85.738186    4.9534329   -80.784753     1236.175    11960.321     9.778485   0.11172853 
[...]
  481400   -84.612149    4.8435327   -79.768616    1208.7484   -7905.2013    9.3963399   0.16924707 
  481500   -84.166987      3.33772   -80.829267    832.95889   -7154.2976    9.4227172   0.16776349 
  481600   -86.362352    3.6159495   -82.746402    902.39363     1850.858    9.8185366  0.077343604 
  481700   -86.329369    5.9999785    -80.32939    1497.3501    1013.8273    9.7266379   0.11151249 
  481800    -84.84954    5.0492604   -79.800279    1260.0896    6305.9018    9.6401106   0.14077842 
  481900   -85.473498    4.3285035   -81.144995    1080.2181   -16195.012    9.4567351   0.14318298 
  482000   -85.891767    3.7133933   -82.178374    926.71165   -11002.507    9.5725151   0.11348892 
  482100   -85.501052    5.7416643   -79.759388    1432.8854   -4068.5591    9.5826415   0.12370263 
  482200   -85.153194    5.2315399   -79.921654    1305.5792    7501.5967    9.6689194   0.12127505 
  482300   -86.524758     4.711486   -81.813272    1175.7949    13118.368    9.9201528  0.086509479 
  482400   -87.032789    5.2911757   -81.741613    1320.4618    75.847094    9.8277326  0.084664761 
  482500   -85.569239    5.8411909   -79.728048    1457.7232   -4706.4088    9.5898304   0.12106777 
  482600   -85.118066    5.1433076   -79.974758      1283.56    3499.0544    9.5655463   0.12026235 
  482700   -85.947138    4.5509443   -81.396194    1135.7302    -3033.753    9.6678165    0.1182915 
  482800   -86.862551    4.2614428   -82.601108    1063.4825   -8264.1454    9.7472234  0.085560302 
  482900   -85.871976    5.6353687   -80.236607    1406.3584   -9823.3894    9.5659606   0.12354943 
  483000   -85.396443    5.7859877   -79.610456    1443.9467    1207.6494    9.6467116   0.13707344 
  483100   -86.329778    5.0178199   -81.311959    1252.2434   -1536.5708    9.7331657   0.10471991 
  483200   -85.793218     3.979951   -81.813267    993.23358    12744.743    9.8588275   0.11688646 
  483300   -84.650001    4.8850532   -79.764948    1219.1102   -10898.187    9.3768976   0.13543711 
  483400   -85.007269    4.6729431   -80.334326    1166.1762    -7021.549     9.483536   0.14621768 
  483500   -87.394696    5.2766559    -82.11804    1316.8383    5217.4124      9.95642  0.070222806 
  483600   -86.319924    5.9615002   -80.358424    1487.7475    20047.819     9.959753  0.090023255 
  483700   -84.362849    4.7094589    -79.65339     1175.289    3559.3717    9.5295943   0.16203695 
  483800   -85.310219    5.3139555   -79.996263    1326.1467   -6444.2724    9.5435417   0.14237091 
  483900   -86.009285    3.4988011   -82.510484    873.15818   -7495.9935    9.6482692    0.1098808 
  484000   -85.478597    4.5564324   -80.922164    1137.0998   -1453.6267    9.6410495   0.11314838 
  484100   -84.944387    5.2646316   -79.679756    1313.8375    -2740.892    9.5714404   0.13265559 
  484200   -86.825776    6.4881106   -80.337665     1619.168    19184.287    9.9858129  0.072647377 
  484300   -86.657968    4.4959408   -82.162027    1122.0036    3318.8274    9.8634256  0.078986573 
  484400   -83.659375    4.0969783   -79.562397    1022.4388   -12474.802     9.288884   0.16317265 
  484500   -84.151573    4.7126471   -79.438926    1176.0847    20285.549    9.6810061   0.14805448 
  484600   -86.050141    4.5510664   -81.499074    1135.7607    21142.939    9.9504248  0.091768657 
  484700   -85.686141     5.088281    -80.59786    1269.8276   -7581.2867    9.5880547   0.11099147 
  484800   -83.277187    3.7660935   -79.511094    939.86347   -10832.741    9.2278751   0.23109513 
  484900   -84.714991    3.7162482   -80.998742    927.42412   -12207.373    9.4274135   0.14901494 
  485000   -86.030598    4.2712945   -81.759303     1065.941   -869.66403     9.684242    0.1118153 
  485100   -84.490595    5.2966548   -79.193941    1321.8292    5703.7452    9.5508042   0.21167443 
  485200   -84.717128    4.3851559   -80.331972    1094.3562    -4490.175    9.5095858   0.17492477 
  485300    -86.21841    4.7427245   -81.475686    1183.5907   -16782.032    9.5762652   0.10193694 
  485400   -84.169063    5.5800983   -78.588965    1392.5651   -11929.174    9.3310448   0.21461112 
  485500   -84.166803    4.9094174   -79.257386    1225.1905     11837.56     9.615311   0.17378512 
  485600   -85.610119    4.5855109   -81.024608    1144.3566   -12008.862    9.5417612  0.096050376 
  485700   -85.489504    4.9936507   -80.495853    1246.2117    7361.1111     9.703509   0.13781675 
  485800   -84.117462     6.144288   -77.973174    1533.3639    14841.586    9.5858341   0.14752462 
  485900   -85.637034    5.8126669   -79.824367    1450.6048    47283.301    10.144716    0.1097017 
  486000   -84.375556    3.5242721   -80.851284    879.51471    2825.6224    9.5563405   0.14742934 
  486100   -83.096282    4.6039403   -78.492341    1148.9559   -19959.431    9.1014112   0.23449406 
  486200   -84.027844    5.1740107   -78.853834    1291.2222   -14108.974    9.2365386   0.22385929 
  486300    -86.27398     5.376234   -80.897746    1341.6889   -3991.7471    9.6630446  0.090597505 
  486400   -85.195762    5.3413447   -79.854418     1332.982    23641.667    9.8414196   0.11994668 
  486500   -84.364193    5.8067625    -78.55743    1449.1313    1027.3564    9.4538697   0.16558268 
  486600   -85.073471    3.7820649   -81.291406    943.84927   -19525.504    9.4114482   0.14494042 
  486700   -85.382463    4.5638115   -80.818652    1138.9414   -12130.275    9.5100628   0.12249223 
  486800   -84.316693    5.4929233   -78.823769    1370.8098    14714.639    9.6174343   0.16553498 
  486900   -84.949975      4.85323   -80.096745    1211.1684    12801.007    9.6874834   0.10140836 
  487000   -85.786897    4.3261475   -81.460749    1079.6301    15055.549    9.8428926   0.12029687 
  487100   -84.481929    4.6837179   -79.798212    1168.8651   -5745.0841    9.4380753   0.17712953 
  487200   -84.163164     5.682186   -78.480978    1418.0421   -14544.104    9.2970921    0.1836302 
  487300   -85.474714    4.4772959   -80.997418    1117.3506    33777.192    10.000192   0.10755109 
  487400   -85.717116    4.8107416   -80.906375    1200.5651     6973.023    9.7548808   0.12799427 
  487500   -84.840225    5.4422854    -79.39794    1358.1727   -3681.8812    9.5003295   0.13088871 
  487600   -85.629928    5.1500488   -80.479879    1285.2423    3964.7932     9.677013    0.1321746 
  487700   -86.005432    3.8469826   -82.158449    960.05008    13851.289    9.9033696  0.094944465 
  487800   -84.960541     4.974297   -79.986244    1241.3818    20423.779    9.7911802   0.11546198 
  487900   -85.080389    4.9024257   -80.177963    1223.4457   -4335.0892    9.5325906   0.13180604 
  488000   -85.907331    4.3466528   -81.560678    1084.7474   -17477.716    9.5086503   0.10096073 
  488100   -86.014068    3.8099894   -82.204079    950.81809   -7766.0276    9.6569501   0.12637871 
  488200   -84.712165    5.2194256   -79.492739    1302.5559    8998.8805    9.6097983   0.16748622 
  488300   -86.047846    6.1025639   -79.945282    1522.9513    8282.4219    9.7802416   0.12024278 
  488400   -86.182097    4.8708759   -81.311221    1215.5721   -10342.161     9.590592   0.11181611 
  488500   -86.302073    4.2205243   -82.081549    1053.2709   -33479.977     9.425687   0.10281367 
  488600   -84.861868    5.2391687     -79.6227     1307.483    7025.8416     9.594524    0.1707416 
  488700   -85.468549    5.3958165   -80.072732    1346.5759    2673.3808    9.6936106   0.11992739 
  488800   -85.751893    5.0193057   -80.732588    1252.6142    1784.9928    9.6760341   0.10956592 
  488900   -86.070211    5.9853647   -80.084847    1493.7031   -7751.9375    9.6065239   0.13049077 
  489000    -83.41945    5.6461813   -77.773268    1409.0568    38462.541    9.8243817   0.14938046 
  489100   -84.587415    5.4304425   -79.156972    1355.2172    9133.1883    9.6051146   0.14219675 
  489200   -85.251174    4.8552678   -80.395906     1211.677    2387.5713    9.6429983   0.15574754 
  489300   -85.392654    4.6766135    -80.71604    1167.0922   -5786.8502    9.5443114   0.12672164 
  489400   -83.339171    5.7458438   -77.593327    1433.9284   -28558.676    8.9924079   0.22989175 
  489500   -84.366856    4.8935846   -79.473271    1221.2393    5798.8999    9.5383633   0.15203128 
  489600   -85.660368    4.9859873   -80.674381    1244.2993    29321.345    10.009435   0.11816375 
  489700   -84.822375    5.2656219   -79.556754    1314.0846    4787.0838    9.5921122   0.15426247 
  489800   -83.698613    5.5761769   -78.122436    1391.5865    4209.7098    9.4297434   0.22412117 
  489900   -84.797627    3.9709383   -80.826689    990.98437   -5641.4456    9.4480647   0.16432895 
  490000   -84.450297    3.7395428   -80.710754    933.23748   -21935.687     9.283746   0.17490422 
  490100   -84.156258     5.707361   -78.448897    1424.3247   -5595.1773    9.3417639   0.17679876 
  490200   -85.033256    4.5760971   -80.457158    1142.0074     17213.65     9.779872   0.13310712 
  490300   -85.498456    4.4842018   -81.014254     1119.074    12466.604    9.7932023   0.10893792 
  490400   -84.452941    5.6792343   -78.773707    1417.3054    -6995.922    9.4129297   0.19417637 
  490500   -84.934178    5.4121583    -79.52202    1350.6541   -8785.3871    9.4273053   0.15042588 
  490600   -85.564685    4.2360788   -81.328606    1057.1526   -2243.8226    9.6119041    0.1159995 
  490700   -84.158321    4.7477361   -79.410585    1184.8414    21279.803    9.6463117   0.11958534 
  490800   -84.394083    5.1732414   -79.220842    1291.0302    4914.6704    9.5586689   0.13984152 
  490900   -85.379668    4.0946219   -81.285046    1021.8507   -2634.0039    9.6414563    0.1094814 
  491000   -85.262105    5.5100539   -79.752051    1375.0849   -4036.2452     9.543466    0.1316574 
  491100   -83.904944    5.8764526   -78.028491    1466.5231    50771.688    9.9804361   0.14747155 
  491200   -85.865061    4.9109672   -80.954094    1225.5773   -6753.5216    9.6172839   0.10466962 
  491300   -84.700649    4.0349831   -80.665666    1006.9673   -3277.6871    9.4999024   0.16426815 
  491400   -83.571024    5.1960323   -78.374992    1296.7179   -20472.619    9.1651461    0.1932101 
  491500   -84.994152    5.0567876   -79.937364    1261.9681    17278.924    9.7835105   0.11701646 
  491600   -85.946429    4.9469318   -80.999497    1234.5526    24226.767    9.9627823   0.11481411 
  491700   -84.368247    4.8995235   -79.468723    1222.7214    1958.2345     9.473319   0.13634367 
  491800   -83.397172     4.314787   -79.082385     1076.795   -16564.738    9.2269705   0.23622412 
  491900   -86.451374    4.7986212   -81.652753    1197.5403   -23173.553    9.5370797  0.099079555 
  492000   -86.049143    5.9888228    -80.06032    1494.5661     8704.359    9.7947779   0.11421931 
  492100   -84.563261    5.0082971   -79.554964    1249.8669    8841.5982    9.5803899   0.14323935 
  492200   -86.055769    4.2110489    -81.84472    1050.9062   -10259.507    9.6430227   0.10243859 
  492300   -84.759072    3.4069698   -81.352102    850.24083    10124.321    9.7062096   0.17246067 
  492400   -84.590854    4.7582993   -79.832554    1187.4776   -1241.2865    9.5041929   0.16126781 
  492500   -85.262614    5.5518477   -79.710766    1385.5149    9916.6389    9.7227712   0.14525104 
  492600   -86.692207    4.6044362   -82.087771    1149.0796   -8524.1176     9.719794  0.082475392 
  492700   -86.200352    5.1705052   -81.029847    1290.3474    -14810.12    9.5558603   0.11884202 
  492800   -84.419944    4.7579219   -79.662022    1187.3834    3851.9374    9.5288537   0.17726004 
  492900   -84.652013    4.2057684   -80.446244    1049.5884   -8311.4066    9.4469887   0.15126159 
  493000    -86.05803    3.8552652   -82.202765    962.11707    8084.4968    9.8283521   0.10394841 
  493100   -85.007545    5.1351217   -79.872424    1281.5171    68.928014    9.5601423   0.12128818 
  493200   -85.877039    6.2185473   -79.658492     1551.896   -23398.505    9.4350794   0.12430187 
  493300   -85.006306     4.800512   -80.205794    1198.0122    34892.688    9.9464156   0.13238365 
  493400   -86.237793    5.4516039   -80.786189    1360.4982    2990.6786    9.7490063  0.091018722 
  493500   -86.505686    3.1844593   -83.321227    794.71127    14258.457     9.965841  0.096888883 
  493600   -85.196018    3.7128463   -81.483172    926.57514   -299.13908    9.6117893   0.15548974 
  493700   -84.470686    4.1417694   -80.328917    1033.6168   -20961.285    9.2842531   0.18262468 
  493800   -84.249443    4.6220348   -79.627408    1153.4715   -7736.6595    9.4039082    0.1742336 
  493900   -85.539062     4.688105   -80.850957      1169.96    17152.398    9.8193335   0.10797724 
  494000   -85.868274    3.7105431   -82.157731    926.00036     27139.99    10.011879  0.079884147 
  494100   -85.279039    4.7763543   -80.502685    1191.9834    3958.0634    9.6517506   0.14130255 
  494200    -84.43966    4.4987598   -79.940901    1122.7071   -6249.5557    9.4561899   0.18938883 
  494300   -84.420976     6.264298   -78.156678    1563.3135   -9523.6272    9.3313203   0.15679331 
  494400   -83.790056    5.3207046   -78.469351     1327.831   -2653.6926    9.3103111   0.19562692 
  494500   -85.506779    4.8499258   -80.656853    1210.3438   -20786.815    9.4302503    0.1329909 
  494600   -86.214055    6.1063896   -80.107666     1523.906    1014.7407    9.7310727   0.10568211 
  494700   -83.994922    5.3399668   -78.654955    1332.6381    32069.189    9.8431986   0.13274587 
  494800   -85.260567    5.1129403   -80.147627    1275.9815    201.41086    9.5904845   0.13552037 
  494900   -85.436016    4.1364204   -81.299596     1032.282   -5388.1773    9.5724579   0.14103495 
  495000   -85.262001     5.028156   -80.233845    1254.8228   -19187.484    9.3904758   0.14247006 
  495100   -83.745686    4.0945172   -79.651169    1021.8246    17325.507    9.5679783   0.17255206 
  495200   -84.450915    7.4316001   -77.019315    1854.6245   -4651.5175    9.3694823   0.17514187 
  495300   -83.097598    5.0624776    -78.03512    1263.3881    18512.465    9.5088441    0.2512522 
  495400   -84.386695    4.3864736   -80.000221    1094.6851   -23706.162    9.2347183   0.12914915 
  495500    -84.57734    4.3539558   -80.223384    1086.5699    6403.0371    9.5723498   0.17872865 
  495600   -84.267706    4.3931692   -79.874537     1096.356    9790.6152    9.5990664   0.14444237 
  495700   -83.407386    6.6879616   -76.719425    1669.0427   -14163.849    9.1615372   0.19055988 
  495800   -85.092421    5.6605368   -79.431884    1412.6393   -13783.575    9.4337767   0.14844073 
  495900   -86.122244    5.6566945   -80.465549    1411.6804   -10225.266    9.6000844   0.12273719 
  496000   -85.046797    5.4623762   -79.584421    1363.1865    39581.638    10.008316   0.14665354 
  496100   -83.570556    6.4076081   -77.162948    1599.0779   -15408.646     9.192343   0.23912348 
  496200   -84.275253    4.9487432    -79.32651    1235.0046   -23141.794      9.22491   0.15695522 
  496300   -84.728722    4.1461515    -80.58257    1034.7105   -14431.925    9.4306895   0.17473064 
  496400   -84.328195    4.4644306   -79.863764    1114.1399    18377.091    9.6659731   0.16424786 
  496500   -83.063702    4.6527668   -78.410936     1161.141    18888.736    9.5085397   0.18512494 
  496600   -85.333296    4.0887164    -81.24458     1020.377    787.54582    9.6202508   0.15223023 
  496700   -85.346223    5.0759635   -80.270259    1266.7536   -20730.178    9.3797376   0.14413217 
  496800   -84.895907    6.2449585   -78.650949    1558.4872   -5636.1229    9.5046558   0.15265711 
  496900   -85.547043    4.9275113   -80.619532     1229.706    6589.7136    9.7269409    0.1155465 
  497000   -85.046845    3.8522564   -81.194589    961.36621     12886.21      9.73775    0.1429183 
  497100   -83.272129    4.4874144   -78.784715    1119.8758   -17100.961    9.1322232    0.2085016 
  497200   -83.641099    4.4353208   -79.205778    1106.8753    -31713.26    9.0257663   0.24491481 
  497300    -85.09845    4.2464346   -80.852016     1059.737    13162.119    9.6920065   0.14202918 
  497400   -85.353216     6.140241   -79.212975    1532.3539    9295.8877    9.6943306   0.12128024 
  497500   -84.076013    6.8791352   -77.196878    1716.7518    3368.4852    9.4333653    0.2142169 
  497600    -85.90647    5.1923486   -80.714122    1295.7986    625.35517    9.7007231  0.091251226 
  497700   -85.334453    4.7691941   -80.565259    1190.1965    -9983.511    9.5048212   0.13395144 
  497800    -85.86824    6.1530231   -79.715217    1535.5438   -19528.226    9.4390916    0.1137507 
  497900   -83.923022    6.0882391   -77.834783    1519.3764   -1959.4534    9.3764968   0.17362031 
  498000   -82.605313    7.2632621    -75.34205    1812.6142    23254.823     9.451363    0.2307322 
  498100   -85.090477    6.6903809   -78.400097    1669.6464    23677.096    9.8254028    0.1407926 
  498200    -84.74495    4.9580366   -79.786913    1237.3239    23520.657     9.762422   0.13624879 
  498300   -85.522809     4.905145   -80.617664    1224.1243    -835.1622    9.6056562   0.11404109 
  498400   -85.809074    4.9531507   -80.855924    1236.1046    -14430.92    9.5438917   0.10037698 
  498500    -83.09893    5.3603654   -77.738564    1337.7287    1982.6137    9.2677955   0.31972911 
  498600    -83.23163    3.9316329   -79.299997    981.17534   -25122.483    9.0593865   0.29472544 
  498700   -84.368227    4.0364657   -80.331761    1007.3373   -15332.769    9.2959288   0.13650742 
  498800   -86.091479    4.9432318   -81.148247    1233.6292   -1940.5568     9.687793   0.10338508 
  498900    -84.75226    6.4071265   -78.345134    1598.9577   -9990.4646    9.4038675   0.15562289 
  499000   -84.643309    5.5162786    -79.12703    1376.6383   -4792.9462    9.4469839   0.15491601 
  499100   -86.215378    5.7715025   -80.443876    1440.3318    2118.7117    9.7449121   0.10254826 
  499200   -86.417233    5.8065298   -80.610703    1449.0732    28100.055    10.063776  0.074935153 
  499300   -84.252864    6.5919486   -77.660915    1645.0817   -12809.757    9.2759342   0.14564293 
  499400   -85.307585    5.6594705   -79.648114    1412.3732   -18110.344    9.4237303    0.1327874 
  499500   -85.853299    5.3331996   -80.520099    1330.9493     16976.83    9.8838537  0.087757917 
  499600   -85.918551    5.8210207    -80.09753    1452.6895    43671.476    10.155014    0.0936848 
  499700   -83.639731    6.4181604   -77.221571    1601.7113   -11554.169    9.2200959   0.17184735 
  499800    -84.49805     5.007097   -79.490953    1249.5674   -2447.3056    9.4454075   0.17350575 
  499900   -85.865582    5.2514051   -80.614176    1310.5367    9221.7706    9.7856972   0.10164693 
  500000   -85.729105    4.8914072   -80.837698    1220.6959     8918.271    9.7946351  0.095796284 
Loop time of 45.3787 on 1 procs for 500000 steps with 32 atoms

Performance: 4759.946 ns/day, 0.005 hours/ns, 11018.394 timesteps/s
100.0% CPU use with 1 MPI tasks x no OpenMP threads

MPI task timing breakdown:
Section |  min time  |  avg time  |  max time  |%varavg| %total
---------------------------------------------------------------
Pair    | 26.489     | 26.489     | 26.489     |   0.0 | 58.37
Neigh   | 1.0209     | 1.0209     | 1.0209     |   0.0 |  2.25
Comm    | 1.5543     | 1.5543     | 1.5543     |   0.0 |  3.43
Output  | 0.094778   | 0.094778   | 0.094778   |   0.0 |  0.21
Modify  | 15.881     | 15.881     | 15.881     |   0.0 | 35.00
Other   |            | 0.3386     |            |       |  0.75

Nlocal:    32 ave 32 max 32 min
Histogram: 1 0 0 0 0 0 0 0 0 0
Nghost:    633 ave 633 max 633 min
Histogram: 1 0 0 0 0 0 0 0 0 0
Neighs:    1487 ave 1487 max 1487 min
Histogram: 1 0 0 0 0 0 0 0 0 0

Total # of neighbors = 1487
Ave neighs/atom = 46.4688
Neighbor list builds = 13996
Dangerous builds = 0
Total wall time: 0:00:45
