LAMMPS (3 Mar 2020)
Reading data file ...
  orthogonal box = (0 0 0) to (17.469 17.469 17.469)
  1 by 1 by 1 MPI processor grid
  reading atoms ...
  217 atoms
  read_data CPU = 0.000993892 secs
Reading potential file library.meam with DATE: 2012-06-29
Reading potential file LiSi.meam with DATE: 2020-11-07
1 atoms in group Li
216 atoms in group Si
Neighbor list info ...
  update every 1 steps, delay 10 steps, check yes
  max neighbors/atom: 2000, page size: 100000
  master list distance cutoff = 6
  ghost atom cutoff = 6
  binsize = 3, bins = 6 6 6
  2 neighbor lists, perpetual/occasional/extra = 2 0 0
  (1) pair meam/c, perpetual
      attributes: full, newton on
      pair build: full/bin/atomonly
      stencil: full/bin/3d
      bin: standard
  (2) pair meam/c, perpetual, half/full from (1)
      attributes: half, newton on
      pair build: halffull/newton
      stencil: none
      bin: none
Setting up Verlet run ...
  Unit style    : metal
  Current step  : 0
  Time step     : 0.003
Per MPI rank memory allocation (min/avg/max) = 8.895 | 8.895 | 8.895 Mbytes
Step Temp E_pair E_mol TotEng Press Volume 
       0         1400   -951.04357            0    -911.9553   -116399.41    5330.9442 
    3200    1474.8372   -958.96018            0   -917.78245    11656.437    4512.2332 
Loop time of 2.33389 on 1 procs for 3200 steps with 217 atoms

Performance: 355.389 ns/day, 0.068 hours/ns, 1371.099 timesteps/s
100.0% CPU use with 1 MPI tasks x no OpenMP threads

MPI task timing breakdown:
Section |  min time  |  avg time  |  max time  |%varavg| %total
---------------------------------------------------------------
Pair    | 2.2735     | 2.2735     | 2.2735     |   0.0 | 97.41
Neigh   | 0.012465   | 0.012465   | 0.012465   |   0.0 |  0.53
Comm    | 0.013779   | 0.013779   | 0.013779   |   0.0 |  0.59
Output  | 2.5918e-05 | 2.5918e-05 | 2.5918e-05 |   0.0 |  0.00
Modify  | 0.029257   | 0.029257   | 0.029257   |   0.0 |  1.25
Other   |            | 0.004893   |            |       |  0.21

Nlocal:    217 ave 217 max 217 min
Histogram: 1 0 0 0 0 0 0 0 0 0
Nghost:    957 ave 957 max 957 min
Histogram: 1 0 0 0 0 0 0 0 0 0
Neighs:    4261 ave 4261 max 4261 min
Histogram: 1 0 0 0 0 0 0 0 0 0
FullNghs:  8522 ave 8522 max 8522 min
Histogram: 1 0 0 0 0 0 0 0 0 0

Total # of neighbors = 8522
Ave neighs/atom = 39.2719
Neighbor list builds = 21
Dangerous builds = 0
Setting up Verlet run ...
  Unit style    : metal
  Current step  : 3200
  Time step     : 0.003
Per MPI rank memory allocation (min/avg/max) = 9.666 | 9.666 | 9.666 Mbytes
Step PotEng KinEng TotEng Temp Press Density c_msdli[4] c_msdsi[4] 
    3200   -958.96018    41.177738   -917.78245    1474.8372    11656.437    2.2351035            0 5.8191617e-32 
    3300   -957.90817    37.159865    -920.7483    1330.9316    7723.6087    2.2232864  0.017917489  0.075510828 
    3400   -953.12784    40.156478   -912.97136    1438.2594   -10626.277    2.1655844  0.047847464  0.084126968 
    3500   -956.19532    40.131076   -916.06425    1437.3496   -14023.126    2.1634422  0.048636883  0.095694344 
    3600   -957.24007    39.846922   -917.39315    1427.1722    3182.3985    2.2049963 0.0098038601    0.1009648 
    3700   -952.33919    43.435202   -908.90399    1555.6914     11461.71     2.216869   0.18423579   0.10109608 
    3800   -954.18635    40.381115   -913.80523    1446.3051    5790.3606    2.2098444  0.073128637   0.10556572 
    3900    -956.0668    38.755998    -917.3108    1388.0993   -6851.5972    2.1817741  0.063543684   0.10051767 
    4000   -950.32853     38.81318   -911.51535    1390.1473   -9496.2798    2.1636706  0.097070694   0.12283776 
    4100   -953.25058    41.939361   -911.31122    1502.1158   -619.47341    2.1911295   0.34831484  0.088704052 
    4200   -954.82684    38.799262   -916.02758    1389.6488    10412.395    2.2224332   0.21046021  0.083926111 
    4300   -953.89347    39.162192   -914.73128    1402.6477    6807.3531    2.2097782 0.0032432274  0.073780066 
    4400   -951.27836    42.358252    -908.9201     1517.119   -7788.7203    2.1665956   0.13249797  0.085260721 
    4500   -956.18659    39.183299   -917.00329    1403.4037   -8399.3574    2.1780018  0.083957085   0.08673505 
    4600   -957.99378    41.373991   -916.61979    1481.8663   -2451.2182    2.1961587  0.078543883  0.090553214 
    4700    -955.6357    42.074073   -913.56163    1506.9407    5860.2891     2.212109  0.028182006    0.1062498 
    4800   -951.44063    36.949791   -914.49084    1323.4075     5731.402    2.2032936  0.011979267   0.10506363 
    4900   -954.79114    34.119421   -920.67172    1222.0339   -1087.4366    2.1940164  0.087055023   0.10551973 
    5000   -955.95826    39.921813   -916.03645    1429.8546   -6333.2239     2.184869   0.05289567  0.098447441 
    5100   -955.59271    41.866202   -913.72651    1499.4955   -1103.1153    2.1950764  0.012596589  0.097681913 
    5200    -955.1699    35.001805    -920.1681    1253.6377    6443.8163    2.2157814  0.097342486  0.097688624 
    5300   -956.70829    38.240144   -918.46815    1369.6233    529.25138    2.2018944  0.024600019   0.09501975 
    5400   -954.39201    40.244196   -914.14782    1441.4011   -3132.3553    2.1873869   0.10650322  0.093893039 
    5500   -956.59035    40.100558   -916.48979    1436.2566   -6022.5055    2.1882854   0.16332973  0.088710631 
    5600    -957.0548    35.158197    -921.8966    1259.2391    2754.5117    2.2111297    0.0124979   0.10206033 
    5700   -954.52576    40.834084   -913.69168    1462.5288    1452.3523     2.200126  0.027402366    0.1088086 
    5800   -955.21756    40.353663    -914.8639    1445.3219   -566.49737    2.1981489 0.0047692855   0.11090069 
    5900   -958.18961      39.6193   -918.57031    1419.0197   -3765.9931    2.1962574  0.065446745   0.10952596 
    6000   -956.60305    36.038323   -920.56473     1290.762    203.33706    2.2019407  0.054706718   0.10143413 
    6100   -951.09656    38.596625   -912.49994    1382.3911   -1422.1461    2.1882104   0.20602562   0.12132662 
    6200   -957.50473    42.738096   -914.76663    1530.7236    -2078.327    2.1961341   0.42711426   0.11491191 
    6300   -957.31232    40.356723   -916.95559    1445.4315     335.1513    2.2065203   0.12388404   0.11331694 
    6400   -954.77437    36.905086   -917.86928    1321.8064    1988.4688    2.2062765  0.068698753   0.11114629 
    6500   -952.20475    42.872121   -909.33263    1535.5239   -6113.0215    2.1738113   0.01915301   0.10046084 
    6600   -952.05106     38.06375   -913.98731    1363.3055    -3605.041    2.1847107      0.12956   0.10778718 
    6700   -955.07778    38.829923   -916.24785     1390.747    3808.1476    2.2094959   0.10451275     0.102144 
    6800   -955.56189    39.557619   -916.00427    1416.8105    8646.7931    2.2182473  0.069186742   0.09734076 
    6900   -951.81261    43.219388   -908.59322    1547.9617    -3035.233    2.1788934   0.27430749   0.11681963 
    7000    -952.8416    37.402469   -915.43914    1339.6208   -5652.3287    2.1770691  0.057646836   0.10301787 
    7100   -954.15711    37.906882   -916.25023     1357.687   -1437.4773    2.1919612  0.081032685   0.10129838 
    7200   -951.66027    41.556197   -910.10407    1488.3923    7859.1791    2.2068684   0.11505769  0.095727566 
    7300   -952.90546    40.497108   -912.40835    1450.4595    5938.0458    2.2060371   0.08940257   0.09905359 
    7400   -956.42167     39.55004   -916.87163     1416.539   -5570.7336    2.1847032   0.09224153   0.10182532 
    7500    -951.4903    36.945715   -914.54459    1323.2615   -5902.4114    2.1757228   0.33119194   0.10601903 
    7600   -952.43684    43.311425   -909.12542    1551.2582    790.69872    2.1909228  0.068370623   0.10181875 
    7700   -955.79985    38.122837   -917.67701    1365.4218    12085.055    2.2286212   0.25970178  0.092034448 
    7800   -952.42533    36.197741   -916.22758    1296.4718    4415.2586    2.2038089   0.08060366   0.10777219 
    7900   -951.21415    37.444832   -913.76932    1341.1381   -6196.9546    2.1738585   0.10257695    0.1054389 
    8000   -952.97309    39.147661   -913.82543    1402.1272    -5813.834    2.1799253   0.11298582   0.11589519 
    8100   -957.65048     37.20826   -920.44222    1332.6649    6270.4956    2.2183788   0.11044119   0.10148702 
    8200   -955.85252    40.777434   -915.07509    1460.4998    6116.4686     2.212563   0.11023667  0.088307299 
    8300   -954.61233     40.60462   -914.00771    1454.3103   -506.06501    2.1966707   0.10682511  0.092383341 
    8400   -958.04775    37.097075   -920.95067    1328.6827   -4370.6502    2.1947923   0.10448154  0.096028331 
    8500   -956.19241    38.471684   -917.72072    1377.9162   -3388.8129    2.1928181   0.10584474  0.099655818 
    8600   -954.47841    40.676466   -913.80195    1456.8835    3884.3308     2.202124  0.029105375   0.10794966 
    8700   -953.76629    36.795829   -916.97047    1317.8931    7124.5341    2.2135507 0.0084444109   0.10036155 
    8800   -960.27983    38.605812   -921.67402    1382.7202   -953.51552    2.2090548  0.071391897  0.088559791 
    8900   -952.78588    39.316726   -913.46915    1408.1826   -6299.9245    2.1773556  0.022073623   0.10382234 
    9000   -953.47749    38.098232   -915.37926    1364.5405   -3086.8305    2.1872021  0.044109259  0.098741686 
    9100   -954.09915    35.619904   -918.47925    1275.7758    6163.3259     2.214667  0.066755478  0.099025312 
    9200   -952.19694    40.973683   -911.22326    1467.5287    10021.431    2.2158004   0.23258487   0.10081228 
    9300   -951.87428    39.452579    -912.4217    1413.0483    4509.7377    2.2008659   0.17515536  0.093498948 
    9400   -953.17459    36.496006   -916.67859    1307.1546   -6990.6303    2.1758373  0.078978665  0.090007069 
    9500   -952.61655    37.939778   -914.67678    1358.8652   -9148.1592     2.171822  0.074005498  0.097486761 
    9600   -952.24215    43.275349    -908.9668    1549.9661    1516.4989    2.1956304   0.12693085   0.10039275 
    9700   -955.70736     40.51075   -915.19661    1450.9482    12393.998    2.2328855   0.11593446  0.097756577 
    9800   -956.38993    40.029604   -916.36032    1433.7153    4504.6972    2.2111856   0.07759166  0.092937551 
    9900    -952.0695    42.400749   -909.66875    1518.6411     -11470.6    2.1623299  0.086948957   0.10281932 
   10000   -952.68445    39.155979   -913.52847    1402.4252   -9841.6638    2.1714026  0.054143749   0.10875604 
   10100   -955.07318    38.579428   -916.49375    1381.7752    55.504368    2.2011193  0.055269481  0.092225901 
   10200   -953.46866     39.58351   -913.88515    1417.7378    5819.3192    2.2096641   0.13858525   0.10303431 
   10300   -947.78347    39.267749   -908.51572    1406.4284    2890.0009     2.190951   0.20953929   0.11346903 
   10400   -951.95484     34.88399   -917.07085     1249.418    2301.4291    2.1979654   0.13675187  0.095767681 
   10500   -956.89333    40.617913   -916.27541    1454.7863   -6447.2709    2.1857846  0.078130213  0.091937049 
   10600   -954.84168    41.128833   -913.71285    1473.0856   -3497.2233    2.1896529 0.0061258212  0.082960319 
   10700   -953.15429    39.560547   -913.59375    1416.9153    3745.7107    2.2014622  0.079462547  0.095744962 
   10800   -958.41912    37.913029   -920.50609    1357.9072    6274.4867    2.2202211   0.34031791  0.085135875 
   10900   -956.45839    40.514654   -915.94374     1451.088    565.40332      2.20103  0.094748784  0.094592054 
   11000   -953.53793    39.563245   -913.97468     1417.012   -6171.7566    2.1797585   0.17771023   0.10057984 
   11100   -954.71558    36.548926   -918.16666      1309.05   -5321.3562    2.1846857  0.055873596   0.08975222 
   11200   -958.39313    38.607593   -919.78554     1382.784    831.18417     2.208539   0.11998691  0.092445226 
   11300   -956.24563    42.531659   -913.71397    1523.3298    8274.8305    2.2207082   0.12224521  0.097620614 
   11400   -956.50394    41.005229   -915.49871    1468.6586    3129.2703    2.2082019  0.082170195   0.10603467 
   11500   -958.86283    36.743947   -922.11889    1316.0349   -11545.633    2.1821103   0.10256495  0.097495606 
   11600   -952.59549    37.307983   -915.28751    1336.2366   -9010.9122    2.1705761   0.09424855  0.097574405 
   11700   -954.48661    40.508514   -913.97809    1450.8681     4198.117    2.2084891  0.059798951  0.088334676 
   11800   -954.42098    37.497976   -916.92301    1343.0415     10138.21    2.2242558   0.14041175   0.10493489 
   11900   -959.89432    40.265811   -919.62851    1442.1753   -1806.7642    2.2046876  0.068637446  0.096869877 
   12000    -952.1411    41.664002   -910.47709    1492.2535   -8940.3286    2.1682849  0.045712657   0.10766643 
   12100   -954.38649    40.281819   -914.10467    1442.7487   -2736.8261    2.1881324  0.092419419  0.090165227 
   12200   -954.49632    37.897225   -916.59909    1357.3412    4443.0997    2.2075158   0.11838797  0.096895151 
   12300   -957.15711    41.246133   -915.91098    1477.2869    3251.6493    2.2098563   0.21333348  0.092781233 
   12400   -952.28545    43.153889   -909.13156    1545.6158   -3844.3633    2.1792788   0.14956823   0.10518277 
   12500   -953.55409    37.779198    -915.7749    1353.1139   -5365.4286    2.1826056  0.013572445   0.10876814 
   12600   -956.57508    40.434138   -916.14094    1448.2042   -1696.8091    2.1957004  0.076985035  0.097030214 
   12700   -952.71559    43.428432   -909.28715    1555.4489    5794.2993    2.2021509  0.024460656   0.10476984 
   12800   -954.23461    40.522868   -913.71174    1451.3822    4577.1106    2.2033201  0.071821735  0.096025959 
   12900   -955.62333    38.684122   -916.93921     1385.525   -6861.9457    2.1812315   0.10874463  0.090826646 
   13000   -950.92967    37.408512   -913.52116    1339.8372   -7168.0687    2.1716439  0.013438029   0.10332554 
   13100   -950.55679    41.607137   -908.94966    1490.2168    685.70571    2.1896919   0.19072156   0.10553102 
   13200   -955.65935    37.833326   -917.82602    1355.0525    13853.388    2.2357975   0.14679739   0.10120079 
   13300   -953.96413    38.038204   -915.92593    1362.3905    2607.7652    2.2030711  0.026322518  0.089598487 
   13400   -953.62147    39.467722   -914.15374    1413.5907   -10820.417    2.1661603   0.10975208   0.10052737 
   13500   -950.75818    37.446931   -913.31124    1341.2133   -4487.8289    2.1763889   0.18933318  0.097527075 
   13600   -958.61801    37.108547   -921.50946    1329.0936    6335.1184    2.2217006  0.036716344  0.097727922 
   13700   -953.86453    37.436793   -916.42774    1340.8501    6765.3405     2.211784  0.014416914   0.10698835 
   13800   -956.09607    41.970826   -914.12525    1503.2428   -2560.7707    2.1914625  0.055840249  0.093568251 
   13900   -954.31034    38.672129   -915.63821    1385.0954   -4691.0378    2.1839389   0.16276328   0.10629768 
   14000   -958.34373    37.052552   -921.29118     1327.088   -1423.6619    2.2048449   0.16426884   0.10193085 
   14100   -956.77756    41.940586   -914.83697    1502.1597    2070.8348    2.2070762  0.071468428   0.11435477 
   14200   -954.26076    39.664291   -914.59647    1420.6311    2052.5495    2.2032414  0.020455102   0.10801755 
   14300   -956.87144      35.6404   -921.23104    1276.5099    -760.4605    2.2007379  0.097889015     0.100593 
   14400   -953.04556    35.862765    -917.1828    1284.4742   -4426.4618    2.1873617  0.054191521   0.11197702 
   14500   -954.85517    40.637717   -914.21745    1455.4957   -1183.4947    2.1956275  0.038740866   0.10813469 
   14600   -957.06176    40.631392   -916.43037    1455.2691    3663.9191    2.2125685   0.11136764   0.10211248 
   14700   -958.94574    37.268668   -921.67707    1334.8285    3307.7456    2.2160039   0.12830033   0.10231256 
   14800   -952.82777    39.722587   -913.10518     1422.719   -7871.4394     2.173714  0.032924091     0.115694 
   14900   -954.41221    39.905577   -914.50663     1429.273   -6901.8779    2.1786579  0.076262288   0.10250358 
   15000   -955.95949    39.453352   -916.50614     1413.076    5087.3475    2.2109351  0.045326183   0.10041164 
   15100   -956.85423    36.714824    -920.1394    1314.9919    13417.683    2.2353001   0.06714954  0.091309699 
   15200   -951.84706    40.324012   -911.52305    1444.2599    -1686.846    2.1848719  0.053001785  0.099671586 
   15300   -950.97712     37.49303   -913.48409    1342.8644   -9837.6841    2.1640963  0.083393124   0.11549231 
   15400   -955.70315    39.432849    -916.2703    1412.3416   -6405.8828    2.1828931  0.059662649  0.087045086 
   15500   -956.34674    40.491588   -915.85515    1450.2618     7936.721    2.2171789  0.059836222  0.096967756 
   15600   -952.45681    44.740974   -907.71584    1602.4594    4569.2005    2.1989957   0.05958875   0.10494286 
   15700   -954.55414     40.00224    -914.5519    1432.7352   -1352.5611    2.1894136  0.099161281  0.097337547 
   15800   -954.03993     38.13501   -915.90492    1365.8578   -6771.0659     2.176707    0.7084931   0.10983416 
   15900   -950.19689    40.707052   -909.48984     1457.979   -149.09589     2.179426   0.73631083   0.11851624 
   16000    -952.8126    38.038782   -914.77381    1362.4112    2671.6273    2.1980408   0.55093728   0.10909716 
   16100   -954.57603    37.973888   -916.60214     1360.087    3152.3695    2.2029923   0.15004562  0.092242352 
   16200    -955.6186    42.622353   -912.99625    1526.5781   -2694.1636     2.189443  0.023183413  0.099214188 
   16300   -949.70523    39.435063   -910.27017    1412.4209   -1561.9955      2.18052   0.02173124  0.094003837 
   16400   -955.84305    37.405974   -918.43708    1339.7463    3418.3795    2.2091684   0.09386228   0.09615079 
   16500   -954.94984    39.745432   -915.20441    1423.5373    4767.3082    2.2077059   0.16337825  0.092093347 
   16600   -952.07267    39.354251   -912.71842    1409.5265    375.20809    2.1942771   0.27438067  0.092958954 
   16700   -957.15426    37.401096   -919.75316    1339.5716   -5225.7624    2.1905713  0.062775731  0.097901394 
   16800   -957.41675    38.887534   -918.52922    1392.8104   -7455.1096    2.1860192  0.035006875  0.094033135 
   16900   -952.78965     38.83554   -913.95411    1390.9482    3026.8759    2.2020712  0.045819782   0.11069116 
   17000   -953.05152    37.792418    -915.2591    1353.5874    9664.5678     2.219249   0.18015126   0.10433241 
   17100   -957.62508    36.154476   -921.47061    1294.9222    4080.0874    2.2161357  0.097397973  0.096818869 
   17200   -953.47336    39.219543   -914.25382    1404.7018   -10291.882    2.1707678  0.083847317   0.10762499 
   17300   -956.30789    41.333128   -914.97476    1480.4028   -11165.815    2.1689266   0.15226284   0.10382018 
   17400   -954.96656     35.33857   -919.62799    1265.6994    6395.6855    2.2142772  0.086851834  0.090115411 
   17500   -957.92388    41.566986    -916.3569    1488.7787    16743.145    2.2426465   0.07938785  0.083285529 
   17600   -952.96849    40.139858   -912.82864    1437.6641    4282.2081    2.2010149   0.14553103   0.09245482 
   17700   -953.29878    35.938509   -917.36027     1287.187   -10658.117    2.1666476   0.26073798   0.09108148 
   17800   -954.93726    39.837673   -915.09959     1426.841   -6668.6036    2.1796406   0.19495361  0.097607048 
   17900   -954.18944    44.105843    -910.0836    1579.7114   -971.10111    2.1909135   0.12620909  0.098060273 
   18000   -952.04326    35.737929   -916.30533     1280.003    6433.0593    2.2109772  0.038023573   0.09891611 
   18100   -955.30578    39.143202   -916.16258    1401.9675    1536.3091    2.2006996  0.062412346  0.098632139 
   18200   -952.20861    43.148533   -909.06008     1545.424   -6445.6261    2.1740015  0.088620975    0.1023752 
   18300   -952.67907    35.719224   -916.95985    1279.3331    85.647796    2.1947725   0.18042482   0.10036702 
   18400   -955.81182    39.490638   -916.32118    1414.4114    1810.2629    2.2025224   0.03028819   0.08826441 
   18500   -953.36875    41.501065   -911.86769    1486.4176    949.27805    2.1981848  0.048237477   0.09526054 
   18600   -951.99214    37.130144     -914.862    1329.8671   -839.62688    2.1924124   0.20916499  0.094840392 
   18700   -954.47016    36.107174   -918.36298     1293.228   -3719.5251    2.1905674  0.063183067   0.09315505 
   18800   -952.14752    37.959034   -914.18849    1359.5549    1644.1363    2.1971018  0.019729599  0.099499648 
   18900   -953.94392    41.063461   -912.88046    1470.7443    6479.0699    2.2116903  0.019999855  0.095203727 
   19000   -957.44824    36.909252   -920.53899    1321.9555    5283.4504    2.2183865   0.11800864   0.08255096 
   19100   -953.84183    38.675998   -915.16583     1385.234   -6047.6346    2.1808967   0.29946191   0.10090339 
   19200   -953.61268    39.723123   -913.88956    1422.7382   -8971.0528    2.1719264   0.25036092   0.10044406 
   19300   -957.03617    36.754969    -920.2812    1316.4297    2069.3191    2.2089087  0.078242882  0.094720352 
   19400   -958.40541     41.65548   -916.74993    1491.9482    9278.5781    2.2298673  0.013489619  0.099631994 
   19500   -951.80552    38.870278   -912.93524    1392.1924    7055.5719    2.2108237  0.021393012   0.10651074 
   19600    -954.9712    37.017809   -917.95339    1325.8437   -7840.6121    2.1803159   0.14653237    0.1124144 
   19700   -956.20036    38.499561    -917.7008    1378.9147   -11329.102    2.1768914  0.068636547   0.10851698 
   19800   -952.30791    40.469548   -911.83836    1449.4725    795.11961     2.194054  0.099408911   0.10986842 
   19900   -957.64693    41.916441   -915.73049    1501.2949    5357.8829    2.2152197  0.022085726  0.095902527 
   20000   -955.93608    37.703044   -918.23304    1350.3863    2270.2555    2.2063707   0.04436413   0.10562847 
   20100   -947.94249     38.17782   -909.76467    1367.3911    -2641.717     2.175823   0.12044157   0.10849613 
   20200   -951.35534    35.881934   -915.47341    1285.1608   -347.69117    2.1926527  0.043198067   0.10680952 
   20300   -955.28275    38.179891   -917.10286    1367.4652    1712.1999    2.2047783  0.017058357   0.10478623 
   20400     -952.969    42.770652   -910.19835    1531.8897    675.45128    2.1956479  0.075932834   0.11600676 
   20500   -953.42442    38.204254   -915.22017    1368.3378    1762.2946    2.2011314  0.072824045   0.11150699 
   20600   -955.17713    37.760572   -917.41655    1352.4467   -3135.5361      2.19405  0.042246674   0.10313299 
   20700   -953.73535    41.787046    -911.9483    1496.6604   -4076.2316    2.1846832  0.027285235   0.10620797 
   20800   -953.96637    39.563691   -914.40268    1417.0279   -43.719103    2.1972637  0.042440952   0.11428361 
   20900   -954.76378    36.526505   -918.23728     1308.247    5572.9056    2.2122565  0.053587265   0.10307494 
   21000   -954.21656    41.041485   -913.17507    1469.9571    2471.1892    2.2028642   0.43444348    0.1061848 
   21100   -954.57812    39.912695   -914.66542     1429.528    -3414.123    2.1880716   0.12876074     0.101082 
   21200    -956.3553    36.050009   -920.30529    1291.1806   -8682.7741    2.1842536  0.021055057   0.10415276 
   21300   -955.77826    41.459899   -914.31836    1484.9432   -846.80813    2.1961461  0.017966905   0.10657305 
   21400   -953.76265    40.516444   -913.24621    1451.1521    13053.971    2.2265754  0.072214154   0.10313738 
   21500   -957.44638    37.338726   -920.10766    1337.3377    8101.6429    2.2253899    0.1491988  0.096083267 
   21600   -951.13719    37.874267   -913.26292    1356.5189   -9212.3208    2.1689843   0.13092254   0.11139775 
   21700   -955.00107    41.008422   -913.99265     1468.773   -13197.721    2.1658101   0.04093512   0.10731314 
   21800   -957.35561    39.036856   -918.31876    1398.1586    856.13654    2.2066525  0.093859558   0.10124536 
   21900   -952.39134    36.858997   -915.53234    1320.1556    11656.096    2.2243884  0.017354834   0.11367326 
   22000   -954.12322    42.508553   -911.61467    1522.5022    593.79021    2.1984177  0.058275382   0.11349632 
   22100   -956.35438     39.02616   -917.32822    1397.7755   -5832.2696    2.1862311  0.014015322  0.096503155 
   22200   -954.18379    38.621998   -915.56179    1383.2999   -5280.4487    2.1851113  0.020662671   0.10659518 
   22300   -950.67646    40.866501   -909.80996    1463.6899    1958.2771    2.1921078  0.017849115   0.10895923 
   22400   -958.64264    41.814988   -916.82765    1497.6612    3676.4748    2.2135175   0.11280186   0.10199637 
   22500   -954.06737     38.51799   -915.54938    1379.5747    3794.0199    2.2073114   0.04227268   0.10450668 
   22600   -949.62363    39.770663   -909.85296    1424.4409   -2604.1068    2.1799779  0.020641178   0.10421694 
   22700   -952.53912    34.375685   -918.16343    1231.2124   -1070.2163    2.1934158  0.051683987  0.099046725 
   22800   -952.72179    36.621887    -916.0999    1311.6632    1021.6862    2.2000387  0.058565189   0.11015546 
   22900   -949.92164    38.296871   -911.62477     1371.655     4811.908    2.1991541  0.071052009  0.099266697 
   23000   -955.79087     36.82488     -918.966    1318.9336      3175.91    2.2088372  0.032849764  0.098821033 
   23100    -955.3832    37.864836   -917.51837    1356.1811   -5359.0677    2.1874082  0.022870641   0.10068803 
   23200   -954.99558    41.485519   -913.51006    1485.8608   -9055.0727    2.1774714  0.017999158   0.10680135 
   23300   -954.20743    36.824746   -917.38268    1318.9289    6819.4086      2.21508   0.11053943   0.10761822 
   23400   -956.93088    38.112088   -918.81879    1365.0368    13146.373    2.2389603  0.059799384  0.094024308 
   23500    -954.8283    42.152991   -912.67531    1509.7673    730.18358    2.2004407  0.060270945   0.10108891 
   23600   -956.74135    40.708276   -916.03307    1458.0228   -13700.494    2.1679493  0.046122062  0.094469693 
   23700   -957.83029    37.766594    -920.0637    1352.6624   -9532.2772    2.1815081  0.087012971  0.097574781 
   23800   -950.74354    38.497997   -912.24554    1378.8586    5273.2152     2.203215   0.15539308   0.11529906 
   23900   -951.04611    37.109302   -913.93681    1329.1206    10616.715    2.2217573   0.42393119  0.095229475 
   24000   -957.72281    39.119668   -918.60315    1401.1246    1436.1174    2.2105314  0.036433137  0.093341088 
   24100   -951.09477    40.004961   -911.08981    1432.8326   -6388.0294    2.1770554  0.019363365   0.10581474 
   24200   -952.97692    39.750433   -913.22649    1423.7163   -5044.7387    2.1842654   0.14267448  0.098189975 
   24300   -955.15034    38.070957   -917.07938    1363.5636    1960.9388     2.206801   0.21072328   0.10295605 
   24400   -953.59637    39.944339   -913.65204    1430.6614    5397.1028    2.2079202   0.14885414  0.096985626 
   24500   -954.93702    44.512065   -910.42495    1594.2607   -3054.0283    2.1873535    0.1343737  0.095182614 
   24600   -954.84376    37.514676   -917.32909    1343.6396   -4599.8645    2.1882484  0.039267966  0.094976491 
   24700   -955.56577    40.668602   -914.89716    1456.6018   -1483.1134    2.1933217  0.022261636  0.099787325 
   24800   -951.30222    41.999518    -909.3027    1504.2704    4031.4302    2.1987651   0.17080579    0.1047004 
   24900   -955.13386    37.436369   -917.69749     1340.835    7343.2708    2.2179385   0.18634396  0.094345516 
   25000   -955.24653    39.217462   -916.02907    1404.6273    -4719.056    2.1881962  0.060324149  0.096930783 
   25100   -952.52181    39.802192   -912.71962    1425.5702   -15353.725    2.1572489  0.071063012   0.10402903 
   25200   -957.17185    37.342752    -919.8291     1337.482   -4186.4498    2.1924221  0.004990937  0.097463277 
   25300   -958.66826    40.690321   -917.97794    1457.3797     11969.33    2.2366441  0.080104541  0.098399239 
   25400   -957.26373    44.402598   -912.86113      1590.34    11344.597    2.2274873   0.11933884  0.090559777 
   25500     -958.353    42.065563   -916.28744    1506.6359   -7313.9501    2.1843363  0.075425055  0.096665578 
   25600   -956.00982    34.475387   -921.53443    1234.7833    -10823.33    2.1790284   0.26622574  0.089458826 
   25700   -955.40837    41.113508   -914.29486    1472.5368   -6012.3081    2.1877862   0.17774307   0.10931253 
   25800   -952.64859    38.216538   -914.43205    1368.7778    7070.4535    2.2116355   0.28969535   0.10221589 
   25900   -957.83081    37.887172   -919.94363    1356.9811    5383.6932    2.2184572   0.13895508   0.10409282 
   26000   -950.48988    37.530625   -912.95925    1344.2109   -960.00355    2.1891196  0.016171813   0.11199982 
   26100   -953.92087    40.413936   -913.50693    1447.4806   -2164.9188     2.186087 0.0051665925   0.10291077 
   26200   -954.03264    36.576673   -917.45596    1310.0438    65.785345    2.1966989   0.11387374   0.10892404 
   26300   -955.55321    39.910472   -915.64274    1429.4484    1216.9694    2.2051768  0.028508479   0.10170949 
   26400   -951.43476    40.881613   -910.55315    1464.2311     3157.148    2.1970834    0.1709264     0.107136 
   26500   -955.72786    39.309657    -916.4182    1407.9294   -3352.5088    2.1930176  0.079449412  0.098100792 
   26600   -951.11704    35.161543    -915.9555     1259.359   -2269.2462    2.1868562   0.14732979   0.11665209 
   26700   -953.81617    44.800042   -909.01613     1604.575   -4763.9306     2.185768   0.15018439   0.10715966 
   26800   -955.47432    38.943408   -916.53091    1394.8116    8406.6218    2.2212724  0.043963529  0.098959655 
   26900   -951.75912    35.870243   -915.88888     1284.742    7488.7441    2.2140506   0.11624459   0.10019984 
   27000   -949.51563    38.337636   -911.17799    1373.1151   -5807.9644    2.1720601  0.066718644   0.11230595 
   27100   -955.29602    39.272758   -916.02326    1406.6078   -14446.142    2.1647771  0.086349047   0.11557121 
   27200   -955.73886    37.919024   -917.81983    1358.1219   -2663.0049    2.1972173    0.1424958   0.10089843 
   27300   -955.01706    42.540089   -912.47697    1523.6317    13070.538    2.2277689   0.21835998   0.10108881 
   27400   -956.88712     40.74464   -916.14248    1459.3253    4754.1887    2.2164313   0.10785031  0.095672528 
   27500   -956.54735    36.128227   -920.41913    1293.9821   -5702.6965    2.1893201   0.10937748   0.10071824 
   27600    -953.1236    38.638416   -914.48519    1383.8879   -6922.0502    2.1772058   0.16667352   0.11284337 
   27700   -951.21442    36.559299   -914.65512    1309.4215    201.38759    2.1962206   0.20259516   0.10760738 
   27800   -960.11116    39.050655   -921.06051    1398.6528    6002.4488    2.2250035  0.099250121    0.0945995 
   27900   -953.68569    40.016703   -913.66898    1433.2532    3195.3798    2.2002798  0.055440294   0.10173406 
   28000   -952.49017    38.028469   -914.46171    1362.0418   -705.10597    2.1894458  0.072643818   0.10580404 
   28100   -957.79122    38.870116    -918.9211    1392.1866   -4619.8436    2.1937734   0.20096435   0.11263444 
   28200   -956.65271    40.698625   -915.95408    1457.6771    1486.9938    2.2040628  0.086789561   0.10050407 
   28300   -952.55259    40.383573   -912.16901    1446.3931    4263.2347     2.205964   0.18227367   0.11085192 
   28400   -952.55114    36.245144     -916.306    1298.1696    1067.8364    2.1967132   0.13590647   0.10824575 
   28500   -951.37367    34.375215   -916.99845    1231.1955   -3572.5053    2.1831302   0.26576968   0.10391352 
   28600     -951.683    42.635875   -909.04712    1527.0624   -6927.6207    2.1726805   0.18113155   0.10495338 
   28700   -954.96712    39.435328   -915.53179    1412.4304     8872.388    2.2215444   0.24980859  0.097798965 
   28800   -955.60242    39.973072   -915.62934    1431.6905    13268.385    2.2339556  0.028430701   0.10414616 
   28900   -951.69314    39.983425   -911.70971    1432.0613   -3292.2761    2.1823487  0.051607456   0.11503972 
   29000   -951.77469    40.187771   -911.58692    1439.3802   -19537.993    2.1438375  0.072683963   0.13337639 
   29100   -955.24994    37.621335    -917.6286    1347.4598   -4915.0902    2.1843857 0.0061092346   0.10526992 
   29200   -953.05174    39.741172   -913.31056    1423.3847     10480.03    2.2174261   0.14322366   0.10687695 
   29300   -950.97299     38.54701   -912.42598    1380.6141    6898.7165    2.2090443   0.12418148   0.11246439 
   29400   -958.97654    39.098682   -919.87786     1400.373   -1192.8496     2.203354   0.40269695  0.094524923 
   29500   -953.75358    38.332728   -915.42085    1372.9393   -6208.6096    2.1823981   0.17404305   0.10394454 
   29600    -951.9292     38.39814   -913.53106    1375.2821   -2971.5705    2.1863478   0.19063192   0.10428883 
   29700   -958.89402    37.936189   -920.95783    1358.7367    4114.8247    2.2168326    0.1547459  0.089789833 
   29800   -953.70684     37.95158   -915.75526     1359.288    5159.1252     2.209326 0.0075908988  0.096887273 
   29900   -954.71104    40.829315   -913.88173     1462.358   -1446.1726    2.1946588  0.070340738     0.117132 
   30000   -956.18043    37.109614   -919.07082    1329.1318   -6067.3123    2.1883684   0.14799514   0.11251423 
   30100    -956.7466    38.789123   -917.95748    1389.2857    -4340.915     2.191988  0.056368539   0.11067071 
   30200   -951.77689    39.034479   -912.74241    1398.0735    3961.6594    2.2016868   0.04085263   0.11494471 
   30300   -955.15792     38.94989   -916.20802    1395.0438    4326.5947    2.2091851   0.16247162   0.10242712 
   30400   -954.76433     35.84727   -918.91706    1283.9192   -853.64622    2.1969642   0.29397556   0.11011136 
   30500   -950.56646    40.462981   -910.10348    1449.2372   -9723.8996    2.1629301   0.42660379   0.11680893 
   30600    -954.9829    40.067381   -914.91552    1435.0683   -752.22156    2.1962079   0.32573993     0.103307 
   30700   -956.78726    40.520745   -916.26651    1451.3061    10543.705    2.2276761  0.057680506  0.091274747 
   30800   -953.99509    42.628419   -911.36667    1526.7954    6273.4095    2.2107334    0.1865385    0.1016152 
   30900   -951.51518    39.704258   -911.81092    1422.0625   -8404.4982    2.1694049    0.1772739   0.11424627 
   31000   -957.52409    39.735464   -917.78862    1423.1802   -13187.666    2.1679808   0.22612686   0.10985396 
   31100   -952.51882     38.62192    -913.8969    1383.2971    2433.5469    2.1978495   0.10693462   0.11755159 
   31200   -951.99911    42.033438   -909.96568    1505.4853    9603.5511    2.2124365  0.040474267   0.11674089 
   31300   -954.66143    36.289846   -918.37158    1299.7707    6820.8836    2.2151617   0.13933768   0.10972338 
   31400   -955.12784    39.298242    -915.8296    1407.5205   -4216.5368    2.1869654   0.12946796   0.10253044 
   31500   -954.31854    41.838123   -912.48042    1498.4898   -7171.1586    2.1771266   0.35198615   0.10552582 
   31600   -957.09104    37.044536   -920.04651    1326.8009    635.75813    2.2043695  0.078839256  0.090914369 
   31700    -955.8179    38.260151   -917.55775    1370.3399    3333.0687    2.2091906  0.060617636  0.096835341 
   31800   -952.07547    38.730133   -913.34533    1387.1729    2529.8156    2.2010044   0.05557265   0.10580223 
   31900   -953.79519    35.956912   -917.83827    1287.8462    -940.8172    2.1963169    0.5642185  0.096429981 
   32000   -955.88483    36.140816   -919.74401     1294.433   -3542.3212    2.1955053   0.11625369   0.10772684 
   32100   -952.89949    39.345961   -913.55353    1409.2296   -80.016742    2.1959668  0.038035667   0.11421605 
   32200    -956.0517    39.855088   -916.19661    1427.4647    2501.3999    2.2082763   0.19639262   0.10665049 
   32300   -958.60195    37.869993   -920.73196    1356.3658    2558.0855    2.2148658  0.009242175   0.10670126 
   32400   -953.71319    41.606962   -912.10623    1490.2105   -5897.2342    2.1802733   0.11214001   0.10177687 
   32500   -954.24558    39.210325   -915.03525    1404.3716   -7527.3984    2.1799614   0.22578452    0.1104763 
   32600   -958.03342    40.349099   -917.68432    1445.1584    189.39316    2.2055363   0.12902053   0.09022901 
   32700   -952.55925    41.736734   -910.82252    1494.8585    12156.699    2.2219541   0.55288881   0.10655603 
   32800   -951.01274    38.892346    -912.1204    1392.9828    7603.7299    2.2113175   0.12199244   0.10818023 
   32900   -956.47828    39.169613   -917.30867    1402.9135   -9572.1047    2.1794723  0.066453995  0.095420777 
   33000   -950.70162    36.758524   -913.94309     1316.557   -9319.3765    2.1683838 0.0065804164   0.11723856 
   33100   -947.00229    37.795902   -909.20639    1353.7121    3727.9654    2.1911484  0.021107831   0.10879741 
   33200   -954.86619    38.093421   -916.77277    1364.3682    10627.504    2.2297196   0.11456047   0.11501739 
   33300   -956.71916    41.298672   -915.42048    1479.1687    3278.5904    2.2115548  0.060385399    0.1118839 
   33400   -950.53872    40.080013    -910.4587    1435.5207   -4914.0195    2.1781548   0.20378156   0.11841562 
   33500   -957.04702    38.285959   -918.76106    1371.2642   -5842.8403    2.1919363  0.036853648   0.10725967 
   33600   -955.43475    38.940063   -916.49468    1394.6918    97.630682    2.2011487   0.16520203   0.10835768 
   33700   -950.46602    38.070689   -912.39533     1363.554    4498.6078    2.2046799   0.16181351   0.11403164 
   33800   -956.52765    38.100789   -918.42686    1364.6321    1211.4917    2.2078426 0.0062861388   0.10600802 
   33900   -957.33565      38.8629   -918.47275    1391.9281   -4382.1302     2.196217   0.18539046   0.11302706 
   34000   -954.29546     40.72737   -913.56809    1458.7067   -2872.0965    2.1905116  0.050260072   0.10869989 
   34100   -955.56513    39.008875   -916.55625    1397.1564    1648.7403    2.2058423  0.032783146   0.10738185 
   34200   -956.60662    36.476661   -920.12996    1306.4617    5720.1224    2.2211147    0.1469134   0.10587864 
   34300   -954.56463    41.691322   -912.87331     1493.232    680.25776    2.2003289  0.049636735   0.10377848 
   34400   -953.00056    37.153274   -915.84729    1330.6955   -6474.3339     2.181804  0.067895636   0.11009339 
   34500   -957.31707    36.752192   -920.56488    1316.3302   -9804.2255    2.1827546  0.054251499   0.10710161 
   34600   -954.19464     40.98582   -913.20882    1467.9635    2674.3052    2.2053963   0.12339617   0.10103627 
   34700   -953.70653    40.686007   -913.02052    1457.2252    18783.296    2.2427219  0.072041151  0.098385674 
   34800   -956.56046    38.633519   -917.92694    1383.7125    4882.4439    2.2155098  0.083992955  0.097608294 
   34900   -951.13499     39.97958   -911.15541    1431.9236   -8586.8836    2.1652432   0.17407953    0.1078178 
   35000   -954.55767    41.887293   -912.67038    1500.2509   -8324.3146    2.1732013   0.19615596   0.10574959 
   35100   -955.75817    38.834104   -916.92406    1390.8968    1712.5946    2.2044601  0.031869636  0.099022957 
   35200   -952.09712    38.659441   -913.43768     1384.641    9700.6292    2.2153169   0.05715616  0.095737686 
   35300   -951.85778    41.975566   -909.88222    1503.4125    1607.6204    2.1922859  0.068499593   0.10041901 
   35400   -954.12637     36.56302   -917.56335    1309.5548   -4318.2649    2.1883102  0.069906118   0.10132078 
   35500   -955.82369    40.469175   -915.35451    1449.4591    -6109.318    2.1867881   0.31335373   0.10131326 
   35600   -952.27301    41.807827   -910.46519    1497.4048    1045.3498    2.1907501  0.066511995   0.10360124 
   35700   -956.15937    37.557362   -918.60201    1345.1685    7634.1472    2.2164084   0.11078117  0.088033558 
   35800   -955.46458    38.490334   -916.97425    1378.5842   -369.47126     2.198665  0.026266778  0.093612002 
   35900   -953.34765     40.04937   -913.29828    1434.4232   -5411.2937    2.1789532   0.25916987   0.10665774 
   36000   -953.88667    37.517216   -916.36946    1343.7306   -4584.3121    2.1830776   0.14150029  0.095689513 
   36100    -957.5351    38.087136   -919.44797    1364.1431    3246.0434    2.2121462   0.18093694  0.080392691 
   36200   -953.51079    40.663779   -912.84701    1456.4291    12486.295    2.2254719   0.05436446  0.095391918 
   36300   -955.92387    40.353746   -915.57012    1445.3248    1855.8206     2.203798  0.088846735  0.091562655 
   36400   -956.78128    35.230487    -921.5508    1261.8283   -13592.138    2.1697743   0.14229194  0.093917563 
   36500   -950.91084    36.405678   -914.50517    1303.9194   -10697.023    2.1635017  0.042163457   0.10595286 
   36600   -956.34254     42.68922   -913.65332    1528.9731    5195.8472    2.2115442   0.10989936  0.095812765 
   36700   -958.22333    39.854295   -918.36903    1427.4363    11532.966    2.2324057 0.0030760053  0.099176914 
   36800   -952.56456    40.575651   -911.98891    1453.2727    1204.6402    2.1949012   0.16314995   0.11147853 
   36900   -951.73614     38.80623   -912.92991    1389.8984   -3724.0536    2.1801026   0.11409256   0.10605866 
   37000   -956.23187    38.533801   -917.69807     1380.141   -4946.0764    2.1882475  0.021709295  0.095452527 
   37100   -955.05573     41.00828   -914.04745    1468.7679    807.09864    2.1986459   0.10298115  0.095766458 
   37200   -953.64235    43.177594   -910.46475    1546.4648    2107.8899    2.1982807   0.12914352  0.098857692 
   37300   -954.68668    37.632548   -917.05413    1347.8614    2574.2098    2.2029391  0.054231189  0.099298421 
   37400   -955.79956    40.709174   -915.09039     1458.055   -3024.2005    2.1902707   0.12233688  0.092574371 
   37500   -951.15684    41.575283   -909.58155    1489.0759   -4538.9958    2.1781847   0.47807142   0.10559864 
   37600   -956.92011    38.941865   -917.97825    1394.7564     1844.505     2.207694  0.083077644  0.090433702 
   37700   -955.19422    39.695342   -915.49888    1421.7432    6691.9865    2.2122438   0.12209576  0.098499537 
   37800   -950.51436    39.350212   -911.16414    1409.3819    1222.6825    2.1911291  0.043827922   0.12456626 
   37900   -952.35839    34.588445   -917.76995    1238.8327   -5772.4069    2.1785164   0.12671937   0.11789537 
   38000   -956.36742    38.867245   -917.50017    1392.0838   -10662.391    2.1748088   0.11942345   0.10865324 
   38100   -952.64816    39.844029   -912.80413    1427.0686    5770.8886    2.2063841  0.095869027   0.10389367 
   38200   -955.67474    38.411572   -917.26317    1375.7632    15592.938    2.2361153  0.035525073  0.098252483 
   38300   -958.33759    38.706932   -919.63066    1386.3419    2522.8244    2.2094787  0.037957095  0.091627371 
   38400   -951.69106    38.013675   -913.67738     1361.512    -8767.928    2.1678254   0.10493432   0.10758582 
   38500   -955.48777    39.734745   -915.75303    1423.1545   -9465.3215    2.1774343  0.047583972   0.11259326 
   38600   -959.51055    39.247117   -920.26343    1405.6894    3861.2105    2.2158481  0.091743347  0.091069043 
   38700   -955.73766    43.656419   -912.08124    1563.6146    3243.9066    2.2055098  0.057941563   0.10819868 
   38800   -954.08115    39.400268   -914.68089    1411.1747    765.07331    2.1965277  0.054541982   0.10440385 
   38900   -958.34595    39.325561   -919.02039     1408.499   -5132.0922    2.1921068  0.053036959   0.10633789 
   39000   -952.47984    40.502622   -911.97722     1450.657   -1441.2123    2.1860738  0.062975439   0.11321171 
   39100   -951.97474    38.880224   -913.09452    1392.5486    4319.9941    2.2020087   0.08937888   0.11642027 
   39200      -955.27     37.81756   -917.45244    1354.4879    1994.3308    2.2055723  0.058580082   0.10277051 
   39300   -952.18397    39.596084   -912.58789    1418.1881    108.41578    2.1886298   0.13527138  0.099582297 
   39400   -953.68322    42.050519    -911.6327    1506.0971   -4981.2218    2.1798389   0.13867071   0.10632254 
   39500    -955.6382    37.987142   -917.65106    1360.5617   -648.45714    2.1980147   0.14068218  0.097395714 
   39600   -953.09944     39.36421   -913.73523    1409.8832    5669.0988    2.2071051  0.031617584    0.1048315 
   39700   -952.68173    42.478254   -910.20348     1521.417     3867.521    2.2007564  0.078603553   0.10305087 
   39800   -956.56115    38.229373   -918.33177    1369.2375   -3641.4645    2.1955062   0.17357281   0.10157355 
   39900   -952.63944    37.274556   -915.36489    1335.0394   -10319.506    2.1678339   0.18321809   0.10453564 
   40000   -953.82042    41.692864   -912.12756    1493.2872   -4809.4206     2.180223  0.060219305   0.10988925 
   40100   -958.21272    38.348229   -919.86449    1373.4945    13249.739    2.2366997   0.12686052   0.10494711 
   40200   -953.71312    38.142516    -915.5706    1366.1266    11792.731    2.2243374   0.13431552   0.11249717 
   40300   -955.51395    41.694367   -913.81958     1493.341   -7426.4638    2.1800302   0.21241784   0.10388976 
   40400   -954.16128    35.710187    -918.4511    1279.0094   -11094.356    2.1698755   0.11212913   0.10141336 
   40500    -954.8719    36.554063   -918.31784     1309.234   -1308.9347    2.1954047   0.04278041    0.1031137 
   40600   -953.21489    40.984662   -912.23023     1467.922    7848.0303    2.2117174  0.081963782   0.10521089 
   40700   -957.33409    40.831116   -916.50297    1462.4225    4593.1674    2.2100239   0.12447748   0.09766234 
   40800   -956.51497    37.193848   -919.32112    1332.1488   -4298.9127    2.1923517   0.19037851  0.095650384 
   40900    -955.2828    44.298754   -910.98404    1586.6207   -10121.788    2.1695449   0.21095083  0.092956991 
   41000   -955.17061    39.634255   -915.53635    1419.5553   -82.448958    2.1969885   0.12868729  0.099613223 
   41100   -954.58435    37.476463   -917.10789     1342.271    6615.7477    2.2129062   0.21660608   0.11303786 
   41200    -951.6014    42.277873   -909.32353    1514.2401    2419.1948    2.1950562  0.017221136   0.10531127 
   41300   -954.41024    39.144031   -915.26621    1401.9972   -2243.0355     2.193012   0.12986984     0.101452 
   41400   -955.06777    37.800769     -917.267    1353.8865   -4732.5422    2.1873919   0.15521599   0.10409443 
   41500   -952.46512    41.585678   -910.87945    1489.4482   -2454.1566    2.1850456  0.061291986   0.11071253 
   41600   -955.66611    40.550025   -915.11608    1452.3548     4552.733    2.2089207   0.17385849  0.099848458 
   41700   -957.89337    40.352427   -917.54094    1445.2776    2136.8258    2.2103681   0.18591159   0.09934238 
   41800   -952.98005    39.809945    -913.1701    1425.8478   -2364.5239    2.1859727    0.1577956   0.10398357 
   41900   -952.91123    39.015917   -913.89531    1397.4086   -8262.2066     2.171889   0.19706766   0.10610808 
   42000   -957.15531    37.377729   -919.77759    1338.7347   -1567.7569    2.2014196   0.14560457  0.095923667 
   42100   -950.52614    37.412079   -913.11406     1339.965     16156.98    2.2285842  0.093400814  0.090073279 
   42200   -952.79748    38.326702   -914.47078    1372.7235    9504.4013    2.2184927   0.22405793   0.10269298 
   42300   -954.54624     33.34047   -921.20577    1194.1347   -5532.7294    2.1873699  0.074756847   0.10243571 
   42400   -952.62689     38.27528   -914.35161    1370.8817   -12398.564    2.1625706   0.17503253   0.10429543 
   42500   -953.35043    39.560223   -913.79021    1416.9037   -1382.1435    2.1918507   0.22524398   0.11443659 
   42600   -954.62769    35.830693   -918.79699    1283.3255    11083.959    2.2246072   0.22177542   0.10412849 
   42700   -952.84322     38.83566   -914.00756    1390.9525    6526.4963    2.2092922    0.2478552   0.10897235 
   42800   -953.89928    41.221518   -912.67777    1476.4053   -4627.9517    2.1816406   0.18494727   0.11084278 
   42900   -953.96296    35.984487   -917.97847    1288.8338   -5099.9792    2.1837341  0.055574308   0.10490276 
   43000   -956.04246     41.01751   -915.02495    1469.0985   -1755.5435    2.1967298  0.066880392   0.10295297 
   43100   -952.49136    41.805238   -910.68612     1497.312     4941.013     2.200645   0.11031078  0.093128112 
   43200   -953.30815    36.056514   -917.25164    1291.4136    4239.0103    2.2064103   0.13822176  0.088417257 
   43300   -954.71492    39.300166   -915.41476    1407.5894   -3233.8554    2.1889437   0.36837316   0.09181136 
   43400   -948.07966    37.704988   -910.37468    1350.4559   -4943.2757    2.1712534  0.072448037   0.10468608 
   43500   -953.94578    35.571592   -918.37419    1274.0454     1763.443    2.1999653   0.18584761   0.10706099 
   43600   -954.75084    39.637716   -915.11313    1419.6792    8174.3033    2.2166336   0.23757234   0.10506918 
   43700   -951.31084    40.537344    -910.7735    1451.9007      5034.53    2.2030699  0.010729245    0.1164998 
   43800   -957.89041    39.654581   -918.23583    1420.2833   -9568.8815    2.1781614  0.044667826   0.10881699 
   43900    -954.9338    38.314133   -916.61967    1372.2733   -17047.402    2.1533244    0.1000266   0.10880221 
   44000   -952.50761    40.061853   -912.44575    1434.8703   -595.87846    2.1902424  0.092438029   0.11886414 
   44100   -957.27229    39.586416   -917.68588    1417.8419    14022.735    2.2394904   0.16258163  0.097913317 
   44200   -954.71383    36.217533    -918.4963    1297.1807    8696.9856    2.2217799   0.22037712   0.10242442 
   44300   -953.35249    40.269759   -913.08273    1442.3167   -6537.4524    2.1798038    0.2522855  0.096380229 
   44400   -954.64205    37.487322   -917.15473    1342.6599   -6395.7237    2.1804009   0.28768956  0.086979958 
   44500    -956.7737    38.006822   -918.76688    1361.2665    767.09395    2.2031406   0.19333868  0.092836677 
   44600    -951.9758    40.446512   -911.52929    1448.6474    3607.0106    2.2023699   0.19977081   0.11154367 
   44700   -958.25654    42.050665   -916.20588    1506.1023    1234.4139    2.2067399    0.0950954   0.11644585 
   44800   -957.61706    39.074571   -918.54249    1399.5094   -2151.8624    2.1975529  0.017554321   0.10537421 
   44900   -953.99778    43.717753   -910.28002    1565.8114   -9291.1182    2.1705123    0.2123258   0.11495382 
   45000   -953.15555    37.418839   -915.73671    1340.2071    696.33252    2.1936409  0.065330984   0.11321152 
   45100   -957.31187    40.503834   -916.80804    1450.7004    4897.8714    2.2144591   0.14842965   0.10313362 
   45200   -946.10103    36.700399   -909.40063    1314.4752    8879.3467    2.1991445  0.082836267   0.11682885 
   45300   -953.64945    38.336957   -915.31249    1373.0908   -2393.3718    2.1898206  0.099762912  0.094468628 
   45400   -956.62321    39.113697   -917.50951    1400.9108    -9403.283    2.1738571   0.16735278  0.094254389 
   45500   -952.17116    40.615078   -911.55608    1454.6848   -5009.9549    2.1805224   0.23448663   0.10631877 
   45600   -957.49923    41.279649   -916.21958    1478.4873    7725.3843    2.2203767   0.09544375   0.09331432 
   45700   -956.23743    38.627223    -917.6102     1383.487     10651.99    2.2248549  0.042156507   0.10493382 
   45800   -953.09533    39.808012   -913.28732    1425.7786    -4155.809    2.1799945 0.0091468545   0.10395876 
   45900   -952.74599    38.274388    -914.4716    1370.8498   -14696.796    2.1553445   0.19928682   0.11562781 
   46000   -958.68467    38.500789   -920.18388    1378.9586   -4482.5324    2.1962126   0.36202967   0.10871507 
   46100   -956.95299    44.124898   -912.82809    1580.3938    9675.7632    2.2207918   0.11602854  0.099087979 
   46200   -954.53662    39.989826   -914.54679    1432.2906     6438.458    2.2128988   0.16895312   0.11032293 
   46300   -957.39224    36.877398   -920.51484    1320.8147   -3421.7699    2.1953175   0.22386001   0.10089037 
   46400   -950.00946    36.978786   -913.03067     1324.446   -3925.8149    2.1765233  0.019296849    0.1153186 
   46500   -953.73874     40.04812   -913.69062    1434.3784   -479.48589    2.1919388  0.082049436   0.10839223 
   46600   -956.76674    38.195557   -918.57118    1368.0263    4558.0454    2.2125404  0.036464727   0.10620479 
   46700   -950.46305    37.802951    -912.6601    1353.9646    5684.8997    2.2018722  0.092495288   0.11323666 
   46800   -951.66485    38.853859   -912.81099    1391.6043   -704.42006    2.1906544   0.20309778   0.10804934 
   46900   -953.73736    35.716556   -918.02081    1279.2375   -4238.2592    2.1885328  0.059391085   0.10981714 
   47000   -954.76778    41.449339   -913.31844     1484.565   -2386.9836    2.1891567  0.081293809   0.10749217 
   47100   -950.73767    39.544076   -911.19359    1416.3254    4618.7256    2.2039807   0.18514083   0.11420354 
   47200   -955.36265    38.031113   -917.33154    1362.1365    5053.2533    2.2137341   0.20074612   0.10369218 
   47300   -955.35089    41.105884   -914.24501    1472.2637   -3067.4913    2.1901275   0.11968781   0.10158869 
   47400   -952.75111    41.620267   -911.13084     1490.687    -7941.137     2.166999   0.25117156  0.091642636 
   47500   -956.38143    37.222366   -919.15906    1333.1702    616.50732    2.2003682   0.15294383    0.1000842 
   47600   -954.98514    40.431796   -914.55334    1448.1203    10199.905    2.2211158 0.0026961683   0.10325832 
   47700   -951.39204    39.450976   -911.94107    1412.9909    8480.3874    2.2113463  0.053963832   0.10759474 
   47800   -955.59132    36.043975   -919.54735    1290.9645   -5793.4154    2.1843248  0.061536565   0.10920182 
   47900   -954.10484    38.432226   -915.67262     1376.503   -13986.059    2.1592039  0.034335949   0.10069933 
   48000   -954.80632    42.104057   -912.70226    1508.0146   -3022.3902    2.1878462  0.074821462   0.10301811 
   48100   -955.87168    37.339386    -918.5323    1337.3614    12412.088    2.2290237   0.13066297  0.097405059 
   48200   -955.85281    39.478857   -916.37395    1413.9895    4888.9535    2.2122556   0.42752427  0.093963614 
   48300   -953.33103    40.578505   -912.75252    1453.3749    -4965.291    2.1796991    0.1174397   0.10874981 
   48400    -955.1703    36.787846   -918.38245    1317.6072   -5634.7317    2.1840711  0.099947695  0.099332299 
   48500   -953.55767    37.729168    -915.8285     1351.322    1477.3374    2.1987757    0.1905577  0.097125852 
   48600   -954.00809    42.689544   -911.31854    1528.9847    2971.1157    2.2008316    0.2353215   0.11413814 
   48700   -954.83353    37.291471   -917.54206    1335.6452    3599.0491    2.2048223  0.065568381   0.10401351 
   48800   -952.22161    36.758448   -915.46316    1316.5543   -1480.7456    2.1907058  0.082987265   0.11689115 
   48900   -953.17557    42.252625   -910.92295    1513.3358   -5907.4129    2.1780429  0.042670528   0.11532065 
   49000   -954.74801    36.676478   -918.07153    1313.6184    264.78668    2.2005549   0.18558452  0.099540116 
   49100   -952.27762    37.507569   -914.77005    1343.3851    7540.5928    2.2103322   0.42997013   0.10264766 
   49200   -953.98924    43.008593   -910.98065    1540.4118    1793.7848    2.1971034    0.4133582   0.10201258 
   49300    -954.4286     35.69773   -918.73087    1278.5632    -311.4079    2.1959218  0.076463392   0.10088871 
   49400   -952.37587    36.885425   -915.49045    1321.1021   -6963.6041    2.1788702   0.11021241   0.10303567 
   49500   -950.89566    39.049677   -911.84598    1398.6178   -1588.6065    2.1868515  0.013850174   0.11057148 
   49600   -956.75308    37.374125   -919.37896    1338.6056    11283.309    2.2335435  0.058323559   0.10430764 
   49700   -954.92845     39.49584   -915.43261    1414.5977    7843.6148     2.222057   0.17802311   0.11440025 
   49800   -954.08925     40.74381   -913.34544    1459.2955    -9226.346    2.1768559  0.052157876   0.12813295 
   49900   -957.37788    38.202097   -919.17578    1368.2606   -14176.015     2.167759    0.0320251   0.10385767 
   50000   -954.59694    38.103176   -916.49377    1364.7176   -1155.8627    2.1961384   0.21413292   0.11086858 
   50100   -949.51909    37.948179   -911.57091    1359.1661    9724.8525    2.2156316  0.048702418   0.11723625 
   50200   -955.01969    37.424807   -917.59489    1340.4209    6287.8804    2.2164705  0.035402163   0.10129486 
   50300   -953.35181    36.717464   -916.63435    1315.0864   -1163.3061    2.1946651   0.26235443   0.10798584 
   50400   -953.22841    41.851258   -911.37715    1498.9603   -7012.6925     2.176421   0.14745536  0.098400644 
   50500   -957.55999    39.787347   -917.77264    1425.0385   -3664.6944    2.1975533  0.079278269   0.10750607 
   50600   -955.97836    40.101132   -915.87723    1436.2771    3805.9763    2.2087131  0.031186408  0.097069632 
   50700   -951.96287    41.801587   -910.16128    1497.1813    2646.8959    2.1986495   0.12434105   0.11706199 
   50800   -955.51082    37.835671   -917.67514    1355.1365   -725.19034    2.2009445    0.1123546   0.11715044 
   50900   -955.27945    39.740622   -915.53883     1423.365   -4747.1032    2.1868086  0.035961435   0.10322242 
   51000   -953.10861    42.283828   -910.82478    1514.4534   -3862.5201    2.1843469   0.11981172   0.12480004 
   51100   -956.18252    37.209251   -918.97326    1332.7004    4044.7439    2.2171576   0.24929257    0.1077972 
   51200   -955.44771    39.844333   -915.60337    1427.0795    4718.8431    2.2135773   0.14663352   0.10579749 
   51300   -954.98085    42.791787   -912.18907    1532.6466   -4097.8951    2.1866816   0.31250326   0.09531239 
   51400   -954.72647     35.04665   -919.67982    1255.2439   -7761.8219    2.1825712   0.15293158  0.090383438 
   51500   -957.27513    40.612192   -916.66294    1454.5814   -4802.4961     2.187016  0.031391638  0.085186279 
   51600   -950.79677    39.046534   -911.75023    1398.5053    14290.682    2.2223593 0.00045541267   0.10029082 
   51700   -956.35021    38.830708    -917.5195    1390.7751    13121.352    2.2341871   0.16032104   0.10648524 
   51800   -954.81732     35.91273   -918.90459    1286.2637   -3675.0711    2.1904676  0.053591825    0.1022807 
   51900   -954.91141    42.359125   -912.55228    1517.1502   -15843.858    2.1555532  0.037047153   0.11191356 
   52000   -957.54944    40.581715   -916.96773    1453.4899   -5916.4864    2.1894442   0.27885541   0.10661716 
   52100   -957.15319    39.449639   -917.70355     1412.943    7151.7973     2.219284   0.12156167   0.10501956 
   52200   -953.39658      43.0325   -910.36408    1541.2681    4114.9617    2.2019038   0.11397694     0.113689 
   52300   -954.60043    38.214867   -916.38556    1368.7179   -2671.3546    2.1939074   0.07127567  0.097127852 
   52400    -955.5893    38.123896    -917.4654    1365.4597   -5422.5734    2.1848717   0.18330471   0.10151793 
   52500   -949.43219    39.413953   -910.01824    1411.6649    -1265.184    2.1807333  0.026466119   0.10814181 
   52600   -956.10596    39.409007   -916.69695    1411.4877    3439.4357    2.2096184   0.11767599   0.10017271 
   52700    -952.2189    35.395174   -916.82373    1267.7268    6514.4835    2.2099782   0.14766806   0.10736762 
   52800    -952.9715    42.237245   -910.73425     1512.785   -2496.2373    2.1842271  0.053818181   0.10623969 
   52900   -953.00095    35.829926   -917.17103     1283.298   -3854.6202    2.1871085    0.1809688   0.11103823 
   53000   -955.35701    38.062949   -917.29406    1363.2768   -2851.8357    2.1927079   0.20449091   0.10903453 
   53100    -952.9333    41.454352   -911.47895    1484.7446    5259.4597    2.2053816  0.083453422   0.12073844 
   53200   -955.74419     37.96363   -917.78056    1359.7196    8272.7793    2.2210808   0.14131999     0.109117 
   53300   -956.24135    38.164105   -918.07724    1366.8999   -4702.4739    2.1877529  0.071460274   0.11272643 
   53400   -951.70984    38.561599   -913.14824    1381.1366   -14670.018    2.1544164   0.14584247   0.12299272 
   53500   -954.64729    37.644618   -917.00268    1348.2937   -4766.9477    2.1877069    0.1675268   0.10229097 
   53600    -955.0018    36.667727   -918.33407     1313.305    14873.631    2.2367852  0.039055825  0.099332852 
   53700   -953.28242     41.72342     -911.559    1494.3816    7223.3947    2.2153397  0.017377797   0.10944741 
   53800   -955.84859    39.633784    -916.2148    1419.5384   -6722.3919    2.1854869  0.068784244   0.10664533 
   53900   -956.76675    37.702933   -919.06381    1350.3823   -8231.4446     2.181122   0.14968126   0.10050352 
   54000   -954.09197    42.930204   -911.16177    1537.6042   -3595.9758    2.1850245    0.1510457    0.1016965 
   54100   -955.23872    40.021237   -915.21749    1433.4156    5146.4473    2.2130534   0.14746639   0.10158867 
   54200   -954.19245    36.229213   -917.96324     1297.599    5994.8548    2.2143851   0.14031193   0.11089958 
   54300   -951.80524     41.23018   -910.57506    1476.7155   -3062.7639     2.183877   0.10407057   0.12332077 
   54400   -957.42216    41.458868   -915.96329    1484.9063   -5863.6651    2.1869217   0.13971198   0.10209553 
   54500   -955.56171    38.143233   -917.41848    1366.1523   -1153.7783    2.1983345  0.088372362   0.10679721 
   54600   -948.56634    37.967344     -910.599    1359.8526    4142.7722    2.1982263   0.14822456   0.12266113 
   54700   -956.52774    40.262447   -916.26529    1442.0548    3022.4016    2.2063155  0.085976555  0.090896647 
   54800   -955.93572    38.161951   -917.77377    1366.8227   -2791.5364    2.1933524  0.088177862  0.098348753 
   54900   -952.14283    39.893883   -912.24895    1428.8542   -4993.3287    2.1783657  0.065648999   0.10219493 
   55000    -957.2363    40.286357   -916.94995    1442.9112    59.440941    2.2024702  0.060790076  0.090360535 
   55100   -955.22536    37.197016   -918.02834    1332.2622    9334.0688    2.2236364  0.052353049   0.09302775 
   55200   -954.09541     41.63911    -912.4563    1491.3619    3053.4232    2.2011066  0.082806317  0.097136747 
   55300   -953.27078    37.279189   -915.99159    1335.2054   -9082.9657    2.1700028   0.10083791   0.10550502 
   55400   -956.06112    35.916548   -920.14458    1286.4005   -11067.294     2.173323   0.20841474  0.095490388 
   55500   -951.75807    38.746371    -913.0117    1387.7545    3674.3215    2.1988079   0.13587112   0.10771758 
   55600   -955.92406    41.411114   -914.51294    1483.1959    13523.791    2.2270224    0.1147245  0.092273463 
   55700   -956.84069    37.188754   -919.65193    1331.9663    4380.2539    2.2135643  0.056416523  0.091301591 
   55800    -955.7116     43.99419   -911.71741    1575.7123   -10757.407    2.1680786   0.32198669   0.10227557 
   55900   -953.15886    38.481665    -914.6772    1378.2737   -5139.5904    2.1800885   0.12528012  0.093373986 
   56000   -955.72049    37.911722   -917.80876    1357.8604    3106.7021    2.2074538   0.19634917   0.10259042 
   56100   -946.62879    36.283374   -910.34542    1299.5389    9504.6862    2.2042918   0.32405827   0.10767816 
   56200   -953.84643    39.791693   -914.05473    1425.1941    2047.6207    2.2002936  0.036444732  0.094349916 
   56300   -953.97896    36.035143   -917.94382    1290.6481   -2874.8776    2.1898072   0.29478414  0.086346997 
   56400   -952.83221     40.94049   -911.89172    1466.3399   -4951.0267    2.1790413   0.18742193  0.098568646 
   56500   -953.34154    39.931836   -913.40971    1430.2135    1617.6885    2.1931246  0.027591502   0.11584761 
   56600    -955.1443     37.39917   -917.74513    1339.5027    6790.9151    2.2116851  0.014336268   0.11227051 
   56700   -954.20065    41.374457   -912.82619     1481.883    2003.7617    2.1992417  0.044642666   0.10993808 
   56800   -952.45314    38.782118   -913.67103    1389.0348   -4035.2531    2.1836529    0.0841882   0.10250833 
   56900   -954.87399    35.564063   -919.30993    1273.7758   -3469.4058    2.1886814   0.23763925  0.089822722 
   57000    -955.2776    41.517351   -913.76025     1487.001   -245.64468    2.1948952   0.01540825  0.093241273 
   57100    -956.2597    42.410111   -913.84958    1518.9764    6282.5224    2.2159616   0.13105074   0.10428513 
   57200   -955.93345    36.140221   -919.79323    1294.4117    6696.3321    2.2194299   0.28239154  0.090047204 
   57300   -952.42245    39.031797   -913.39065    1397.9774   -11955.304    2.1643961   0.18358762   0.10439243 
   57400   -953.54753    39.344737    -914.2028    1409.1858   -15269.337    2.1566352   0.33737448   0.10308349 
   57500   -956.24512    37.486792   -918.75833    1342.6409    3786.4287    2.2114832  0.056450275  0.097056518 
   57600   -954.41196    41.382085   -913.02988    1482.1562    15952.162    2.2352052  0.014376665   0.11051222 
   57700   -955.60402    42.875993   -912.72803    1535.6626    3432.8528    2.2053397  0.034609042   0.10379116 
   57800   -954.50628    36.018833   -918.48745     1290.064   -7919.3188    2.1799345   0.24578115   0.11101873 
   57900   -953.28714    39.766423   -913.52072     1424.289    -6874.837    2.1744984   0.18148018   0.11981987 
   58000   -953.15752    41.662161   -911.49536    1492.1875    1492.9237    2.1968355  0.027271795   0.10263943 
   58100     -958.435    41.279862   -917.15514    1478.4949    6246.3695    2.2205729  0.080617204   0.09667729 
   58200   -952.00378    37.931913   -914.07187    1358.5836    1032.2242    2.1969422  0.067462673   0.11032412 
   58300   -953.95956    42.678306   -911.28126    1528.5821   -9576.0925    2.1696662   0.77410729  0.093088508 
   58400   -955.60231    36.970298   -918.63201     1324.142   -4352.7695    2.1907486 0.0042234273   0.10489858 
   58500   -953.15953    38.735985   -914.42355    1387.3825    6389.6159    2.2061487   0.12506168  0.093475369 
   58600    -954.3115    43.318293    -910.9932    1551.5042    7119.8911    2.2076309   0.14500289  0.090787343 
   58700   -959.61111    40.529658   -919.08145    1451.6254   -220.01973    2.2046649    0.2368208  0.094092252 
   58800    -955.3931    40.156625   -915.23648    1438.2647   -8111.2147    2.1760584  0.046295002    0.1010514 
   58900   -952.07605    39.439564   -912.63649    1412.5822   -4650.5267    2.1765172   0.04184896   0.11102136 
   59000   -955.02972      35.0031   -920.02662    1253.6841    6937.2103     2.216638  0.092623614   0.10040371 
   59100    -954.6593    39.680448   -914.97885    1421.2097     8716.121    2.2195013  0.040261372   0.10634041 
   59200    -957.5547    44.281479   -913.27322     1586.002   -1297.4583    2.1962431   0.24415123  0.098027237 
   59300   -958.58973    38.896859   -919.69287    1393.1444   -11917.771     2.177188   0.15304092   0.10650856 
   59400   -952.84835    37.904969   -914.94338    1357.6185   -8996.7798    2.1740847   0.08513484   0.11215472 
   59500   -955.55414    43.077847    -912.4763    1542.8923    4466.8079    2.2139903 0.0070801795  0.096190051 
   59600   -954.30634    37.951968   -916.35437    1359.3019    21156.121    2.2500178   0.18601301   0.09937864 
   59700    -954.4106    37.311266   -917.09933    1336.3543    2834.4142    2.2053191   0.10790968  0.096673478 
   59800    -951.5488     40.34626   -911.20254    1445.0567   -18978.371    2.1412819  0.031603749     0.120419 
   59900   -956.31574    38.094395   -918.22135    1364.4031   -8842.1483    2.1784138   0.07365865  0.097335305 
   60000    -955.0668    38.675889   -916.39091    1385.2301    3291.3291    2.2126842   0.04636223   0.10553466 
   60100   -953.27634    42.611753   -910.66459    1526.1985    5552.6366    2.2093617  0.074549138   0.10656265 
   60200   -954.69409    36.880264   -917.81382    1320.9173    1439.9536    2.2039417  0.089944733   0.10806411 
   60300     -954.754    37.973488   -916.78051    1360.0726   -8105.9729    2.1817675  0.081408426   0.11588873 
   60400   -952.19878    40.307997   -911.89078    1443.6863   -7169.7214    2.1767611    0.1091006   0.11653377 
   60500   -956.53712    37.580081   -918.95704    1345.9822    3736.4625    2.2124191  0.070155095   0.10764549 
   60600   -955.69893    39.748053   -915.95087    1423.6311    7801.0615    2.2183963  0.086466962   0.09329357 
   60700   -952.00613     39.80009   -912.20604    1425.4949     1402.435    2.1950002   0.15589225   0.10971105 
   60800   -956.25545    37.231505   -919.02394    1333.4975   -6442.8786    2.1873814  0.012695305  0.087627165 
   60900      -952.38    36.197246   -916.18275    1296.4541   -5750.3492    2.1846776  0.088007703   0.10151926 
   61000   -951.11865    39.236208   -911.88244    1405.2987    5293.6028    2.2033652   0.27032758  0.098266202 
   61100   -957.62317    39.666924   -917.95625    1420.7253    8294.7122    2.2239875  0.011404665  0.090879903 
   61200   -956.05038    40.069948   -915.98043    1435.1602    2070.7055    2.2060497  0.043413131   0.10575686 
   61300   -953.66681    41.716224   -911.95058    1494.1239   -9021.6665    2.1743779    0.1124202  0.099823456 
   61400   -958.10539    39.593455   -918.51194     1418.094    -6151.643    2.1886926  0.046865944    0.1107056 
   61500    -951.9047    36.910667   -914.99403    1322.0062    6132.7961    2.2080718   0.12392327   0.10586975 
   61600   -952.17042    41.416691   -910.75373    1483.3957    8082.3682    2.2111842  0.095850014   0.10867498 
   61700   -955.12089    37.148895     -917.972    1330.5387      4314.11    2.2076916  0.041296225   0.10168689 
   61800   -954.91047    39.786494   -915.12398    1425.0079    -8750.244     2.175266    0.0654564   0.10471897 
   61900   -953.19506    41.657236   -911.53782    1492.0111   -11211.271    2.1656088  0.041439879   0.10805699 
   62000   -957.51943    38.416683   -919.10275    1375.9463     3394.842    2.2128687    0.1844777  0.097451914 
   62100    -956.9796    42.333178   -914.64642    1516.2209    13708.591    2.2358524   0.11788672   0.10097533 
   62200   -952.95752    41.036182   -911.92134    1469.7672    3694.5871    2.2038639     0.155348  0.094788911 
   62300   -953.48774    34.780794   -918.70695    1245.7219   -14830.462    2.1615771  0.015890824   0.11074756 
   62400   -953.64813    37.510246   -916.13788     1343.481    -15746.69    2.1580437  0.046146071   0.11759646 
   62500   -952.32135    40.808915   -911.51243    1461.6273    4848.5002     2.203384  0.072622132   0.11180486 
   62600   -955.37201    37.870769   -917.50124    1356.3936    9773.1598    2.2234123  0.043701756   0.10658326 
   62700   -954.81381    37.511333   -917.30247    1343.5199    2164.9737    2.2031082  0.049289139   0.10236155 
   62800    -949.0261    37.375703    -911.6504    1338.6622   -3839.5279    2.1750171   0.24559358   0.11769135 
   62900   -955.07991    37.077095   -918.00281    1327.9671   -3444.6099     2.187553  0.085545156  0.096408578 
   63000   -955.74006    39.817815   -915.92224    1426.1297    2489.1643    2.2033985  0.058670232  0.096326129 
   63100   -953.97166     43.47347   -910.49819     1557.062    3932.4923    2.2018621   0.10217988  0.097099397 
   63200   -953.24856    35.664663    -917.5839    1277.3789    1435.7194    2.2004075    0.2211966   0.10001971 
   63300   -954.49631    38.783146   -915.71316    1389.0717   -5178.0764    2.1802585  0.013756451  0.091704476 
   63400   -950.97967      39.9612   -911.01847    1431.2653   -4456.0396    2.1753716   0.11666121  0.099049426 
   63500   -955.18848    36.696686    -918.4918    1314.3422    3813.1804    2.2097009   0.14774608  0.094344366 
   63600   -955.09542    39.965764   -915.12966    1431.4287    7689.9255    2.2115754  0.033975463  0.099886337 
   63700   -951.84445    40.118647   -911.72581    1436.9045   -471.82476    2.1883937  0.047384572   0.12462504 
   63800   -954.02218    34.634421   -919.38775    1240.4794   -5035.5068    2.1840264   0.16037996    0.1046589 
   63900   -952.43342     37.63319   -914.80023    1347.8844   -4974.3554     2.178841   0.68295525   0.10735652 
   64000   -951.75632    40.026621   -911.72969    1433.6084    3850.8814    2.2016605   0.37103059   0.10295553 
   64100   -954.63813    37.025741   -917.61239    1326.1278    9167.9869    2.2220336    1.2277919   0.10606262 
   64200   -953.29474    37.851253   -915.44349    1355.6946     1392.594    2.1990678   0.73775047   0.10855066 
   64300   -953.34065     41.82495    -911.5157     1498.018   -9877.1081    2.1665353   0.34444945   0.11109651 
   64400   -953.62748    36.496536   -917.13095    1307.1736    -9608.687    2.1730146   0.33640584  0.097545383 
   64500    -953.2563    36.653992    -916.6023    1312.8131    4263.9651    2.2061475  0.060667559  0.096652348 
   64600   -952.64387    43.330113   -909.31376    1551.9275    13376.336    2.2230775  0.029125145  0.087567726 
   64700   -956.13895    40.253852    -915.8851     1441.747    4793.5079    2.2128852   0.11381259  0.091320732 
   64800   -952.52375    34.714415   -917.80934    1243.3444   -7967.1615    2.1782547  0.095438968   0.10290895 
   64900   -950.11148    39.454254   -910.65723    1413.1083   -9795.6243    2.1645548  0.080160829    0.1207341 
   65000   -955.38177     38.60187    -916.7799     1382.579    1217.5242    2.2031736   0.14218688  0.092336939 
   65100   -955.83708    38.711935   -917.12515    1386.5211    6693.1584    2.2136692  0.059962552   0.10459583 
   65200   -950.45389    38.910015   -911.54388    1393.6156    3253.0459    2.1939004  0.066219627  0.099672781 
   65300    -954.1688    37.533776   -916.63502    1344.3238   -3407.8738    2.1897014  0.038871581  0.095809471 
   65400    -957.0259    38.779854   -918.24605    1388.9537    -4697.423    2.1909747  0.061756124  0.090130117 
   65500   -953.61504     41.14059   -912.47445    1473.5067   -277.17435    2.1946636  0.077503814  0.091334721 
   65600   -954.20596    36.769407   -917.43655    1316.9468    5241.0351    2.2111704   0.12623947  0.087299347 
   65700   -955.51991     36.92021    -918.5997     1322.348    2378.0005    2.2051786  0.088243295  0.081347187 
   65800   -951.77617    38.905807   -912.87037    1393.4649   -3270.6689    2.1830825  0.068830573    0.1028134 
   65900   -956.17225    38.907627   -917.26462    1393.5301   -4039.2364    2.1892976   0.10033076  0.082819917 
   66000   -956.68989    37.817672   -918.87222    1354.4919    2386.7191    2.2080729  0.079268909  0.087495581 
   66100   -954.82138    42.927794   -911.89359    1537.5179    4204.2022    2.2058803 0.0091385147   0.10311808 
   66200   -956.72046    40.269494   -916.45096    1442.3072    1291.7141     2.201253  0.025281358  0.096667446 
   66300   -957.48129    38.347888    -919.1334    1373.4823   -8534.2333    2.1824516  0.020479094   0.10323544 
   66400   -951.55475    40.332407   -911.22234    1444.5605   -8672.0526    2.1677466  0.038213422   0.10130063 
   66500   -954.42993    38.653571   -915.77636    1384.4307    6102.6502     2.211864    0.1057983  0.086982879 
   66600   -958.98646    42.253458     -916.733    1513.3656    11578.491     2.233673  0.034552189  0.083924054 
   66700   -949.00495    39.097458    -909.9075    1400.3291    1573.1262    2.1911576  0.015300943  0.096112851 
   66800     -954.793    39.590499    -915.2025    1417.9881   -9309.0155    2.1702407   0.20214485  0.087814808 
   66900    -955.6792    38.238175   -917.44102    1369.5528   -7745.8808    2.1817164   0.10456148  0.091618118 
   67000     -951.143     40.17847   -910.96453    1439.0471    4335.6153    2.2009481  0.069315087    0.1050985 
   67100   -954.14067    38.750876   -915.38979    1387.9158    6827.8019    2.2139386  0.088386858  0.099433097 
   67200   -951.10277    33.180933   -917.92184    1188.4207    1882.0566    2.2014113  0.013108462   0.11825724 
   67300   -954.19625    41.143754   -913.05249    1473.6201   -6477.1591    2.1813962  0.029571717   0.11302149 
   67400   -952.80004     38.19814    -914.6019    1368.1188   -1675.4634    2.1885246   0.17403183   0.11696984 
   67500   -957.87334    38.486218   -919.38713    1378.4368    3002.1829    2.2113162   0.19019874   0.10304687 
   67600   -951.42418    38.293356   -913.13082    1371.5291    5601.9553     2.207069  0.014321052   0.10695991 
   67700   -954.48679    39.244215   -915.24258    1405.5855   -921.98016    2.1970112   0.10902009  0.097371305 
   67800   -957.20158    36.285276   -920.91631     1299.607   -3431.8902    2.1972776  0.064375042  0.089590406 
   67900   -952.10796    38.513423   -913.59454    1379.4111   -3293.0046    2.1859003   0.04957141   0.10240686 
   68000   -955.41975    40.691264   -914.72849    1457.4135    753.65282    2.2040037  0.066728658  0.096615477 
   68100   -957.74036     37.88313   -919.85723    1356.8363    6671.1767    2.2211185   0.19795282  0.097850452 
   68200   -951.84356    39.863575   -911.97999    1427.7687    758.81739    2.1925729  0.017642374   0.10325703 
   68300   -954.65475    40.110941   -914.54381    1436.6284   -9274.5843    2.1772212  0.059704766   0.10866149 
   68400    -954.6221    35.711309   -918.91079    1279.0496   -5969.9593    2.1841317  0.077496917    0.1047056 
   68500   -955.12048    42.470412   -912.65006    1521.1361    7241.3874    2.2165907  0.067797567   0.11349186 
   68600   -955.97116    43.897215   -912.07395     1572.239     14938.81    2.2337585  0.036392065   0.10731915 
   68700   -956.81039    38.879594    -917.9308    1392.5261   -1991.0532    2.1986773   0.16764693  0.097858437 
   68800   -953.18039    39.642245   -913.53815    1419.8414   -13263.396    2.1610823  0.016313345   0.10411227 
   68900   -950.76002    39.460233   -911.29978    1413.3224    -5953.795    2.1740666  0.020408465  0.099781553 
   69000   -955.42087    37.286814   -918.13405    1335.4784    6916.1705     2.219871  0.063983293  0.087665968 
   69100    -953.4729    39.765713   -913.70718    1424.2636    8589.5547    2.2161758  0.033892768   0.09171374 
   69200   -951.60183    39.060583   -912.54125    1399.0084   -764.36438    2.1884161  0.017613408  0.090107953 
   69300   -954.83872    35.080384   -919.75834    1256.4521   -4046.9459    2.1891991  0.040583016  0.097963673 
   69400   -954.95858    40.372274    -914.5863    1445.9884   -3041.2698    2.1878439   0.14610866  0.098397111 
   69500    -949.8426    37.327705    -912.5149     1336.943    6440.2153     2.202157  0.022698383   0.10690361 
   69600   -954.49038    34.771183    -919.7192    1245.3777    7919.0265    2.2206629   0.10643655   0.10188342 
   69700    -954.8718    40.876136   -913.99566     1464.035    -1134.343    2.1928492  0.019382868   0.11633745 
   69800   -954.96941    40.927031   -914.04238    1465.8578   -8766.0653    2.1790009  0.083779984   0.11498259 
   69900   -955.10085     35.27146   -919.82939    1263.2958   -882.47011    2.1979812  0.028678058   0.10602552 
   70000   -954.91165    40.802557   -914.10909    1461.3996    4820.7242    2.2098831  0.042791828   0.10627909 
   70100   -952.41563    39.564428    -912.8512    1417.0543    9041.6193    2.2155904  0.046125076   0.10669938 
   70200   -957.96264    39.445238    -918.5174    1412.7854   -3958.3049    2.1947497  0.041519454  0.086130229 
   70300   -950.79818    38.159032   -912.63914    1366.7181   -13214.015    2.1542261  0.023784822   0.10843448 
   70400   -950.61719    38.392694    -912.2245    1375.0871   -3254.0909    2.1768113   0.20860146   0.10307789 
   70500   -953.35553    37.182388   -916.17314    1331.7383    15448.623    2.2316494  0.026935005  0.088699826 
   70600    -953.7919    38.203518   -915.58838    1368.3115    13823.089    2.2302233    0.0330882  0.094742624 
   70700   -949.39896    39.686176   -909.71278    1421.4149   -4190.7709    2.1732234   0.01294459   0.10137595 
   70800   -954.58241    36.993271   -917.58914    1324.9648   -7929.9666    2.1772187   0.25651516   0.10621797 
   70900    -953.9741    37.820943   -916.15316     1354.609   -1539.1186    2.1916772  0.061338024   0.10944283 
[...]
  186800   -954.77062    39.327944   -915.44268    1408.5843   -6796.4202    2.1811007    0.0410102   0.11649112 
  186900   -953.47447    36.072798   -917.40168    1291.9968    6539.4172    2.2138489   0.12732581  0.097546563 
  187000   -951.64482    42.227333   -909.41749    1512.4299    5907.3246    2.2080533   0.11730482   0.10566983 
  187100     -956.219     41.69571   -914.52329    1493.3891    13.058165    2.2023431   0.08334876   0.10487478 
  187200   -955.57549    37.896599   -917.67889    1357.3187   -5246.0097    2.1876598   0.11648938   0.10688457 
  187300   -948.38382    37.192348   -911.19147     1332.095   -1297.1909    2.1808403   0.15521536   0.11193992 
  187400   -954.79946    41.355406   -913.44405    1481.2007    885.39193    2.2013813  0.038299824  0.099639482 
  187500   -952.27331    35.021955   -917.25135    1254.3594    6059.3331    2.2098561  0.062310146  0.097772187 
  187600   -953.92798    40.479621   -913.44836    1449.8332   -802.12701    2.1953099   0.10058099  0.097824318 
  187700   -952.53645    40.650588   -911.88586    1455.9566   -4388.5823    2.1799322  0.090189844   0.12097618 
  187800   -954.88422    35.649832   -919.23439    1276.8477    135.20364    2.2005666  0.047701697   0.10478529 
  187900   -954.15033    39.575762   -914.57457    1417.4603    4558.2191    2.2044254   0.21400536   0.10430968 
  188000   -954.13388    41.352163   -912.78172    1481.0845    2334.7599     2.199022   0.08467697  0.093816452 
  188100   -960.08339    39.039635   -921.04375    1398.2581   -3379.4165    2.2027208  0.026495094  0.091471825 
  188200   -952.40861    36.281078   -916.12753    1299.4566   -4754.5363    2.1825784  0.055591489   0.11268081 
  188300    -951.1976    37.644639   -913.55296    1348.2945   -1003.4525    2.1877046   0.13022125   0.10944742 
  188400   -958.42324    38.990922   -919.43231    1396.5134    8300.8809    2.2281166  0.032430062   0.09438065 
  188500   -956.03005    38.219487   -917.81056    1368.8834    13047.292    2.2314663  0.082223723  0.093857626 
  188600   -951.53847    38.171086   -913.36739    1367.1499   -5635.8995    2.1750945   0.11135932     0.107126 
  188700   -950.47234     33.81857   -916.65377    1211.2585   -14726.461    2.1529442   0.08462658    0.1232076 
  188800    -958.1983    39.661027   -918.53728    1420.5141   -4752.3272    2.1923751   0.12430207   0.09682432 
  188900   -951.56744    40.915117   -910.65232    1465.4311     9758.787    2.2124417   0.14116008   0.10656902 
  189000   -955.28403    40.529354   -914.75468    1451.6145    6832.3232    2.2153646   0.14659698   0.11188813 
  189100   -959.45477    41.169505   -918.28526    1474.5424    -5709.995    2.1910307  0.018648503   0.10865056 
  189200   -950.81349    40.404377   -910.40912    1447.1382   -10103.422    2.1649458  0.062503949   0.12806088 
  189300   -953.67882    39.723661   -913.95516    1422.7575   -122.31893    2.1932973   0.19497878   0.10637515 
  189400   -953.40066    36.813074   -916.58758    1318.5108    8931.1589    2.2160872   0.17772584   0.09903416 
  189500   -955.50479    43.117816   -912.38697    1544.3238    1505.7512     2.202661  0.065955506  0.097459664 
  189600   -954.82257    42.688651   -912.13392    1528.9527   -6480.5372    2.1758077   0.13676252   0.10620572 
  189700   -955.05408    36.780934   -918.27315    1317.3597   -6230.9544    2.1809676   0.11031899  0.099001311 
  189800   -951.45531    37.418537   -914.03677    1340.1963    2921.3125    2.1987859   0.16698515   0.11091738 
  189900   -952.35814    40.950438    -911.4077    1466.6962    8085.6795    2.2113873   0.22870898  0.099020657 
  190000   -958.26916    38.865913   -919.40324     1392.036    3403.5559    2.2143861  0.014443545  0.099295319 
  190100   -952.37691     37.13981    -915.2371    1330.2133   -5253.7481    2.1814214    0.2245635   0.12983403 
  190200   -952.13492    38.941165   -913.19376    1394.7313   -6673.7989    2.1752968   0.25949635   0.11844705 
  190300    -958.1499    37.365851   -920.78405    1338.3093    1773.7316    2.2099752   0.10068395   0.10295234 
  190400   -952.82633    37.464798   -915.36154    1341.8532    8280.9642      2.21374   0.11658387   0.10181085 
  190500   -956.12833    42.718816   -913.40951    1530.0331    639.28519    2.2027463   0.11891725   0.10353044 
  190600    -955.4824    36.049886   -919.43252    1291.1762   -3095.5219    2.1930053   0.22074846   0.10379344 
  190700   -953.39622    37.412504   -915.98372    1339.9802   -3326.8588    2.1884266   0.17302226   0.09907212 
  190800   -951.43618    38.864253   -912.57193    1391.9766    396.90359    2.1932746   0.17800522   0.10120302 
  190900   -956.14607    38.386177   -917.75989    1374.8536    175.83725     2.204963  0.059371933   0.10623043 
  191000     -955.354    38.736151   -916.61784    1387.3884    659.58715    2.2018401    0.2552968   0.10619868 
  191100   -952.91926    41.688276   -911.23099    1493.1229   -2663.0049    2.1859309   0.13604251   0.10684367 
  191200    -957.9983    40.855189   -917.14311    1463.2847   -3955.0404    2.1957179    0.1211773   0.10002674 
  191300   -954.52963     38.34376   -916.18587    1373.3344    55.656361    2.1985097   0.20991767   0.11015418 
  191400   -952.33899    42.510035   -909.82895    1522.5553   -1343.0725    2.1882469  0.040500927   0.11628764 
  191500   -955.18335    38.012608   -917.17074    1361.4738    1564.1929    2.2051331 0.0039345797   0.10092094 
  191600   -954.91068    39.166155   -915.74452    1402.7896    1005.0818    2.1992295  0.091965708   0.10613541 
  191700   -949.92182     39.73125   -910.19057    1423.0293   -595.43013     2.185351   0.24139075   0.11324269 
  191800   -957.58249    39.248986    -918.3335    1405.7563   -1427.5822    2.2000264  0.046514053  0.097611514 
  191900   -954.41129    38.533613   -915.87768    1380.1343    2303.7805     2.200876  0.099192041   0.10381331 
  192000   -951.63401    40.277898   -911.35611    1442.6082    2049.8604    2.1960377  0.079435271   0.11637151 
  192100    -955.6345    36.494116   -919.14039    1307.0869    501.26688    2.2060298   0.26110459   0.10686738 
  192200   -954.64683    38.296538   -916.35029    1371.6431   -3598.4121    2.1899117   0.31058838    0.1202947 
  192300   -950.07519    38.857379   -911.21781    1391.7304   -4068.7352    2.1809036   0.53824503   0.12779594 
  192400   -954.93897    37.490912   -917.44806    1342.7885    1664.5581    2.2037193  0.070772471   0.10825192 
  192500   -955.95446    38.046344   -917.90812    1362.6821    1872.6419    2.2093126   0.17990288   0.11537738 
  192600    -953.3287    41.365146   -911.96356    1481.5495   -271.38523    2.1955232   0.11156803   0.11894758 
  192700   -951.54221     34.18072   -917.36149    1224.2294     -1928.58     2.192529  0.068373649   0.12463065 
  192800   -956.43053    38.151054   -918.27948    1366.4324   -4033.5291    2.1910731  0.047550044  0.098181085 
  192900    -952.3913    40.479725   -911.91157     1449.837    980.75579    2.1921392  0.012449878   0.09653849 
  193000   -955.51868    38.297837   -917.22085    1371.6896    6465.5514    2.2149315  0.091869701  0.091384854 
  193100   -957.08165     38.94992   -918.13173    1395.0449    2137.5751    2.2114446  0.054071609  0.094307323 
  193200   -954.51206    43.025265   -911.48679     1541.009   -6756.7037    2.1765341   0.18685287   0.11750352 
  193300   -956.00528    38.548411   -917.45687    1380.6643   -8473.6089    2.1822426  0.015723137   0.10681858 
  193400   -954.39923    37.700914   -916.69831      1350.31    2305.1506    2.2041147  0.039136467  0.096228668 
  193500   -953.43693    43.570275   -909.86665    1560.5292    9248.9629    2.2116864   0.11265849   0.10833539 
  193600   -955.81054    39.145192   -916.66535    1402.0388    3992.9387    2.2106445   0.05432677   0.10589119 
  193700   -953.32429    36.105843   -917.21845    1293.1803   -6921.6898    2.1811638   0.12189376   0.11804534 
  193800   -949.31773    38.483208   -910.83452     1378.329   -10988.961    2.1643173  0.036581438   0.12951976 
  193900   -954.45223    36.348955   -918.10328    1301.8877    4128.5231    2.2105201   0.11497161    0.1078004 
  194000   -953.37133    36.964088   -916.40724    1323.9196    12460.236    2.2301761  0.086476968   0.11101703 
  194100   -954.73301    43.355449   -911.37756    1552.8349    2811.2585    2.2058394  0.070915257   0.10949227 
  194200   -954.94486    37.459641   -917.48522    1341.6685   -6927.5168    2.1847709   0.40440583   0.10211208 
  194300   -953.41676    35.705169   -917.71159    1278.8297   -6571.6062     2.183473  0.034879461   0.10920078 
  194400   -950.71565    38.999309   -911.71634    1396.8138    1086.5991    2.1942369  0.050785487   0.10517659 
  194500   -957.53866    39.668796   -917.86986    1420.7924    2344.4211    2.2119321   0.17122923    0.0928826 
  194600   -956.92473    39.816888   -917.10784    1426.0965    1052.9014    2.2045366   0.14954017  0.094248604 
  194700   -953.26272    41.302712   -911.96001    1479.3134   -3249.2346    2.1839717  0.088176779  0.099201697 
  194800   -954.72866     36.24066     -918.488     1298.009   -2008.6044    2.1943139  0.035242697   0.12047007 
  194900   -955.07925    38.921537   -916.15771    1394.0283    1067.2849    2.1984211   0.16028109   0.10776541 
  195000   -952.39945    40.763277   -911.63617    1459.9927    749.99093    2.1955999   0.11210649    0.1106995 
  195100   -952.24564    34.023487   -918.22215    1218.5979    4614.9172    2.2043244  0.016062218   0.11369891 
  195200   -953.08654    37.746438    -915.3401    1351.9405   -2100.8483    2.1909791  0.082314206  0.098245011 
  195300   -955.59015    43.670567   -911.91959    1564.1213     -6008.25    2.1806177  0.076015676    0.1080983 
  195400   -956.44797    37.687497   -918.76048    1349.8295   -438.99724    2.2032171   0.16790145    0.1052228 
  195500   -955.21785    40.706651    -914.5112    1457.9646    6326.4781    2.2120076  0.027902485  0.091310502 
  195600   -953.79267    41.964613   -911.82805    1503.0203    2399.6639     2.201167   0.27973733  0.096516948 
  195700   -954.49772    35.415177   -919.08254    1268.4432   -5744.3109     2.188893  0.042507652   0.10397847 
  195800   -954.45671    39.741126   -914.71559     1423.383   -7518.2636    2.1762259   0.29604449  0.095271127 
  195900   -949.76409    38.100363   -911.66372    1364.6168    992.97266    2.1950793   0.21061379    0.1115364 
  196000   -956.10147    37.611262   -918.49021     1347.099    13160.417    2.2343519  0.081014284   0.11031059 
  196100   -953.45555     39.19865    -914.2569    1403.9535    6055.0063    2.2110191  0.016345319   0.11691938 
  196200   -955.20497    41.986811   -913.21816    1503.8153   -9239.1833     2.173544  0.075663266   0.10980073 
  196300   -956.75779    36.929807   -919.82798    1322.6918   -9269.5434    2.1823169  0.070070944    0.1009336 
  196400   -956.07589    41.330478   -914.74541    1480.3078    86.530894    2.1999007  0.087923854  0.090338691 
  196500   -952.50236    40.544982   -911.95738    1452.1742    9304.4707    2.2146278   0.41647579   0.10030889 
  196600   -955.14829    36.272122   -918.87617    1299.1359    3841.5413     2.211689  0.049207151   0.10245576 
  196700   -952.91582    39.214472   -913.70135    1404.5202   -4776.2707    2.1827201   0.37448936  0.099028594 
  196800   -951.99979    39.297951   -912.70184    1407.5101   -2613.4705    2.1835113  0.046067392    0.0883817 
  196900   -954.53874    36.141248    -918.3975    1294.4484    2628.3367    2.2073161  0.045450753  0.093622222 
  197000   -953.10881     40.20631   -912.90251    1440.0442    2423.6788    2.2040553   0.15006885   0.10668356 
  197100   -953.54663    40.769521   -912.77711    1460.2164    569.22827    2.1966351  0.067130181   0.10977701 
  197200   -957.86627    39.262377    -918.6039     1406.236   -3124.7942    2.1980066 0.0050138269   0.10657313 
  197300   -954.92721    41.841217     -913.086    1498.6006   -3712.6094    2.1910838    0.1200582    0.1115474 
  197400   -952.19711    39.510831   -912.68628    1415.1347    2205.3754    2.1992808    0.1286076  0.097711436 
  197500   -955.76467    37.156367    -918.6083    1330.8063    3791.1186    2.2105802    0.4082877  0.093477323 
  197600   -950.96472    38.025972   -912.93874    1361.9524    1084.6173    2.1953346  0.074172694    0.1093931 
  197700   -951.45853    37.782495   -913.67603    1353.2319   -1037.6172    2.1893056   0.11326171  0.094139753 
  197800   -955.57308    36.217054   -919.35603    1297.1635     514.8739    2.2022888   0.22604692   0.09788825 
  197900   -953.95425    40.904438   -913.04981    1465.0486    2189.8899     2.204892  0.068502771   0.10151743 
  198000   -956.18267    41.755646   -914.42702    1495.5358    4548.7529     2.213751  0.076412882  0.089151112 
  198100    -957.9022    37.993959   -919.90824    1360.8058   -2153.2995    2.2014592  0.081199594   0.10050771 
  198200    -952.4678    39.265719   -913.20208    1406.3556   -12407.637    2.1669479    0.1487668   0.10878447 
  198300   -954.55596    40.179756    -914.3762    1439.0931   -4819.0473    2.1848693    0.1266863   0.10319501 
  198400   -955.41906    36.731527   -918.68753    1315.5901    10134.964    2.2270225  0.047402625   0.11090335 
  198500   -951.89732    40.576703   -911.32062    1453.3104     8764.857     2.214305  0.029801046   0.11294933 
  198600    -952.6054    38.212158   -914.39324    1368.6209   -1992.6425    2.1907509   0.12835492   0.10871947 
  198700   -957.10334    37.955807   -919.14754    1359.4393    -9983.623    2.1784622  0.027489037  0.096679907 
  198800   -953.72279    41.440456   -912.28234    1484.2469   -5606.6305    2.1818878  0.075778172   0.10234553 
  198900   -955.96881    42.317598   -913.65121    1515.6629    5714.8237    2.2136859  0.006648247  0.096426979 
  199000    -954.2419    36.361349   -917.88056    1302.3316     8175.126    2.2203241   0.17142159    0.1030254 
  199100   -952.28702    40.070456   -912.21656    1435.1784   -1872.0462     2.188033  0.018924739   0.10898702 
  199200   -950.10857    36.267464    -913.8411     1298.969   -6907.7951    2.1777248   0.11744237   0.10143244 
  199300   -957.56721    39.020229   -918.54698    1397.5631   -3315.5011    2.1954843   0.25582195  0.096519005 
  199400   -954.26218    42.110842   -912.15134    1508.2576    4332.8391     2.205457  0.065369212   0.11446458 
  199500   -955.59878    40.723072    -914.8757    1458.5528    4252.6504    2.2084698  0.063330182    0.1004625 
  199600   -957.82201     38.50914   -919.31287    1379.2577   -1581.3757    2.1976357    0.2199116  0.093645312 
  199700   -952.50603    39.387514   -913.11851    1410.7179   -5339.3852    2.1815439  0.096793129   0.10530375 
  199800   -954.29621    39.190655   -915.10556    1403.6671   -1818.3318    2.1932797   0.15790514  0.098877732 
  199900   -954.62107    35.254786   -919.36628    1262.6986     5706.034    2.2110452  0.089400752   0.10050803 
  200000   -954.07673    41.868189   -912.20854    1499.5667    220.97264    2.1950231   0.14254624  0.095140813 
  200100   -955.25739    39.520646   -915.73675    1415.4862    -2597.909    2.1934277   0.21668757   0.10423217 
  200200   -956.43028    37.010775    -919.4195    1325.5917   -928.61442    2.1995631  0.051497665  0.090612492 
  200300    -953.6923    41.902787   -911.78951    1500.8059   -1781.3688    2.1898969   0.21052975   0.10275846 
  200400   -954.87478    39.186778     -915.688    1403.5283     1453.445    2.1993637   0.12680379   0.10593111 
  200500    -957.7457    38.982007   -918.76369    1396.1941   -407.88126    2.2032773  0.075521001  0.097203357 
  200600   -950.94728    40.022537   -910.92474    1433.4621   -1534.1397    2.1848041  0.087030245   0.11209268 
  200700   -954.51079    38.388675   -916.12211    1374.9431   -507.41102    2.1959744  0.081896432   0.10691544 
  200800   -955.08202    37.403563   -917.67846      1339.66    824.54969    2.2036235  0.010395359   0.10788099 
  200900    -947.8902    37.478291    -910.4119    1342.3365    3159.9917    2.1905361   0.25382419   0.12010292 
  201000   -950.27341    33.754232   -916.51917    1208.9542    3981.3821    2.2004009   0.14335929   0.10947678 
  201100   -956.15042    38.954077   -917.19634    1395.1938   -1392.1114    2.1979379    0.1392919   0.11186624 
  201200   -950.90828    40.108699   -910.79959    1436.5481   -2290.1823    2.1866145   0.21582444   0.10596112 
  201300   -954.92056    37.359055   -917.56151    1338.0659    2045.7096    2.2035407  0.023674581   0.10300485 
  201400    -956.0146    38.978499    -917.0361    1396.0685   -91.504539    2.2026072   0.12316906   0.10437332 
  201500   -949.39446    37.731607   -911.66286    1351.4093    467.06535    2.1889068   0.16305384   0.11240561 
  201600   -953.76102    35.489605   -918.27142    1271.1089   -1198.2021    2.1980209  0.022767551   0.12394766 
  201700   -953.88696    36.252921   -917.63404    1298.4482   -896.66278    2.1958155   0.14394145    0.1074774 
  201800   -952.81348    40.569266   -912.24421     1453.044    831.22116    2.1956181  0.076493581   0.10855941 
  201900   -957.91865    39.696266   -918.22238    1421.7763    141.52572    2.2045811   0.10162885  0.093030972 
  202000   -955.84994    37.949453   -917.90049    1359.2118   -1357.5773    2.1960516    0.2295929   0.09877662 
  202100   -951.87551    39.259881   -912.61563    1406.1466    -3047.756    2.1836951    0.0264471   0.10868567 
  202200    -956.3122    38.201438   -918.11076     1368.237   -651.82698     2.198857   0.14246998  0.094701435 
  202300   -952.84124     35.36683   -917.47441    1266.7116    4094.1397    2.2082151  0.039236028   0.10325958 
  202400   -948.56176    36.873583   -911.68818     1320.678    3140.8646    2.1963289  0.058990464   0.10005548 
  202500   -953.82961    36.199188   -917.63042    1296.5236    -1185.759    2.1929931   0.25842648   0.09406471 
  202600    -953.6791    37.481191   -916.19791    1342.4404    -4154.757    2.1877457   0.20537431   0.10292745 
  202700   -954.93012    44.009653   -910.92047    1576.2662   -2916.4971    2.1883207  0.048586898  0.096849776 
  202800    -955.6556    38.332897   -917.32271    1372.9454    7208.1563    2.2152731  0.033185743  0.091805321 
  202900   -956.81343    40.932623   -915.88081    1466.0581    2964.7696    2.2096141  0.013575957  0.091113653 
  203000   -951.53743    40.549312   -910.98812    1452.3293   -5820.2007    2.1746028   0.10835934   0.11670888 
  203100   -959.46883    40.686454   -918.78238    1457.2412    -9556.245    2.1809546   0.15543222  0.081214575 
  203200   -950.62615    34.901671   -915.72448    1250.0513    3135.8955    2.1974035  0.022960805  0.097669538 
Loop time of 144.943 on 1 procs for 200000 steps with 217 atoms

Performance: 357.658 ns/day, 0.067 hours/ns, 1379.853 timesteps/s
100.0% CPU use with 1 MPI tasks x no OpenMP threads

MPI task timing breakdown:
Section |  min time  |  avg time  |  max time  |%varavg| %total
---------------------------------------------------------------
Pair    | 141.62     | 141.62     | 141.62     |   0.0 | 97.71
Neigh   | 0.23383    | 0.23383    | 0.23383    |   0.0 |  0.16
Comm    | 0.85248    | 0.85248    | 0.85248    |   0.0 |  0.59
Output  | 0.069179   | 0.069179   | 0.069179   |   0.0 |  0.05
Modify  | 1.8628     | 1.8628     | 1.8628     |   0.0 |  1.29
Other   |            | 0.305      |            |       |  0.21

Nlocal:    217 ave 217 max 217 min
Histogram: 1 0 0 0 0 0 0 0 0 0
Nghost:    957 ave 957 max 957 min
Histogram: 1 0 0 0 0 0 0 0 0 0
Neighs:    4250 ave 4250 max 4250 min
Histogram: 1 0 0 0 0 0 0 0 0 0
FullNghs:  8500 ave 8500 max 8500 min
Histogram: 1 0 0 0 0 0 0 0 0 0

Total # of neighbors = 8500
Ave neighs/atom = 39.1705
Neighbor list builds = 394
Dangerous builds = 1
Total wall time: 0:02:27
