LAMMPS (3 Mar 2020)

    # ---------- Initialize simulation ---------------------
    units metal
    atom_style atomic
    dimension  3
    boundary   p p p
    read_data /home/modeler/RemLabs/Lab4/Problem2A_size_3/temp_900/lammps.data
  orthogonal box = (0 0 0) to (12.27 12.27 12.27)
  1 by 1 by 1 MPI processor grid
  reading atoms ...
  108 atoms
  read_data CPU = 0.000960637 secs

    pair_style eam
    pair_coeff * * /usr/share/lammps-stable/potentials/Ag_u3.eam
Reading potential file /usr/share/lammps-stable/potentials/Ag_u3.eam with DATE: 2007-06-11

    velocity  all create 900 87287 dist gaussian

    # ---------- Describe computed properties------------------
    compute msdall all msd
    thermo_style custom step pe ke etotal temp press density c_msdall[4]
    thermo 100

    # ---------- Specify ensemble  ---------------------
    #fix  1 all nve
    fix  1 all nvt temp 900 900 0.05

    # --------- Compute RDF ---------------
    compute rdfall all rdf 100 1 1
    fix 2 all ave/time 1 2500 2500 c_rdfall[*] file /home/modeler/RemLabs/Lab4/Problem2A_size_3/temp_900/lammps.rdf mode vector

    # --------- Run -------------
    timestep 0.001
    run 10000
Neighbor list info ...
  update every 1 steps, delay 10 steps, check yes
  max neighbors/atom: 2000, page size: 100000
  master list distance cutoff = 7.55
  ghost atom cutoff = 7.55
  binsize = 3.775, bins = 4 4 4
  2 neighbor lists, perpetual/occasional/extra = 1 1 0
  (1) pair eam, perpetual
      attributes: half, newton on
      pair build: half/bin/atomonly/newton
      stencil: half/bin/3d/newton
      bin: standard
  (2) compute rdf, occasional, copy from (1)
      attributes: half, newton on
      pair build: copy
      stencil: none
      bin: none
Per MPI rank memory allocation (min/avg/max) = 3.723 | 3.723 | 3.723 Mbytes
Step PotEng KinEng TotEng Temp Press Density c_msdall[4] 
       0       -307.8    12.447752   -295.35225          900    7197.3534    10.472245            0 
     100     -299.957    7.6811894   -292.27581    555.36698    31061.099    10.472245  0.048495012 
     200   -297.61483     12.89864   -284.71619    932.60019    42640.612    10.472245     0.054487 
     300   -295.14507     15.94567    -279.1994    1152.9072    52673.361    10.472245  0.062245667 
     400   -295.82519    12.201566   -283.62362    882.20023    48032.895    10.472245  0.066671278 
     500   -297.12043    13.930674   -283.18975    1007.2186    45796.668    10.472245  0.051691536 
     600   -295.37981    10.795004    -284.5848    780.50263    48117.044    10.472245  0.066424368 
     700   -294.79255    13.471184   -281.32136    973.99642    52955.491    10.472245  0.065796091 
     800    -296.3916    12.821711   -283.56989    927.03809    46638.406    10.472245  0.055189089 
     900   -295.16253    10.778494   -284.38404    779.30896    49539.326    10.472245  0.063971558 
    1000   -294.66785    12.312112   -282.35574    890.19292    53030.902    10.472245  0.060539128 
    1100   -296.27673    12.034361   -284.24236    870.11095    47493.075    10.472245  0.059588657 
    1200   -297.02144    12.477642    -284.5438    902.16109    44759.836    10.472245  0.056972638 
    1300   -295.11387    12.703588   -282.41029    918.49749    51965.376    10.472245  0.062045921 
    1400   -295.85761     13.86227   -281.99534    1002.2728    49882.737    10.472245  0.058264787 
    1500   -295.90197    11.780515   -284.12146    851.75729     47847.91    10.472245  0.062095735 
    1600    -295.1691    12.992937   -282.17617    939.41808    51275.879    10.472245   0.06473973 
    1700   -292.66501    12.265311    -280.3997     886.8091    57944.371    10.472245  0.081758951 
    1800   -295.12275    12.251285   -282.87147    885.79498      50151.6    10.472245  0.071424046 
    1900   -296.66611    12.314818   -284.35129     890.3886    45090.141    10.472245  0.057653775 
    2000   -295.92147    14.557945   -281.36353    1052.5716    49717.883    10.472245  0.055316773 
    2100   -295.61916    12.288409   -283.33076    888.47913    48823.088    10.472245  0.072175315 
    2200   -295.94183    14.498066   -281.44376    1048.2423     48694.43    10.472245  0.071707463 
    2300   -295.57829    14.721782    -280.8565    1064.4174    50249.714    10.472245  0.065474791 
    2400   -295.77489    12.398327   -283.37657    896.42647    48785.007    10.472245  0.062195816 
    2500   -294.90446    12.043655    -282.8608     870.7829     50876.22    10.472245  0.064445593 
    2600   -294.14173    11.074726     -283.067    800.72716    54690.327    10.472245  0.068982566 
    2700   -295.98255    12.636791   -283.34576    913.66795    48930.455    10.472245  0.059969827 
    2800   -294.85705    13.052294   -281.80475    943.70974    51464.349    10.472245  0.068483165 
    2900   -295.03239    10.887754   -284.14464    787.20867     50265.56    10.472245   0.07194107 
    3000   -295.18775    13.706089   -281.48166    990.98058    51838.422    10.472245  0.057405363 
    3100   -296.15368    11.292945   -284.86074    816.50493     46385.55    10.472245  0.065244787 
    3200   -295.01622    11.618881   -283.39734    840.07078    50706.123    10.472245  0.066775535 
    3300   -295.56037    13.490548   -282.06982    975.39648    49522.858    10.472245   0.06459025 
    3400   -295.80978    12.683724   -283.12605    917.06129    48449.212    10.472245  0.064621253 
    3500   -296.94012    14.112403   -282.82772     1020.358     45953.16    10.472245  0.059233597 
    3600   -295.87964    13.136684   -282.74296    949.81133    48642.271    10.472245   0.06896893 
    3700   -294.35103    12.214925    -282.1361    883.16606    53002.028    10.472245  0.068874587 
    3800   -294.23189    13.275963   -280.95592    959.88152    53512.105    10.472245   0.06882848 
    3900   -295.39946     12.10803   -283.29143    875.43733    48864.193    10.472245  0.075376156 
    4000   -295.00397    11.914772    -283.0892    861.46435    51171.978    10.472245  0.071965414 
    4100   -296.63536    11.450276   -285.18508    827.88028    45020.684    10.472245  0.068892455 
    4200   -295.82032     13.56652    -282.2538    980.88942    47943.972    10.472245  0.065732391 
    4300    -295.4767     12.56668   -282.91002    908.59878    48833.371    10.472245  0.071635314 
    4400   -296.16516    13.569255   -282.59591    981.08718    48015.412    10.472245  0.063077714 
    4500   -296.13697    11.522839   -284.61413    833.12673    46183.142    10.472245  0.072980675 
    4600   -294.30553    13.158368   -281.14717    951.37909    53368.202    10.472245  0.086514878 
    4700   -294.69837    13.742912   -280.95545     993.6429    53398.882    10.472245  0.083147462 
    4800    -296.8789    12.784172   -284.09472    924.32393    43896.594    10.472245  0.064714474 
    4900   -295.58462    12.237784   -283.34683    884.81887    48972.706    10.472245  0.065523527 
    5000   -294.70113    11.628384   -283.07275    840.75785    51462.242    10.472245  0.076157507 
    5100    -293.2679    13.693613   -279.57428    990.07852    57565.425    10.472245  0.075689869 
    5200    -295.3815    12.762554   -282.61895    922.76087    50159.657    10.472245  0.068206033 
    5300   -295.08745    11.196816   -283.89064    809.55456    49020.532    10.472245  0.074179798 
    5400   -296.09247    14.389448   -281.70302    1040.3889     49488.22    10.472245  0.060565296 
    5500   -295.68929    12.591309   -283.09798    910.37952    48614.548    10.472245  0.070531709 
    5600    -294.8368    14.197493    -280.6393    1026.5102    52409.659    10.472245   0.06690833 
    5700   -295.97065    12.083757    -283.8869    873.68235    47908.653    10.472245  0.064194516 
    5800   -294.53853    10.542603   -283.99592    762.25349    51464.535    10.472245  0.069886384 
    5900   -295.11304    12.946356   -282.16668    936.05015    50609.929    10.472245  0.063159175 
    6000   -295.00073    10.999082   -284.00165    795.25795    50435.234    10.472245  0.066704027 
    6100    -294.8625    15.184499     -279.678    1097.8728    52675.263    10.472245  0.062405553 
    6200   -294.47547    13.439874    -281.0356    971.73261    53713.881    10.472245  0.067336385 
    6300   -295.61485    11.899989   -283.71486    860.39552    49137.852    10.472245  0.060552453 
    6400   -294.80097    11.901156   -282.89982    860.47991    51534.602    10.472245  0.061757186 
    6500   -293.85631    12.695431   -281.16088    917.90774    55314.842    10.472245  0.074204131 
    6600   -296.08064    12.867103   -283.21354       930.32     47631.24    10.472245   0.05838937 
    6700   -296.59573    10.925534   -285.67019    789.94024    45175.443    10.472245  0.050502484 
    6800   -294.53479    11.399464   -283.13532    824.20644    52413.219    10.472245  0.064242661 
    6900   -294.47971     13.35893   -281.12078    965.88016    53053.242    10.472245  0.072944151 
    7000   -296.99495    12.505005   -284.48995    904.13955    44616.003    10.472245  0.065717673 
    7100   -296.20923    13.386472   -282.82276    967.87155    47418.664    10.472245  0.058101025 
    7200   -295.99838    13.021176   -282.97721     941.4598      48206.8    10.472245   0.06424126 
    7300   -295.28683    12.335342   -282.95149    891.87253    50210.399    10.472245  0.072116334 
    7400   -295.46926    13.128167    -282.3411     949.1955    50371.111    10.472245  0.060970749 
    7500   -296.73268    11.598198   -285.13448    838.57537    44405.821    10.472245  0.052709175 
    7600   -297.53769    14.352005   -283.18568    1037.6817    43859.271    10.472245  0.052182343 
    7700   -294.03864    12.852309   -281.18633     929.2504     54866.96    10.472245  0.080413811 
    7800   -294.03129    12.137494    -281.8938    877.56767    54741.761    10.472245  0.071434779 
    7900   -298.33297    12.790909   -285.54206      924.811    40532.572    10.472245  0.044283789 
    8000   -295.95457    12.179854   -283.77472    880.63039    47198.311    10.472245  0.060949292 
    8100   -294.94497    13.843181   -281.10179    1000.8926    52489.648    10.472245  0.068628595 
    8200   -296.20932    12.860972   -283.34835    929.87674    47696.376    10.472245  0.059421076 
    8300   -296.69834    12.863675   -283.83466    930.07213    45914.039    10.472245  0.056091392 
    8400   -295.77839    13.677318   -282.10107    988.90032    49513.332    10.472245  0.059534298 
    8500   -294.65181    10.583054   -284.06876    765.17818     51150.82    10.472245  0.071565176 
    8600   -297.91583    11.576761   -286.33907    837.02545    41197.213    10.472245  0.050785143 
    8700   -295.55269     11.53938   -284.01331    834.32273    49086.606    10.472245  0.061261701 
    8800   -294.86618     13.27483   -281.59135    959.79958    52691.896    10.472245  0.068244119 
    8900   -294.87784    10.581741    -284.2961    765.08324    50255.535    10.472245  0.072030658 
    9000   -294.91915    13.663295   -281.25586    987.88642    52750.533    10.472245  0.060889314 
    9100   -294.74442    12.460749   -282.28367    900.93973    52733.749    10.472245  0.068666201 
    9200   -295.46692    12.128209   -283.33871    876.89635    49744.365    10.472245  0.068067203 
    9300   -296.32991     15.04557   -281.28434     1087.828    49580.331    10.472245  0.047321221 
    9400   -295.57082    11.624898   -283.94592    840.50583    48657.088    10.472245  0.059090457 
    9500     -295.134    11.932183   -283.20182    862.72321    52093.417    10.472245  0.062404581 
    9600   -293.98182    13.715871   -280.26595    991.68781    55885.651    10.472245  0.061407483 
    9700     -294.689    12.029971   -282.65903    869.79352    53251.038    10.472245  0.066045217 
    9800   -295.58963    13.429848   -282.15978     971.0077    51230.506    10.472245  0.061005449 
    9900   -294.83208    11.499376    -283.3327    831.43031    51151.684    10.472245  0.061042022 
   10000   -296.25654    10.951975   -285.30457    791.85203    46558.597    10.472245  0.052586871 
Loop time of 2.05813 on 1 procs for 10000 steps with 108 atoms

Performance: 419.799 ns/day, 0.057 hours/ns, 4858.782 timesteps/s
100.0% CPU use with 1 MPI tasks x no OpenMP threads

MPI task timing breakdown:
Section |  min time  |  avg time  |  max time  |%varavg| %total
---------------------------------------------------------------
Pair    | 1.373      | 1.373      | 1.373      |   0.0 | 66.71
Neigh   | 0          | 0          | 0          |   0.0 |  0.00
Comm    | 0.041921   | 0.041921   | 0.041921   |   0.0 |  2.04
Output  | 0.0019988  | 0.0019988  | 0.0019988  |   0.0 |  0.10
Modify  | 0.63145    | 0.63145    | 0.63145    |   0.0 | 30.68
Other   |            | 0.009793   |            |       |  0.48

Nlocal:    108 ave 108 max 108 min
Histogram: 1 0 0 0 0 0 0 0 0 0
Nghost:    990 ave 990 max 990 min
Histogram: 1 0 0 0 0 0 0 0 0 0
Neighs:    4644 ave 4644 max 4644 min
Histogram: 1 0 0 0 0 0 0 0 0 0

Total # of neighbors = 4644
Ave neighs/atom = 43
Neighbor list builds = 0
Dangerous builds = 0
    
Total wall time: 0:00:02
