LAMMPS (3 Mar 2020)
Reading data file ...
  orthogonal box = (0 0 0) to (12.27 12.27 12.27)
  1 by 1 by 1 MPI processor grid
  reading atoms ...
  108 atoms
  read_data CPU = 0.00094786 secs
Reading potential file /usr/share/lammps-stable/potentials/Ag_u3.eam with DATE: 2007-06-11
Neighbor list info ...
  update every 1 steps, delay 10 steps, check yes
  max neighbors/atom: 2000, page size: 100000
  master list distance cutoff = 7.55
  ghost atom cutoff = 7.55
  binsize = 3.775, bins = 4 4 4
  2 neighbor lists, perpetual/occasional/extra = 1 1 0
  (1) pair eam, perpetual
      attributes: half, newton on
      pair build: half/bin/atomonly/newton
      stencil: half/bin/3d/newton
      bin: standard
  (2) compute rdf, occasional, copy from (1)
      attributes: half, newton on
      pair build: copy
      stencil: none
      bin: none
Setting up Verlet run ...
  Unit style    : metal
  Current step  : 0
  Time step     : 0.001
Per MPI rank memory allocation (min/avg/max) = 3.723 | 3.723 | 3.723 Mbytes
Step PotEng KinEng TotEng Temp Press Density c_msdall[4] 
       0       -307.8    20.054711   -287.74529         1450    11595.772    10.472245            0 
     100   -294.77917    12.148179   -282.63099    878.34018    50995.135    10.472245  0.079515785 
     200   -290.86206    20.251855   -270.61021    1464.2539    68899.446    10.472245  0.094393054 
     300   -285.80593    23.735413   -262.07051    1716.1229    88116.322    10.472245    0.1141575 
     400   -286.96487    18.354809   -268.61006    1327.0933    80682.714    10.472245   0.12355725 
     500   -289.88051    22.331298   -267.54921    1614.6022    75223.973    10.472245  0.090265638 
     600   -289.79162    19.318702   -270.47292    1396.7849    71064.563    10.472245  0.099191958 
     700   -287.45307    19.869898   -267.58317    1436.6375    80788.594    10.472245   0.11818962 
     800   -287.49994     20.63216   -266.86778    1491.7508    80430.027    10.472245   0.11392307 
     900   -288.39595    20.107229   -268.28872    1453.7971    75732.767    10.472245   0.10949464 
    1000   -288.35917    20.883965    -267.4752    1509.9569    77469.664    10.472245    0.1016444 
    1100    -289.0234     20.69732   -268.32608     1496.462    76412.244    10.472245   0.11323935 
    1200   -285.79721    19.172183   -266.62502    1386.1913    85746.575    10.472245   0.14229154 
    1300    -284.5441    21.106285   -263.43782    1526.0311    90528.302    10.472245   0.14282611 
    1400   -289.02514    18.997874   -270.02727    1373.5883    75383.706    10.472245   0.10081186 
    1500   -289.34458     19.80066   -269.54392    1431.6315    73234.282    10.472245  0.099113563 
    1600   -286.41959    22.018074   -264.40152    1591.9554    84148.825    10.472245   0.11952982 
    1700    -286.0604    20.037191   -266.02321    1448.7332    84147.903    10.472245   0.12515355 
    1800   -288.13668     19.84691   -268.28977    1434.9755    77979.002    10.472245   0.10817686 
    1900   -289.43356    18.547984   -270.88557    1341.0603     73885.94    10.472245   0.10249567 
    2000     -287.924    18.493303    -269.4307    1337.1067    78059.939    10.472245   0.10739699 
    2100   -285.06409    19.000207   -266.06388     1373.757    88589.447    10.472245   0.11903702 
    2200   -287.79358    18.142096   -269.65149    1311.7137    78962.265    10.472245   0.10802915 
    2300   -288.79744    19.662611   -269.13482    1421.6503    77094.165    10.472245   0.10406493 
    2400   -286.62268     22.34307   -264.27961    1615.4534    83910.608    10.472245   0.12228529 
    2500   -282.23651    21.216389   -261.02012    1533.9918    98025.755    10.472245   0.15127581 
    2600   -289.25268    20.991628   -268.26105    1517.7411    73703.975    10.472245   0.10176634 
    2700    -289.9288    19.247403    -270.6814    1391.6298    73484.002    10.472245  0.088930475 
    2800   -285.71609    20.017813   -265.69828    1447.3322    86790.091    10.472245   0.11868332 
    2900   -284.38125    18.525537   -265.85571    1339.4373    90687.978    10.472245   0.14415398 
    3000   -287.21893    19.116479   -268.10245    1382.1637    80660.876    10.472245   0.11775605 
    3100   -290.87762    19.909813   -270.96781    1439.5235    68262.101    10.472245  0.091916028 
    3200   -287.44945    21.030903   -266.41855    1520.5808    81498.254    10.472245   0.11338581 
    3300   -285.13623    21.781165   -263.35507    1574.8264    87826.408    10.472245   0.12514848 
    3400   -289.00057    20.529207   -268.47136    1484.3071    73961.847    10.472245   0.10288833 
    3500   -288.58803    20.457758   -268.13027    1479.1412    78632.274    10.472245   0.10496895 
    3600   -284.45418    18.835453   -265.61873    1361.8449    87886.433    10.472245   0.12865887 
    3700   -285.61449    19.196626   -266.41787    1387.9585    85316.391    10.472245   0.12703735 
    3800   -288.78812    20.058017   -268.73011     1450.239    75607.369    10.472245  0.098969132 
    3900   -291.52335    18.050572   -273.47278    1305.0963    65044.133    10.472245  0.083707522 
    4000   -290.15423    21.916621   -268.23761    1584.6202    72473.452    10.472245  0.093831106 
    4100   -286.59669    20.394101   -266.20259    1474.5386    84118.162    10.472245   0.12022754 
    4200   -287.61868    21.729556   -265.88912    1571.0949    80462.328    10.472245  0.099157164 
    4300   -290.17477     20.32984   -269.84493    1469.8924    71491.176    10.472245  0.093063949 
    4400   -287.09388     20.92901   -266.16487    1513.2137    81233.661    10.472245   0.09661764 
    4500    -290.0989    22.108884   -267.99001    1598.5212    73652.262    10.472245  0.086655158 
    4600   -289.39268    17.908329   -271.48435    1294.8118    71531.342    10.472245    0.1057873 
    4700   -287.23655    21.533499   -265.70305    1556.9196    81156.374    10.472245   0.11067973 
    4800   -288.00832    18.776307   -269.23202    1357.5685     77109.17    10.472245   0.11282581 
    4900   -289.57444    21.857575   -267.71687     1580.351    72740.907    10.472245   0.10665004 
    5000   -287.52915    23.253993   -264.27516    1681.3151     81794.36    10.472245   0.11977455 
    5100   -289.20673    21.714552   -267.49217    1570.0101    75470.922    10.472245   0.11436804 
    5200   -289.60481    17.418272   -272.18654    1259.3796    71718.951    10.472245  0.094918952 
    5300   -289.89207    19.110936   -270.78113    1381.7629     71791.51    10.472245  0.092575812 
    5400   -285.58962    19.889631   -265.69999    1438.0643    86007.106    10.472245    0.1299017 
    5500   -288.04968    21.893012   -266.15667    1582.9132    79054.741    10.472245   0.10875573 
    5600   -290.62183    21.041743   -269.58008    1521.3646     71127.03    10.472245  0.085988872 
    5700   -288.24298    19.420324   -268.82266    1404.1324    78875.154    10.472245   0.10194315 
    5800   -285.95809    21.179721   -264.77837    1531.3407    83964.607    10.472245   0.12293926 
    5900   -288.98938    19.923029   -269.06635     1440.479     75555.33    10.472245   0.10081267 
    6000   -289.91382    18.786975   -271.12684    1358.3399    72459.756    10.472245  0.088454267 
    6100    -287.0158    20.470863   -266.54494    1480.0886    82874.922    10.472245   0.11091734 
    6200   -286.35016    22.044738   -264.30542    1593.8833    85792.468    10.472245   0.11494264 
    6300   -284.67612    17.418627   -267.25749    1259.4053    87062.187    10.472245   0.11623898 
    6400   -288.84544    17.994617   -270.85083    1301.0506    75241.172    10.472245  0.096163968 
    6500   -289.57178     22.27034   -267.30144    1610.1948    75483.602    10.472245  0.082112891 
    6600   -287.62454    19.246371   -268.37817    1391.5552    79580.662    10.472245   0.11041912 
    6700   -287.43279    20.555731   -266.87706    1486.2248    81279.234    10.472245   0.11332737 
    6800   -288.24181     20.29405   -267.94776    1467.3047    78884.136    10.472245   0.11000513 
    6900   -288.87233    17.807781   -271.06455     1287.542    73678.276    10.472245   0.11510384 
    7000     -287.909    22.413896   -265.49511    1620.5743    80327.004    10.472245   0.12509595 
    7100   -286.34443    20.124282   -266.22015    1455.0301    85464.606    10.472245   0.13122691 
    7200   -287.25154    18.268448   -268.98309    1320.8492    77820.042    10.472245   0.11871332 
    7300   -289.41135    21.500785   -267.91056    1554.5543    76602.932    10.472245  0.097819738 
    7400    -286.5515    16.666819   -269.88468    1205.0479    81853.349    10.472245   0.12230677 
    7500    -286.1527     19.79702   -266.35568    1431.3683    85056.466    10.472245   0.12075315 
    7600   -283.80282    19.443075   -264.35975    1405.7773    91096.147    10.472245   0.12595517 
    7700    -288.9979    20.449439   -268.54846    1478.5397    77324.242    10.472245  0.092941637 
    7800   -288.81317    19.240309   -269.57286    1391.1169    75221.927    10.472245    0.1017669 
    7900   -285.58854    21.481226   -264.10731    1553.1401    86210.141    10.472245   0.12402804 
    8000   -286.72138    17.336065   -269.38532    1253.4358    81829.769    10.472245   0.12745014 
    8100    -290.6982    19.683459   -271.01474    1423.1576    69921.361    10.472245   0.10153084 
    8200   -286.88828    18.950091   -267.93819    1370.1335    81845.966    10.472245   0.11592107 
    8300   -286.39092     18.65761   -267.73331    1348.9865    82420.051    10.472245   0.11024708 
    8400   -288.92619     17.51812   -271.40807    1266.5988    73987.993    10.472245   0.10514457 
    8500   -289.19744     21.99722   -267.20022    1590.4477    76516.137    10.472245   0.08664671 
    8600   -287.35469    17.718477   -269.63621    1281.0851    79593.947    10.472245   0.10186097 
    8700   -287.85088    22.608086   -265.24279    1634.6147     81436.25    10.472245   0.10090934 
    8800   -286.38141    21.563398   -264.81801    1559.0814    85403.711    10.472245   0.11007494 
    8900   -291.20721    21.269813    -269.9374    1537.8545    70314.101    10.472245  0.080742206 
    9000   -288.87467    18.615002   -270.25967    1345.9059    75032.012    10.472245  0.093290321 
    9100   -287.87893    19.894122   -267.98481     1438.389    80412.865    10.472245   0.10099878 
    9200   -286.19736    19.385903   -266.81145    1401.6436     83951.05    10.472245   0.11942813 
    9300   -287.12081    20.991236   -266.12958    1517.7128    80355.655    10.472245   0.11945727 
    9400   -285.76273    18.165979   -267.59675    1313.4405     84022.01    10.472245   0.12607418 
    9500    -288.2582    20.522221   -267.73598    1483.8019    79333.853    10.472245   0.10173649 
    9600   -290.45246    19.725133   -270.72733    1426.1707    71304.727    10.472245  0.091138035 
    9700   -287.26323    21.244952   -266.01828    1536.0571    80444.626    10.472245    0.1078179 
    9800   -287.03705    19.667352    -267.3697     1421.993    82581.349    10.472245   0.11052022 
    9900   -290.93176    18.680299   -272.25146    1350.6269    67889.836    10.472245  0.094824596 
   10000   -289.91161    21.246784   -268.66482    1536.1895    72481.129    10.472245   0.09592641 
Loop time of 2.1654 on 1 procs for 10000 steps with 108 atoms

Performance: 399.003 ns/day, 0.060 hours/ns, 4618.090 timesteps/s
99.9% CPU use with 1 MPI tasks x no OpenMP threads

MPI task timing breakdown:
Section |  min time  |  avg time  |  max time  |%varavg| %total
---------------------------------------------------------------
Pair    | 1.4268     | 1.4268     | 1.4268     |   0.0 | 65.89
Neigh   | 0          | 0          | 0          |   0.0 |  0.00
Comm    | 0.042413   | 0.042413   | 0.042413   |   0.0 |  1.96
Output  | 0.0021245  | 0.0021245  | 0.0021245  |   0.0 |  0.10
Modify  | 0.68413    | 0.68413    | 0.68413    |   0.0 | 31.59
Other   |            | 0.009907   |            |       |  0.46

Nlocal:    108 ave 108 max 108 min
Histogram: 1 0 0 0 0 0 0 0 0 0
Nghost:    990 ave 990 max 990 min
Histogram: 1 0 0 0 0 0 0 0 0 0
Neighs:    4644 ave 4644 max 4644 min
Histogram: 1 0 0 0 0 0 0 0 0 0

Total # of neighbors = 4644
Ave neighs/atom = 43
Neighbor list builds = 0
Dangerous builds = 0
Total wall time: 0:00:02
