LAMMPS (3 Mar 2020)

# ---------- 1. Initialize simulation ----------
units metal
atom_style atomic
dimension 3
boundary p p p
read_data /home/modeler/RemLabs/Project/eval_timestep/n3_T1800_timestep1.000000e-03_steps5000/20201204-073144/lammps.data
  orthogonal box = (0 0 0) to (17.469 17.469 17.469)
  1 by 1 by 1 MPI processor grid
  reading atoms ...
  217 atoms
  read_data CPU = 0.00561083 secs

pair_style meam/c
pair_coeff * * library.meam Li Si LiSi.meam Li Si
Reading potential file library.meam with DATE: 2012-06-29
Reading potential file LiSi.meam with DATE: 2020-11-07

group Li type 1
1 atoms in group Li

velocity all create 1800 3320 dist gaussian

# ---------- 2. Describe computed properties----------
compute msdli Li msd
thermo_style custom step pe ke etotal temp press density c_msdli[4]
thermo 100

# ---------- 3. Specify ensemble  ----------
#fix 1 all nve
fix 1 all nvt temp 1800 1800 0.05
#fix 1 all npt temp 1800 1800 0.05 tchain 2 iso 1.0 1.0 1.0 pchain 2

# ---------- 4. Run -------------
timestep 0.001
run 5000
Neighbor list info ...
  update every 1 steps, delay 10 steps, check yes
  max neighbors/atom: 2000, page size: 100000
  master list distance cutoff = 6
  ghost atom cutoff = 6
  binsize = 3, bins = 6 6 6
  2 neighbor lists, perpetual/occasional/extra = 2 0 0
  (1) pair meam/c, perpetual
      attributes: full, newton on
      pair build: full/bin/atomonly
      stencil: full/bin/3d
      bin: standard
  (2) pair meam/c, perpetual, half/full from (1)
      attributes: half, newton on
      pair build: halffull/newton
      stencil: none
      bin: none
Per MPI rank memory allocation (min/avg/max) = 9.27 | 9.27 | 9.27 Mbytes
Step PotEng KinEng TotEng Temp Press Density c_msdli[4] 
       0   -951.06911    50.256344   -900.81276         1800    -114182.3    1.8918427            0 
     100   -922.48454    37.327676   -885.15687     1336.942    -83239.37    1.8918427   0.27524069 
     200   -910.41818    50.564273   -859.85391    1811.0289   -71653.254    1.8918427   0.29696227 
     300   -900.34519    56.548639   -843.79655    2025.3672   -59432.395    1.8918427   0.63371973 
     400   -905.31169    51.420119   -853.89157    1841.6822   -63796.798    1.8918427   0.54219917 
     500    -908.3774    49.158513   -859.21889    1760.6797   -68683.378    1.8918427  0.091360803 
     600   -900.69538    49.938583   -850.75679    1788.6189   -61414.674    1.8918427   0.20751579 
     700   -903.87503    51.713703   -852.16133    1852.1973    -63721.89    1.8918427  0.026325918 
     800   -907.43355    48.750941   -858.68261    1746.0819    -67989.26    1.8918427  0.026842928 
     900     -904.445    53.853207    -850.5918    1928.8266   -66604.795    1.8918427    1.0482254 
    1000   -903.53405    57.260943   -846.27311    2050.8793   -61896.867    1.8918427   0.42655379 
    1100   -906.53417    49.763457   -856.77072    1782.3465    -68332.13    1.8918427   0.14066842 
    1200   -902.79844    51.076902   -851.72154    1829.3894   -64323.705    1.8918427  0.010962441 
    1300   -902.98522    58.134807   -844.85042     2082.178   -61861.161    1.8918427  0.076330619 
    1400   -906.45063    51.986713   -854.46391    1861.9755   -67688.002    1.8918427  0.017336036 
    1500   -904.70374    47.311544    -857.3922    1694.5279   -68863.841    1.8918427  0.069133115 
    1600   -900.99859    51.217582   -849.78101    1834.4281   -62569.392    1.8918427   0.20212194 
    1700   -902.26712    47.715788   -854.55133    1709.0065   -64720.995    1.8918427  0.047726272 
    1800   -907.89962    45.968621     -861.931    1646.4293   -72979.761    1.8918427   0.22502937 
    1900   -902.27831    48.509407    -853.7689     1737.431   -64382.069    1.8918427   0.02180878 
    2000   -903.68907    53.372459   -850.31661    1911.6079   -63466.586    1.8918427  0.044777336 
    2100   -908.07992    49.833031   -858.24689    1784.8384   -69036.716    1.8918427   0.15864427 
    2200   -901.42857    49.852909   -851.57566    1785.5504   -63233.393    1.8918427   0.10618571 
    2300   -901.08524    50.658085   -850.42716    1814.3889   -63586.603    1.8918427 0.0043260355 
    2400   -903.07069    46.805938   -856.26476    1676.4189   -65514.045    1.8918427   0.04635501 
    2500   -903.60589    54.028501   -849.57739     1935.105   -65258.777    1.8918427   0.23821319 
    2600   -905.08304     54.49354   -850.58951     1951.761   -64477.082    1.8918427   0.16355112 
    2700   -903.77371    48.921539   -854.85217    1752.1921   -65962.321    1.8918427  0.031650325 
    2800   -900.24655    47.690086   -852.55647    1708.0859   -63996.084    1.8918427  0.042223824 
    2900   -899.48554    53.136565   -846.34897    1903.1591    -62439.56    1.8918427   0.13328289 
    3000   -905.96797    49.795444   -856.17253    1783.4922   -68498.903    1.8918427 0.0069451777 
    3100   -905.01767    51.675928   -853.34174    1850.8443   -67780.332    1.8918427  0.091240006 
    3200   -900.32152    54.908189   -845.41333    1966.6122   -64010.655    1.8918427   0.26741351 
    3300   -906.76443    54.310915   -852.45351      1945.22   -69808.227    1.8918427   0.16225509 
    3400   -904.28317    51.871903   -852.41127    1857.8634   -67438.229    1.8918427  0.071804735 
    3500   -902.31367    50.048173    -852.2655    1792.5441   -63719.513    1.8918427    0.1776074 
    3600   -905.58147    49.101877   -856.47959    1758.6512   -67986.739    1.8918427   0.28039316 
    3700   -906.28446     53.31809   -852.96637    1909.6606   -67928.716    1.8918427  0.030975859 
    3800   -902.92326    53.104419   -849.81884    1902.0077   -66450.045    1.8918427  0.049374283 
    3900   -906.38914    46.514138   -859.87501    1665.9677   -71736.529    1.8918427   0.41578691 
    4000   -905.49858    48.720941   -856.77764    1745.0074   -67551.479    1.8918427  0.064220057 
    4100    -897.9324    48.556694   -849.37571    1739.1247   -61990.316    1.8918427   0.49873999 
    4200   -903.25266    49.934356    -853.3183    1788.4676   -67690.299    1.8918427   0.38785967 
    4300   -905.18753     48.91052   -856.27701    1751.7975   -66831.741    1.8918427   0.29168762 
    4400   -899.15429    50.117998   -849.03629    1795.0449   -61861.586    1.8918427   0.10342294 
    4500   -905.88809    47.914395    -857.9737    1716.1199    -68782.75    1.8918427  0.092913334 
    4600   -901.91767    47.291204   -854.62647    1693.7994    -64218.53    1.8918427  0.076162778 
    4700   -898.51214    48.519711   -849.99243    1737.8001   -60353.633    1.8918427   0.10506166 
    4800   -902.49439    54.676172   -847.81822    1958.3022   -62967.741    1.8918427   0.01217176 
    4900   -903.58481    47.981054   -855.60375    1718.5074   -66165.159    1.8918427   0.12488546 
    5000   -905.60657    47.636315   -857.97026    1706.1601   -70502.896    1.8918427  0.091385761 
Loop time of 2.71993 on 1 procs for 5000 steps with 217 atoms

Performance: 158.827 ns/day, 0.151 hours/ns, 1838.281 timesteps/s
100.0% CPU use with 1 MPI tasks x no OpenMP threads

MPI task timing breakdown:
Section |  min time  |  avg time  |  max time  |%varavg| %total
---------------------------------------------------------------
Pair    | 2.6329     | 2.6329     | 2.6329     |   0.0 | 96.80
Neigh   | 0.037267   | 0.037267   | 0.037267   |   0.0 |  1.37
Comm    | 0.020926   | 0.020926   | 0.020926   |   0.0 |  0.77
Output  | 0.0014699  | 0.0014699  | 0.0014699  |   0.0 |  0.05
Modify  | 0.020922   | 0.020922   | 0.020922   |   0.0 |  0.77
Other   |            | 0.00642    |            |       |  0.24

Nlocal:    217 ave 217 max 217 min
Histogram: 1 0 0 0 0 0 0 0 0 0
Nghost:    905 ave 905 max 905 min
Histogram: 1 0 0 0 0 0 0 0 0 0
Neighs:    3616 ave 3616 max 3616 min
Histogram: 1 0 0 0 0 0 0 0 0 0
FullNghs:  7232 ave 7232 max 7232 min
Histogram: 1 0 0 0 0 0 0 0 0 0

Total # of neighbors = 7232
Ave neighs/atom = 33.3272
Neighbor list builds = 68
Dangerous builds = 0
Total wall time: 0:00:02
