LAMMPS (3 Mar 2020)
Reading data file ...
  orthogonal box = (0 0 0) to (17.469 17.469 17.469)
  1 by 1 by 1 MPI processor grid
  reading atoms ...
  217 atoms
  read_data CPU = 0.00102278 secs
Reading potential file library.meam with DATE: 2012-06-29
Reading potential file LiSi.meam with DATE: 2020-11-07
1 atoms in group Li
Neighbor list info ...
  update every 1 steps, delay 10 steps, check yes
  max neighbors/atom: 2000, page size: 100000
  master list distance cutoff = 6
  ghost atom cutoff = 6
  binsize = 3, bins = 6 6 6
  2 neighbor lists, perpetual/occasional/extra = 2 0 0
  (1) pair meam/c, perpetual
      attributes: full, newton on
      pair build: full/bin/atomonly
      stencil: full/bin/3d
      bin: standard
  (2) pair meam/c, perpetual, half/full from (1)
      attributes: half, newton on
      pair build: halffull/newton
      stencil: none
      bin: none
Setting up Verlet run ...
  Unit style    : metal
  Current step  : 0
  Time step     : 0.00347596
Per MPI rank memory allocation (min/avg/max) = 9.27 | 9.27 | 9.27 Mbytes
Step PotEng KinEng TotEng Temp Press Density c_msdli[4] 
       0   -951.04357    50.256344   -900.78722         1800   -114161.75    1.8918427            0 
     100   -914.89516    31.466136   -883.42902    1127.0029   -78355.008    1.8918427   0.20696109 
     200   -903.93689    45.436209   -858.50068    1627.3602   -63907.317    1.8918427   0.15144325 
     300   -898.22549    54.014724   -844.21077    1934.6115   -58169.515    1.8918427    3.5171728 
     400   -905.66454     50.76875   -854.89579    1818.3525   -66445.825    1.8918427    14.378358 
     500   -901.16659    46.499832   -854.66675    1665.4553   -62549.271    1.8918427    12.210175 
     600    -903.3367     57.10693   -846.22977    2045.3631   -61578.832    1.8918427    10.358763 
     700    -902.9471    47.851815   -855.09528    1713.8785   -65314.886    1.8918427    16.007611 
     800   -899.23866    44.447641   -854.79102    1591.9533   -64029.786    1.8918427    19.448492 
     900   -899.13748    51.301442   -847.83603    1837.4316   -62421.178    1.8918427    19.899719 
    1000   -903.53948    44.860771   -858.67871    1606.7501   -66300.026    1.8918427    17.400372 
    1100    -902.6586    48.728874   -853.92972    1745.2916   -66110.689    1.8918427    16.585261 
    1200    -903.8448    55.436785   -848.40802    1985.5446   -67096.312    1.8918427    17.047555 
    1300   -905.22341    46.499542   -858.72387     1665.445   -68898.965    1.8918427    16.381106 
    1400   -902.26165    48.957208   -853.30444    1753.4696   -66207.547    1.8918427    15.672446 
    1500   -900.49873    50.480223    -850.0185    1808.0185   -64426.478    1.8918427    39.677275 
    1600   -905.33076    47.218932   -858.11183    1691.2109   -68163.226    1.8918427    32.835941 
    1700   -903.55969    46.373157   -857.18654    1660.9183    -69158.04    1.8918427    40.185396 
    1800   -900.74043    50.045913   -850.69452    1792.4631   -65064.069    1.8918427    38.129186 
    1900   -899.80322    50.117662   -849.68556    1795.0329     -62309.1    1.8918427    46.580416 
    2000   -904.38556    48.002098   -856.38346    1719.2611   -69218.042    1.8918427     62.79755 
    2100   -898.36017    52.343603   -846.01657     1874.758    -60021.89    1.8918427    66.791248 
    2200   -902.67645      52.7956   -849.88085    1890.9469   -65597.016    1.8918427    51.434703 
    2300   -900.21194    47.695519   -852.51642    1708.2805   -66209.103    1.8918427     76.85928 
    2400   -902.07005    53.255535   -848.81451    1907.4201   -66861.205    1.8918427    85.024725 
    2500   -899.89369    52.511021   -847.38267    1880.7543   -60983.399    1.8918427    48.417748 
    2600   -901.88333    47.402495   -854.48084    1697.7855   -66167.064    1.8918427    46.214317 
    2700   -900.45752    51.806556   -848.65096     1855.523   -64179.843    1.8918427    49.864628 
    2800   -904.02313    58.372619   -845.65051    2090.6955   -65696.475    1.8918427    53.091569 
    2900   -902.58277    48.332178   -854.25059    1731.0833   -69128.883    1.8918427    56.219335 
    3000    -899.6637    53.283651   -846.38005    1908.4272   -65724.003    1.8918427    61.490941 
    3100   -904.00832    49.328261   -854.68005    1766.7594   -69383.199    1.8918427    77.763014 
    3200   -898.60279    46.028019   -852.57477    1648.5567   -64655.892    1.8918427    82.374489 
    3300   -899.67313    51.934169   -847.73896    1860.0936    -65453.22    1.8918427     84.57507 
    3400   -906.58471    47.534042   -859.05067     1702.497   -71256.151    1.8918427    51.293071 
    3500   -901.68136    50.351507   -851.32985    1803.4084   -70627.173    1.8918427    38.568542 
    3600   -900.79128       51.781   -849.01028    1854.6076   -63300.105    1.8918427    60.153434 
    3700   -905.15309    45.735327   -859.41777    1638.0735   -67468.874    1.8918427    65.135984 
    3800   -901.12542    49.267378   -851.85805    1764.5788   -66639.218    1.8918427    64.625005 
    3900     -903.194    53.145284   -850.04872    1903.4713   -67286.968    1.8918427    85.574954 
    4000   -905.36476    47.390282   -857.97447    1697.3481   -70745.772    1.8918427    81.398014 
    4100   -903.56205    51.291888   -852.27016    1837.0894   -66847.302    1.8918427    83.345305 
    4200   -902.39993    52.874507   -849.52543    1893.7731   -67231.655    1.8918427    110.56054 
    4300   -903.20431    46.262344   -856.94197    1656.9494   -71583.216    1.8918427    94.542932 
    4400   -900.27574    46.401399   -853.87434    1661.9299   -66405.836    1.8918427    125.51988 
    4500   -895.24132    46.744229   -848.49709    1674.2088   -62548.905    1.8918427    117.58417 
    4600   -904.70563    48.570236    -856.1354    1739.6097   -70365.455    1.8918427    123.34163 
    4700   -898.43415     51.27203   -847.16212    1836.3782   -64664.121    1.8918427    116.12089 
    4800   -904.76588    54.537603   -850.22828    1953.3391   -67169.816    1.8918427    87.678804 
    4900   -903.02378    47.884446   -855.13933    1715.0472   -68230.624    1.8918427    53.881155 
    5000   -901.66416    58.494612   -843.16955    2095.0649   -67003.213    1.8918427    54.069253 
    5100   -901.20928    50.692479    -850.5168    1815.6207   -67607.982    1.8918427    50.868694 
    5200    -903.9214    49.453853   -854.46755    1771.2577   -69577.668    1.8918427    40.854971 
    5300   -897.55539    54.145989    -843.4094     1939.313    -60081.62    1.8918427    48.216647 
    5400    -901.1398    50.557328   -850.58247    1810.7801   -64559.412    1.8918427     54.01709 
    5500   -906.19617    52.992729   -853.20344    1898.0074   -70502.385    1.8918427    56.898018 
    5600   -896.40076    50.884323   -845.51643    1822.4919   -64636.113    1.8918427    43.754262 
    5700   -902.24689    52.772826   -849.47407    1890.1312   -64306.356    1.8918427    54.748401 
    5754   -903.04045    49.930281   -853.11017    1788.3216   -63554.715    1.8918427    62.688181 
Loop time of 3.28064 on 1 procs for 5754 steps with 217 atoms

Performance: 526.745 ns/day, 0.046 hours/ns, 1753.927 timesteps/s
100.0% CPU use with 1 MPI tasks x no OpenMP threads

MPI task timing breakdown:
Section |  min time  |  avg time  |  max time  |%varavg| %total
---------------------------------------------------------------
Pair    | 3.0468     | 3.0468     | 3.0468     |   0.0 | 92.87
Neigh   | 0.17275    | 0.17275    | 0.17275    |   0.0 |  5.27
Comm    | 0.028662   | 0.028662   | 0.028662   |   0.0 |  0.87
Output  | 0.00167    | 0.00167    | 0.00167    |   0.0 |  0.05
Modify  | 0.024285   | 0.024285   | 0.024285   |   0.0 |  0.74
Other   |            | 0.006446   |            |       |  0.20

Nlocal:    217 ave 217 max 217 min
Histogram: 1 0 0 0 0 0 0 0 0 0
Nghost:    900 ave 900 max 900 min
Histogram: 1 0 0 0 0 0 0 0 0 0
Neighs:    3626 ave 3626 max 3626 min
Histogram: 1 0 0 0 0 0 0 0 0 0
FullNghs:  7252 ave 7252 max 7252 min
Histogram: 1 0 0 0 0 0 0 0 0 0

Total # of neighbors = 7252
Ave neighs/atom = 33.4194
Neighbor list builds = 318
Dangerous builds = 27
Total wall time: 0:00:03
