LAMMPS (3 Mar 2020)
Reading data file ...
  orthogonal box = (0 0 0) to (16.36 16.36 16.36)
  1 by 1 by 1 MPI processor grid
  reading atoms ...
  256 atoms
  read_data CPU = 0.00101171 secs
Reading potential file /usr/share/lammps-stable/potentials/Ag_u3.eam with DATE: 2007-06-11
Neighbor list info ...
  update every 1 steps, delay 10 steps, check yes
  max neighbors/atom: 2000, page size: 100000
  master list distance cutoff = 7.55
  ghost atom cutoff = 7.55
  binsize = 3.775, bins = 5 5 5
  2 neighbor lists, perpetual/occasional/extra = 1 1 0
  (1) pair eam, perpetual
      attributes: half, newton on
      pair build: half/bin/atomonly/newton
      stencil: half/bin/3d/newton
      bin: standard
  (2) compute rdf, occasional, copy from (1)
      attributes: half, newton on
      pair build: copy
      stencil: none
      bin: none
Setting up Verlet run ...
  Unit style    : metal
  Current step  : 0
  Time step     : 0.005
Per MPI rank memory allocation (min/avg/max) = 3.744 | 3.744 | 3.744 Mbytes
Step PotEng KinEng TotEng Temp Press Density c_msdall[4] 
       0       -729.6    79.107209   -650.49279         2400     19296.74    10.472245            0 
     100   -677.17311     51.81648   -625.35663    1572.0382    86654.854    10.472245   0.12367151 
     200   -656.16459     70.01097   -586.15362    2124.0331    120903.14    10.472245   0.21701088 
     300   -647.28706    89.859851   -557.42721    2726.2198    135339.54    10.472245   0.22776564 
     400   -648.98004    81.136156   -567.84389    2461.5554    132253.39    10.472245    0.2576059 
     500   -649.87083    76.366759   -573.50407    2316.8587    130440.09    10.472245   0.19485222 
     600   -644.20336     79.98553   -564.21783     2426.647    137345.01    10.472245   0.31024238 
     700    -640.4423    81.259162   -559.18313    2465.2872    141935.85    10.472245   0.26403667 
     800    -651.5434    78.618472   -572.92493    2385.1724    126302.91    10.472245   0.21431542 
     900   -652.87492    79.826333   -573.04858    2421.8172    126619.12    10.472245    0.2255521 
    1000   -643.21382     81.85415   -561.35967    2483.3383     140867.8    10.472245   0.25262925 
    1100   -650.29042    79.520483   -570.76993    2412.5382    129452.17    10.472245   0.23617148 
    1200   -644.79738    74.334963   -570.46242    2255.2169    136546.17    10.472245   0.29449925 
    1300   -641.49574    79.728419   -561.76732    2418.8466    140962.62    10.472245   0.27611356 
    1400   -651.53775    74.773545   -576.76421    2268.5228    124870.92    10.472245   0.26527337 
    1500   -647.34196    74.720095   -572.62186    2266.9012    131825.71    10.472245   0.22809058 
    1600   -651.17939    83.972802   -567.20659    2547.6152    128550.92    10.472245   0.26180114 
    1700   -648.29251    81.505116   -566.78739    2472.7491     133396.2    10.472245   0.22668376 
    1800   -654.23121    74.172193   -580.05902    2250.2787    123324.21    10.472245   0.18662037 
    1900   -655.95691    87.326972   -568.62994    2649.3759    124068.65    10.472245   0.19357161 
    2000   -645.82505    76.668728   -569.15632      2326.02    132013.97    10.472245   0.23672665 
    2100   -649.66937    71.981375     -577.688    2183.8124    128472.98    10.472245   0.21152351 
    2200   -653.70927    78.428298   -575.28097    2379.4028    125858.55    10.472245   0.19297307 
    2300    -643.4084    76.938266   -566.47013    2334.1974    137470.54    10.472245   0.24772621 
    2400   -654.65284    79.408098   -575.24474    2409.1286    125744.94    10.472245   0.21939759 
    2500   -657.80217    78.375713   -579.42645    2377.8075    118344.19    10.472245   0.22317347 
    2600   -646.98542    82.594934   -564.39048    2505.8126    134043.35    10.472245   0.25670472 
    2700   -649.31039    80.703256   -568.60714    2448.4218    130805.17    10.472245   0.21588592 
    2800   -655.64486    80.489723   -575.15514    2441.9435    123711.56    10.472245   0.19554818 
    2900   -640.26533    80.316795   -559.94854    2436.6971    141960.53    10.472245   0.29580524 
    3000   -649.78857    81.702077    -568.0865    2478.7246    128946.54    10.472245   0.23594671 
    3100    -651.5469    82.080204    -569.4667    2490.1964    129671.59    10.472245   0.22066366 
    3200   -647.73474     78.31128   -569.42346    2375.8527    131367.07    10.472245   0.21848064 
    3300   -653.59857    70.282509   -583.31606    2132.2712       123537    10.472245   0.21224446 
    3400   -644.75928    75.730629   -569.02865    2297.5594    134381.47    10.472245   0.22610914 
    3500   -644.60128    81.291177    -563.3101    2466.2585       137802    10.472245   0.25913045 
    3600   -647.24295    83.965733   -563.27721    2547.4007    133925.55    10.472245   0.26528255 
    3700   -653.07461    81.591801    -571.4828     2475.379    126412.88    10.472245   0.23500847 
    3800   -640.03071    78.229715     -561.801    2373.3781    143072.45    10.472245   0.31443518 
    3900   -635.89196    81.934263   -553.95769    2485.7688    148520.88    10.472245   0.37747574 
    4000   -648.37299    77.630127   -570.74286    2355.1874    130911.77    10.472245   0.25211825 
    4100   -647.70464    77.574986   -570.12966    2353.5145    132641.84    10.472245   0.22469342 
    4200   -644.50688    79.827106   -564.67978    2421.8407     137340.6    10.472245   0.28349218 
    4300    -642.2037    82.253859   -559.94984    2495.4649    141598.84    10.472245   0.29256638 
    4400   -649.45646    74.621052    -574.8354    2263.8964    129440.43    10.472245   0.23982429 
    4500   -653.93574    87.532961   -566.40278    2655.6253    128130.89    10.472245   0.23390495 
    4600   -646.56942    81.281592   -565.28782    2465.9677     133082.2    10.472245   0.23670817 
    4700   -654.20588    76.161406   -578.04447    2310.6285    122279.29    10.472245   0.20461509 
    4800   -639.06454     72.65536   -566.40918    2204.2601    142776.29    10.472245   0.26284283 
    4900   -650.94262    79.388074   -571.55454     2408.521    129844.08    10.472245   0.20895821 
    5000   -649.35386     70.35754   -578.99632    2134.5475     127536.4    10.472245   0.20690799 
    5100   -650.03854    81.326644    -568.7119    2467.3345    129901.67    10.472245   0.20651353 
    5200   -644.73479    75.547248   -569.18754    2291.9959    135115.75    10.472245   0.27832154 
    5300   -633.56788     80.05885   -553.50903    2428.8715    151328.83    10.472245   0.35720021 
    5400   -643.60361    79.495248   -564.10837    2411.7726    138742.87    10.472245   0.23640245 
    5500   -643.96562    71.881391   -572.08422     2180.779    134720.45    10.472245   0.25813741 
    5600   -643.32975    76.455135   -566.87462    2319.5398    137710.29    10.472245   0.21514696 
    5700   -643.22588    80.119536   -563.10634    2430.7126    139363.93    10.472245    0.2437161 
    5800   -648.13177    71.566295   -576.56547    2171.2194    130535.54    10.472245   0.23225635 
    5900   -649.32145    83.998331   -565.32312    2548.3897    129802.91    10.472245    0.2074476 
    6000   -646.73377    78.286565   -568.44721    2375.1028    133569.28    10.472245   0.25251984 
    6100   -648.14036    78.250169   -569.89019    2373.9986    132771.24    10.472245   0.21688408 
    6200   -649.43288    79.798008   -569.63487    2420.9579    130518.03    10.472245   0.23865775 
    6300   -642.78411    83.538864   -559.24524    2534.4501    139554.66    10.472245   0.26886838 
    6400   -654.98698    82.462684    -572.5243    2501.8003    124407.86    10.472245   0.20994574 
    6500   -647.17691     75.97781    -571.1991    2305.0585    130760.69    10.472245   0.22583725 
    6600   -644.72751    86.849687   -557.87783    2634.8957    137969.31    10.472245    0.3141974 
    6700   -647.09093    85.122533   -561.96839    2582.4964    134922.22    10.472245   0.27780262 
    6800   -649.23793    84.669508   -564.56842    2568.7522    132116.38    10.472245   0.26775497 
    6900    -652.6312    80.717212   -571.91399    2448.8452    125329.35    10.472245   0.24366322 
    7000   -652.73749    81.162902   -571.57458    2462.3668    126942.18    10.472245   0.23167607 
    7100    -641.3622    79.056846   -562.30535    2398.4721    141118.59    10.472245   0.30644996 
    7200   -647.00892    76.607023   -570.40189    2324.1479    132331.86    10.472245   0.24932993 
    7300   -654.10758    72.099332   -582.00825     2187.391    123936.53    10.472245   0.19385094 
    7400   -644.49426    77.805168   -566.68909    2360.4979     136053.1    10.472245   0.25214831 
    7500   -649.25555    81.463312   -567.79224    2471.4808    130287.48    10.472245     0.254971 
    7600   -655.43419    76.825767   -578.60842    2330.7843    122247.09    10.472245   0.21044303 
    7700   -647.06762    81.285304   -565.78231    2466.0803    131447.78    10.472245   0.22333053 
    7800   -642.00669    73.183661   -568.82303     2220.288    138276.51    10.472245   0.27771198 
    7900    -646.2581    76.684515   -569.57359    2326.4989    133650.53    10.472245   0.28593854 
    8000   -636.18398    75.317043   -560.86694    2285.0118    146860.61    10.472245   0.43996135 
    8100   -655.59222     82.10258   -573.48964    2490.8753    122669.35    10.472245   0.33556762 
    8200   -647.61849    76.991806   -570.62669    2335.8217    134635.04    10.472245    0.4257438 
    8300   -641.87203    78.898515   -562.97352    2393.6685    139224.08    10.472245   0.44424644 
    8400   -650.79004      76.5902   -574.19984    2323.6375    128582.51    10.472245    0.3493402 
    8500    -647.4899    74.230755   -573.25914    2252.0553     131526.7    10.472245   0.35901056 
    8600   -641.40098    77.980287    -563.4207    2365.8108    140497.22    10.472245   0.39982514 
    8700    -647.5221    79.201634   -568.32047    2402.8647    133327.39    10.472245   0.35809755 
    8800   -645.98605    74.785055   -571.20099     2268.872    135550.44    10.472245    0.4080945 
    8900   -640.88775    82.431853    -558.4559     2500.865    143102.41    10.472245   0.43035779 
    9000   -644.38337    72.930481   -571.45289    2212.6069    134065.03    10.472245   0.43643484 
    9100   -650.89536    81.438858    -569.4565    2470.7389    130528.56    10.472245   0.38497732 
    9200   -644.34322    80.480994   -563.86223    2441.6787    136098.59    10.472245   0.44534294 
    9300   -644.25949    86.429991    -557.8295    2622.1628    139748.73    10.472245   0.33982284 
    9400   -649.67213    79.576777   -570.09535     2414.246       128148    10.472245   0.33647568 
    9500   -647.90482    74.541117    -573.3637    2261.4713    130772.72    10.472245   0.44740757 
    9600   -642.04715    80.970785   -561.07637    2456.5382     139754.1    10.472245   0.35687652 
    9700   -653.08175     82.98774   -570.09401    2517.7298    125357.67    10.472245    0.3498489 
    9800   -653.56499    77.428734   -576.13626    2349.0775    124452.91    10.472245   0.35221856 
    9900   -645.73509    78.025733   -567.70936    2367.1896    136872.04    10.472245   0.37434444 
   10000   -645.82007     80.42083   -565.39924    2439.8534    133805.81    10.472245   0.38712215 
   10100   -648.95708    81.636186   -567.32089    2476.7256    132174.73    10.472245   0.37876271 
   10200   -652.09712    75.285307   -576.81181     2284.049    124815.73    10.472245   0.34295767 
   10300   -649.08796    81.173722   -567.91424    2462.6951    130829.59    10.472245   0.36380682 
   10400   -639.61708     76.79452   -562.82256    2329.8363     143360.3    10.472245   0.43976548 
   10500   -653.35316    74.122255   -579.23091    2248.7636    123654.48    10.472245   0.33076677 
   10600    -652.6563    83.044445   -569.61186    2519.4501    127448.36    10.472245   0.33313274 
   10700    -648.2588    82.903654   -565.35514    2515.1787    131589.81    10.472245    0.3973042 
   10800   -646.01172    79.055521    -566.9562    2398.4319     134386.2    10.472245   0.38916621 
   10900   -650.46014    74.953141     -575.507    2273.9715    128412.23    10.472245   0.37125435 
   11000   -644.56483    82.905911   -561.65892    2515.2472     135408.5    10.472245   0.40390722 
   11100   -648.77536    80.465297   -568.31006    2441.2025    133509.56    10.472245   0.40501013 
   11200   -654.91597    83.049499   -571.86647    2519.6035    122691.28    10.472245   0.36346766 
   11300   -646.56378    77.445178   -569.11861    2349.5764    134556.31    10.472245   0.33146905 
   11400   -648.24088    77.580707   -570.66017    2353.6881    132369.95    10.472245   0.39151585 
   11500   -652.15973    77.851087   -574.30864    2361.8911    128075.47    10.472245   0.33321038 
   11600   -645.10286    82.486736   -562.61613      2502.53    136181.98    10.472245   0.37666853 
   11700   -649.92405    80.089844    -569.8342    2429.8117    130386.33    10.472245   0.37379185 
   11800   -649.12818    74.379772   -574.74841    2256.5763    128198.56    10.472245   0.37022403 
   11900   -643.19157    78.476719   -564.71485    2380.8718    136907.64    10.472245    0.3591178 
   12000   -649.39588    77.046729   -572.34915     2337.488     129944.3    10.472245   0.36017819 
   12100   -654.57245    68.722097   -585.85036    2084.9305    120692.04    10.472245    0.3264852 
   12200   -651.57173    78.853167   -572.71857    2392.2927    127975.61    10.472245   0.33329239 
   12300   -640.21697    74.670221   -565.54675    2265.3881    140496.17    10.472245   0.41884942 
   12400   -645.49186    89.936832   -555.55502    2728.5553    137235.28    10.472245   0.41105249 
   12500   -641.13142    69.872509   -571.25891    2119.8324    138079.18    10.472245   0.37376712 
   12600   -649.53739      79.7827   -569.75469    2420.4935    131020.46    10.472245   0.40065403 
   12700   -646.15257     84.82997    -561.3226    2573.6204    137044.19    10.472245   0.40161475 
   12800   -652.40079    77.714141   -574.68665    2357.7363    126920.07    10.472245   0.33718523 
   12900   -645.90311    74.530066   -571.37305     2261.136    133225.99    10.472245   0.36140451 
   13000   -648.30999    84.413898   -563.89609    2560.9974    132335.13    10.472245   0.35163779 
   13100   -651.13501    73.905631   -577.22938    2242.1915    125944.29    10.472245   0.34758915 
   13200   -642.11458    81.374058   -560.74052     2468.773    141588.23    10.472245   0.35237966 
   13300   -643.83278    75.315848   -568.51693    2284.9755    138193.31    10.472245    0.4061409 
   13400   -651.47054    80.416753   -571.05379    2439.7297    127613.84    10.472245   0.35407392 
   13500   -647.07462    89.330767   -557.74385    2710.1682    136205.66    10.472245   0.39488637 
   13600   -645.91324    75.933943    -569.9793    2303.7276     134471.4    10.472245   0.33361721 
   13700   -650.46502    80.388238   -570.07679    2438.8646    129708.57    10.472245   0.39720937 
   13800   -637.63984    80.942058   -556.69778    2455.6667    146140.97    10.472245   0.40711573 
   13900   -644.82078     78.55572   -566.26506    2383.2686    136744.49    10.472245   0.38628862 
   14000   -652.73444    80.084458   -572.64999    2429.6484    128120.16    10.472245   0.31622929 
   14100   -651.02094    74.440927   -576.58001    2258.4316    127114.31    10.472245   0.35533832 
   14200   -647.38665    85.100453    -562.2862    2581.8265    134723.96    10.472245   0.41846051 
   14300   -651.87229    82.894511   -568.97778    2514.9014    128299.59    10.472245   0.34181719 
   14400   -647.49248    70.981305   -576.51118    2153.4717    131995.57    10.472245   0.37644281 
   14500   -647.58021    80.646339   -566.93387     2446.695    133274.61    10.472245   0.39371053 
   14600   -647.47335    79.579452    -567.8939    2414.3272     133102.6    10.472245   0.34921875 
   14700   -644.99174    71.356711   -573.63503    2164.8609    134797.39    10.472245   0.38002195 
   14800   -643.99724    74.005011   -569.99223    2245.2066     134913.1    10.472245   0.45989155 
   14900   -641.51693     81.01515   -560.50178    2457.8842    141718.03    10.472245   0.42162594 
   15000   -645.49279    75.738858   -569.75393     2297.809    134052.34    10.472245   0.45441796 
   15100   -654.83512    73.072418    -581.7627     2216.913    123671.53    10.472245   0.35403142 
   15200   -648.57707    79.098957   -569.47812    2399.7496    131222.34    10.472245   0.39200225 
   15300   -648.45723    83.107931   -565.34929    2521.3762    133334.98    10.472245   0.35213008 
   15400   -651.89539    73.292157   -578.60323    2223.5796    126477.51    10.472245   0.34890108 
   15500    -649.2607    77.468102   -571.79259    2350.2718    130075.65    10.472245   0.35475373 
   15600   -646.83967    79.902491   -566.93718    2424.1277    135479.85    10.472245   0.38438479 
   15700    -648.3765    84.784454   -563.59205    2572.2395    133478.76    10.472245   0.37357388 
   15800   -647.17586    76.935189   -570.24067     2334.104    134683.74    10.472245   0.40453039 
   15900   -657.52862    81.556502   -575.97212    2474.3081     120288.3    10.472245   0.32702541 
   16000   -642.63737    81.779521   -560.85785    2481.0742    140308.58    10.472245   0.38118476 
   16100   -648.27173     77.52307   -570.74866    2351.9395    132567.07    10.472245   0.35685596 
   16200   -651.87829    78.202715   -573.67557     2372.559    127632.09    10.472245   0.31851896 
   16300   -647.49601    78.688882   -568.80713    2387.3086    132132.27    10.472245    0.3421598 
   16400   -640.82278    86.301809   -554.52097    2618.2739    144654.29    10.472245   0.37254724 
   16500   -643.10751    78.646271   -564.46124    2386.0158    138256.29    10.472245    0.4582022 
   16600   -651.66657    79.742147   -571.92442    2419.2631    127567.16    10.472245   0.36087864 
   16700   -644.14756    82.026615   -562.12094    2488.5706    138253.14    10.472245   0.41112427 
   16800   -645.53198    81.400996   -564.13099    2469.5903    135431.25    10.472245   0.33597933 
   16900   -653.83262     82.23937   -571.59325    2495.0253    125663.91    10.472245   0.36046834 
   17000   -647.01118    81.866344   -565.14483    2483.7082    134209.02    10.472245   0.36986873 
   17100   -641.61395    80.237871   -561.37608    2434.3027    140300.29    10.472245    0.3867713 
   17200     -648.377    72.211616   -576.16539    2190.7975    129591.77    10.472245   0.36350624 
   17300   -650.60287    84.594843   -566.00802     2566.487    131353.68    10.472245   0.36121001 
   17400   -643.55554    77.188393   -566.36714    2341.7859     137060.4    10.472245   0.37494331 
   17500   -650.95314    79.639938   -571.31321    2416.1622    129936.45    10.472245   0.34553325 
   17600   -652.81724    70.053591   -582.76365    2125.3261    124625.54    10.472245   0.38398185 
   17700   -645.45564    76.332923   -569.12272    2315.8321    134181.75    10.472245   0.40524407 
   17800   -650.28222    84.817618    -565.4646    2573.2457    128761.51    10.472245   0.34887355 
   17900   -650.42868    73.779328   -576.64935    2238.3597    128692.04    10.472245   0.36473717 
   18000   -648.64218    77.090949   -571.55123    2338.8296    131404.41    10.472245   0.37864493 
   18100   -642.66789    79.717702   -562.95019    2418.5215    140424.86    10.472245   0.43041781 
   18200   -645.95295     76.23304   -569.71991    2312.8018    135014.21    10.472245   0.41590759 
   18300   -644.43752    76.067206   -568.37031    2307.7706    135465.51    10.472245    0.4862038 
   18400   -642.01563    81.758923   -560.25671    2480.4492    140690.02    10.472245   0.48916014 
   18500   -643.61676     79.04746    -564.5693    2398.1873    138900.47    10.472245   0.50066986 
   18600   -651.49904    78.782917   -572.71612    2390.1615    128376.43    10.472245   0.50087593 
   18700   -642.56111    80.909537   -561.65157    2454.6801    139736.91    10.472245   0.51446441 
   18800   -642.08922    84.409779   -557.67944    2560.8724    141506.11    10.472245   0.49101669 
   18900   -645.37547    78.728082   -566.64739    2388.4978    134300.88    10.472245   0.47894323 
   19000   -649.21991    73.447611    -575.7723    2228.2959    128318.97    10.472245   0.49199568 
   19100   -645.05003    77.816264   -567.23376    2360.8346    134678.05    10.472245   0.50534713 
   19200   -642.98313    81.119772   -561.86336    2461.0583    139147.62    10.472245   0.51254738 
   19300   -646.78398    71.167598   -575.61638    2159.1235    131800.83    10.472245   0.46999032 
   19400   -646.66851    76.904389   -569.76412    2333.1696    134263.83    10.472245   0.49019272 
   19500   -645.20912    83.102714   -562.10641    2521.2179    138715.91    10.472245   0.51252804 
   19600   -648.59671    74.501506    -574.0952    2260.2695    129316.34    10.472245   0.52730599 
   19700   -652.69359    79.475375   -573.21822    2411.1696    127255.41    10.472245   0.50456432 
   19800   -644.42902    82.114417    -562.3146    2491.2344     136630.5    10.472245   0.51543967 
   19900   -650.77704     80.53524    -570.2418    2443.3244     127292.1    10.472245   0.51302705 
   20000   -651.67482    69.452736   -582.22209     2107.097    125323.58    10.472245   0.49501855 
   20100   -649.57952    78.640909   -570.93861    2385.8531    129873.02    10.472245   0.45890196 
   20200    -643.3095    76.270578   -567.03893    2313.9407    138595.69    10.472245   0.53249187 
   20300   -646.07294    91.369028   -554.70391    2772.0061    139104.79    10.472245   0.50660446 
   20400    -654.6641     87.61978   -567.04432    2658.2593    123428.71    10.472245   0.47722429 
   20500   -648.50905    78.841936   -569.66711     2391.952    131328.19    10.472245    0.5189123 
   20600   -641.83716    81.567858    -560.2693    2474.6526    140398.97    10.472245   0.57863339 
   20700   -640.30877    83.335453   -556.97332    2528.2789    144730.83    10.472245   0.54292009 
   20800   -643.33295    73.891083   -569.44187    2241.7502    135654.77    10.472245   0.45087611 
   20900   -651.37996    74.777545   -576.60241    2268.6442    126387.54    10.472245   0.49416372 
   21000   -644.20024    78.695987   -565.50425    2387.5241    137504.65    10.472245   0.52002613 
   21100   -646.77229    82.141527   -564.63076    2492.0569    134570.57    10.472245   0.51434699 
   21200   -653.50766    81.156145   -572.35152    2462.1618    125510.15    10.472245   0.46991412 
   21300   -649.20146    71.848106   -577.35335    2179.7692    130728.43    10.472245   0.47104095 
   21400   -642.44065    78.894915   -563.54573    2393.5593    139185.05    10.472245   0.59916533 
   21500    -643.5853    76.837599    -566.7477    2331.1433     138225.4    10.472245   0.52619434 
   21600   -652.71178    82.348125   -570.36365    2498.3248    126487.11    10.472245   0.46709715 
   21700   -645.16233    78.473146   -566.68918    2380.7634    135427.19    10.472245   0.50220726 
   21800   -644.23338     80.77279   -563.46059    2450.5314    138914.45    10.472245   0.49459474 
   21900   -649.34837    75.263531   -574.08484    2283.3883    129277.56    10.472245   0.50703686 
   22000   -656.68812    89.665421    -567.0227    2720.3211    123648.32    10.472245   0.45607266 
   22100    -638.1027    80.394266   -557.70843    2439.0475    144583.98    10.472245   0.59647118 
   22200   -643.85801    79.619182   -564.23883    2415.5325     137455.7    10.472245   0.49496549 
   22300    -650.3008    75.319275   -574.98152    2285.0795     128882.2    10.472245   0.46277425 
   22400   -653.59925    84.116862   -569.48239    2551.9857    125968.34    10.472245   0.45016797 
   22500   -644.84884    75.181404   -569.66743    2280.8967    134547.81    10.472245   0.51707147 
   22600   -649.50322    78.449959   -571.05326      2380.06    129455.38    10.472245   0.45197066 
   22700   -650.33951    73.806949   -576.53257    2239.1977    127677.46    10.472245   0.50255344 
   22800   -641.49143    78.030284   -563.46115    2367.3276     140718.2    10.472245   0.53152495 
   22900   -646.94185    84.058169   -562.88368    2550.2051    135133.26    10.472245   0.46103373 
   23000   -643.77932     75.30057   -568.47875     2284.512    135983.75    10.472245   0.53809026 
   23100   -647.24102    81.269227    -565.9718    2465.5925    135272.27    10.472245   0.54508798 
   23200   -649.65236    75.310867   -574.34149    2284.8244    129403.05    10.472245   0.45098356 
   23300   -650.92906    77.214139   -573.71492     2342.567    128861.69    10.472245   0.50300749 
   23400   -641.14787    79.444786   -561.70308    2410.2416    139776.21    10.472245     0.555855 
   23500   -652.42907    79.635627   -572.79344    2416.0315    127875.47    10.472245   0.51078751 
   23600   -648.00777    77.713938   -570.29383    2357.7301    133135.39    10.472245   0.53744661 
   23700   -645.05403    77.282291   -567.77174    2344.6346     136479.3    10.472245   0.48269221 
   23800   -655.43671     75.25333   -580.18338    2283.0788    122694.45    10.472245   0.47254535 
   23900   -645.21993    81.829664   -563.39027    2482.5954    138147.42    10.472245   0.46958755 
   24000   -648.99699    77.487293    -571.5097    2350.8541    129790.49    10.472245   0.48440242 
   24100   -645.03458    74.308584   -570.72599    2254.4166    134001.89    10.472245   0.49802758 
   24200   -638.01479    79.234868   -558.77992     2403.873    145844.09    10.472245   0.59401916 
   24300    -653.1725    81.899513   -571.27299    2484.7145    128413.07    10.472245   0.48329291 
   24400   -647.18337    75.397199   -571.78617    2287.4436    132249.47    10.472245   0.49322316 
   24500    -646.3087    77.207993   -569.10071    2342.3805    133991.54    10.472245   0.53341616 
   24600   -651.02055    81.865749    -569.1548    2483.6902    128404.14    10.472245    0.4797951 
   24700   -655.36584    75.646315   -579.71952    2295.0014    123587.71    10.472245   0.47269176 
   24800   -644.80545    79.295403   -565.51005    2405.7095     136409.4    10.472245   0.51074219 
   24900   -643.42729    77.851612   -565.57568     2361.907    136480.87    10.472245   0.51611724 
   25000   -651.10137    70.740336   -580.36104     2146.161    126958.28    10.472245   0.48941042 
   25100   -649.13206    76.897757    -572.2343    2332.9684    130515.71    10.472245   0.53773563 
   25200   -644.86126    82.435619   -562.42565    2500.9792     136665.1    10.472245   0.52517587 
   25300   -646.49098    73.802654   -572.68833    2239.0674    132673.13    10.472245   0.54944379 
   25400   -652.03882    69.342227   -582.69659    2103.7444    125319.48    10.472245   0.51795163 
   25500    -644.1458    78.564039   -565.58176     2383.521    137821.91    10.472245   0.51661452 
   25600   -646.16647    78.195466     -567.971     2372.339    135456.28    10.472245   0.52346643 
   25700   -651.17819    73.198369   -577.97982    2220.7342    126539.12    10.472245   0.49635506 
   25800   -644.13118    80.869045   -563.26213    2453.4516    136887.63    10.472245   0.51400955 
   25900   -651.76435     82.57412   -569.19023    2505.1811     129179.3    10.472245   0.47445412 
   26000   -652.24382    79.424681   -572.81913    2409.6317    126160.56    10.472245   0.49249846 
   26100    -642.2097    82.742164   -559.46754    2510.2794    139747.31    10.472245   0.60265912 
   26200   -645.08593    78.732282   -566.35365    2388.6253    136316.65    10.472245   0.55219794 
   26300   -654.14036    76.511754   -577.62861    2321.2576    124684.32    10.472245   0.50712513 
   26400   -655.23513    87.482794   -567.75233    2654.1033    124141.95    10.472245   0.47090628 
   26500   -649.51052    83.855522     -565.655    2544.0571    131238.02    10.472245   0.55905052 
   26600   -648.71247    76.125546   -572.58693    2309.5406    128768.27    10.472245   0.48713701 
   26700   -653.73902    79.691584   -574.04744    2417.7291    124847.32    10.472245   0.49030706 
   26800   -643.93348    78.096457   -565.83702    2369.3352    137842.35    10.472245   0.49436793 
   26900   -647.75133    78.184694   -569.56664    2372.0122    132266.93    10.472245   0.52820919 
   27000    -645.8068    77.424158   -568.38264    2348.9386    135226.71    10.472245   0.52902172 
   27100   -647.84535     79.80009   -568.04526     2421.021    132203.39    10.472245   0.52896476 
   27200   -646.06309    76.109208   -569.95389    2309.0449    133808.34    10.472245   0.49330093 
   27300   -653.75706    76.611222   -577.14584    2324.2753    126033.68    10.472245   0.45801714 
   27400    -643.5806    80.576946   -563.00365    2444.5897    139948.16    10.472245   0.52388102 
   27500   -642.74957    74.859969    -567.8896    2271.1448     138846.4    10.472245   0.51170216 
   27600   -652.12461    78.858446   -573.26616    2392.4529    125849.82    10.472245   0.48661192 
   27700   -654.25426     85.92984   -568.32442    2606.9889    126527.54    10.472245   0.49314304 
   27800   -648.16957    84.351428   -563.81814    2559.1022    132439.33    10.472245   0.54208499 
   27900   -648.36019     85.74952   -562.61067    2601.5183    132880.01    10.472245   0.49442438 
   28000   -638.94866    68.773717   -570.17495    2086.4966    141144.96    10.472245   0.57633461 
   28100   -653.46389    81.591069   -571.87282    2475.3568    124509.16    10.472245   0.50638889 
   28200   -647.11214    77.426188   -569.68595    2349.0002    132195.89    10.472245   0.54813192 
   28300   -638.09653    80.632198   -557.46433     2446.266    144968.33    10.472245    0.5852881 
   28400   -646.32027    77.670221   -568.65005    2356.4038    135758.58    10.472245   0.49651353 
   28500   -652.86729    81.196547   -571.67074    2463.3875    125957.22    10.472245   0.54452821 
   28600   -641.36784    79.635571   -561.73226    2416.0298    142210.38    10.472245   0.53895476 
   28700   -650.05925    77.224542   -572.83471    2342.8826    129499.39    10.472245   0.50593668 
   28800   -648.82944    75.365165   -573.46428    2286.4717       131957    10.472245   0.51560477 
   28900   -647.09539    81.826244   -565.26915    2482.4916    132984.65    10.472245   0.53911774 
   29000   -653.15334    85.420267   -567.73307    2591.5292    128150.14    10.472245   0.48599136 
   29100   -652.30775    81.543696   -570.76405    2473.9195    128646.08    10.472245   0.45473913 
   29200   -644.04456    75.146534   -568.89803    2279.8388    137296.91    10.472245   0.54374751 
   29300   -644.59283    84.800108   -559.79272    2572.7145    137549.93    10.472245   0.48720644 
   29400   -649.22973    76.511868   -572.71786     2321.261    130203.16    10.472245   0.54656942 
   29500   -645.21962    77.478401   -567.74122    2350.5843    133508.98    10.472245   0.52721139 
   29600   -640.32351    84.500884   -555.82263    2563.6364    142543.88    10.472245   0.51542923 
   29700   -649.77223     79.88308   -569.88915    2423.5388    129928.55    10.472245   0.46524961 
   29800   -650.34829    80.494632   -569.85366    2442.0924    128814.95    10.472245   0.48379171 
   29900   -643.66422    81.214585   -562.44964    2463.9348    138860.53    10.472245    0.5213861 
   30000   -649.71892     77.71366   -572.00526    2357.7217    130857.79    10.472245   0.50680219 
   30100   -650.17651    78.213713    -571.9628    2372.8926    128721.12    10.472245   0.51167286 
   30200    -644.4128    85.760659   -558.65214    2601.8562    139842.39    10.472245   0.50791366 
   30300   -644.95185    78.139059   -566.81279    2370.6277    135364.62    10.472245   0.49261867 
   30400   -643.10023     72.13961   -570.96062     2188.613    136403.82    10.472245   0.52210312 
   30500   -640.87029    81.974992    -558.8953    2487.0044    141482.76    10.472245   0.58639926 
   30600   -645.30305    74.551709   -570.75134    2261.7926    134379.55    10.472245   0.53311178 
   30700   -646.54633     76.80703    -569.7393    2330.2159    133670.96    10.472245   0.50560989 
   30800   -643.95992    79.489049   -564.47087    2411.5845    138272.23    10.472245   0.52320871 
   30900   -654.13469    78.860464   -575.27422    2392.5141     124129.5    10.472245   0.45583516 
   31000   -645.17492    79.110557   -566.06436    2400.1016    136282.71    10.472245   0.47032606 
   31100   -641.27196    78.733408   -562.53855    2388.6594    140932.75    10.472245   0.57216196 
   31200   -646.53842    71.600917    -574.9375    2172.2698    132448.49    10.472245   0.52938575 
   31300   -647.72882    74.817728   -572.91109    2269.8633    132857.68    10.472245   0.49113979 
   31400   -641.30203    78.143654   -563.15837    2370.7671    143142.27    10.472245   0.51677408 
   31500   -645.79327    75.650618   -570.14266    2295.1319     133896.5    10.472245   0.55076018 
   31600    -649.3159    80.225584   -569.09032    2433.9299    130534.24    10.472245   0.50127898 
   31700   -646.75082    75.933899   -570.81692    2303.7263    132413.76    10.472245   0.50923749 
   31800   -646.44521    73.470174   -572.97504    2228.9804    132434.18    10.472245   0.51378648 
   31900   -642.27637    80.778887   -561.49749    2450.7163    139480.48    10.472245   0.55751219 
   32000   -649.47807    74.893792   -574.58428    2272.1709    128880.27    10.472245   0.50223333 
   32100   -646.92787    76.771815   -570.15605    2329.1475    133239.01    10.472245   0.55125996 
   32200   -645.70683    81.271244   -564.43558    2465.6538    136720.45    10.472245   0.51299394 
   32300   -644.53863    66.960425    -577.5782    2031.4839    134326.49    10.472245   0.58678259 
   32400   -642.57083    81.116412   -561.45442    2460.9564    137906.05    10.472245   0.54238872 
   32500   -649.88113    79.910442   -569.97069    2424.3689    130563.15    10.472245   0.55146686 
   32600   -649.07282    77.764018    -571.3088    2359.2495    128935.48    10.472245   0.49716768 
   32700   -640.48974    79.516378   -560.97336    2412.4136    142289.63    10.472245   0.52099317 
   32800   -644.38436    70.344006   -574.04035    2134.1369    131888.25    10.472245    0.4666498 
   32900   -648.55274    76.109879   -572.44286    2309.0653    129844.98    10.472245   0.50619247 
   33000   -646.63115    77.820595   -568.81056     2360.966    133918.49    10.472245   0.47272157 
   33100   -647.15401    76.961161   -570.19285     2334.892    133249.02    10.472245    0.4562906 
   33200   -648.56268    73.362325   -575.20035    2225.7084    129765.19    10.472245   0.47335828 
   33300   -646.02596    81.921099   -564.10486    2485.3694    134851.14    10.472245   0.54147447 
   33400   -643.92225    80.590077   -563.33217    2444.9881    137086.38    10.472245   0.57016217 
   33500   -656.89984    79.033882   -577.86596    2397.7754    119644.63    10.472245   0.46700254 
   33600   -646.30785    81.130517   -565.17733    2461.3843    135089.62    10.472245   0.47992849 
   33700   -646.44823    76.732321   -569.71591    2327.9493    132070.52    10.472245   0.48900085 
   33800   -653.87839    76.404057   -577.47433    2317.9902    125681.35    10.472245   0.46714138 
   33900   -645.60367    76.514351   -569.08932    2321.3364    135393.34    10.472245   0.51188219 
   34000   -641.85242    79.611894   -562.24053    2415.3114     141119.2    10.472245   0.51006263 
   34100   -642.96947    75.003247   -567.96623    2275.4917     140397.3    10.472245   0.54456583 
   34200   -653.02095    81.023028   -571.99793    2458.1232    126889.82    10.472245   0.46079357 
   34300   -653.45625     76.36559   -577.09066    2316.8232    123989.24    10.472245   0.47859068 
   34400   -647.48881    83.639837   -563.84897    2537.5135    135281.44    10.472245   0.50164168 
   34500   -643.92033    74.338431    -569.5819    2255.3221    136883.48    10.472245   0.54526741 
   34600   -664.76133    82.849176   -581.91215    2513.5259    111079.76    10.472245    0.4226877 
   34700   -650.10222     83.56389   -566.53833    2535.2094    130799.15    10.472245   0.51801419 
   34800   -643.09987    80.822423   -562.27745    2452.0372    138980.58    10.472245   0.51192166 
   34900   -653.47292    79.155043   -574.31788    2401.4512    126007.93    10.472245   0.50308604 
   35000   -642.63218     74.87102   -567.76116    2271.4801    139324.88    10.472245   0.58993424 
   35100   -643.71321    79.017489   -564.69572     2397.278    136825.74    10.472245   0.50464758 
   35200   -652.31195    76.746198   -575.56575    2328.3703    125844.24    10.472245   0.47161253 
   35300   -649.11096    84.710156    -564.4008    2569.9854    131851.59    10.472245   0.44625682 
   35400   -647.95682    81.067425    -566.8894    2459.4702    134759.32    10.472245   0.49825093 
   35500   -653.57417    78.857766    -574.7164    2392.4323    124904.82    10.472245   0.46510359 
   35600   -647.31203    77.371869   -569.94016    2347.3523    133182.63    10.472245   0.44377245 
   35700   -642.28022    72.774234   -569.50599    2207.8666    136037.03    10.472245   0.55695919 
   35800   -646.42728    88.610081    -557.8172    2688.3036     134741.6    10.472245   0.49543432 
   35900   -641.75074    74.803987   -566.94676    2269.4464     137535.6    10.472245   0.49613348 
   36000    -651.7937    79.476522   -572.31718    2411.2044    127717.61    10.472245   0.50399314 
   36100   -639.78364    73.950351   -565.83329    2243.5483    140578.48    10.472245   0.53595301 
   36200   -641.23237    86.364709   -554.86766    2620.1822    141476.72    10.472245   0.54761371 
   36300    -645.1864    75.490303    -569.6961    2290.2682    135179.45    10.472245   0.53653648 
   36400   -644.81656    82.661168    -562.1554    2507.8221    138322.21    10.472245   0.52996002 
   36500    -643.8713    82.206703   -561.66459    2494.0342    137186.51    10.472245   0.53218836 
   36600   -650.18923    76.936104   -573.25313    2334.1318    128676.62    10.472245   0.48881444 
   36700   -648.52424    83.653761   -564.87048    2537.9359    132068.63    10.472245   0.50086256 
   36800     -639.485    83.062314   -556.42268    2519.9923    145576.01    10.472245   0.55233005 
   36900   -650.32378    78.410739   -571.91304    2378.8701    127912.41    10.472245   0.49204902 
   37000   -654.16634    84.069755   -570.09658    2550.5566    125195.87    10.472245    0.4865731 
   37100    -641.8859    85.512394   -556.37351    2594.3242    141143.32    10.472245   0.53448297 
   37200   -627.12473    79.443531    -547.6812    2410.2035    158151.07    10.472245   0.71201747 
   37300    -640.5923     75.01443   -565.57787    2275.8309    139307.76    10.472245   0.51274277 
   37400   -653.97204    79.642012   -574.33003    2416.2252    124773.81    10.472245    0.4681083 
   37500   -642.19039    81.178732   -561.01166    2462.8471       139041    10.472245   0.58328531 
   37600   -641.15418    78.613687   -562.54049    2385.0273    140517.14    10.472245   0.51132873 
   37700   -647.23714    75.600673   -571.63646    2293.6167    133743.42    10.472245   0.53379711 
   37800   -648.59942    80.215548   -568.38387    2433.6254    132075.62    10.472245   0.51256085 
   37900   -643.38975    87.786236   -555.60351    2663.3093     141130.1    10.472245   0.57687885 
   38000   -645.40835    77.844102   -567.56424    2361.6792    135069.72    10.472245   0.62659654 
   38100   -648.05122    81.678388   -566.37283    2478.0059    134789.41    10.472245   0.70933011 
   38200   -635.95966    83.822468   -552.13719    2543.0542    148485.12    10.472245   0.83594132 
   38300    -642.7139    83.591994    -559.1219     2536.062    139910.25    10.472245   0.83091501 
   38400    -647.3421    81.428523   -565.91358    2470.4254    135290.35    10.472245   0.76211629 
   38500   -638.19313    79.567006   -558.62612    2413.9496    145927.03    10.472245   0.97971402 
   38600   -630.19194     87.55509   -542.63685    2656.2967    157204.62    10.472245    1.0771941 
   38700   -630.39538    76.388627   -554.00676    2317.5221    153973.75    10.472245     1.799257 
   38800   -619.89597    76.638092   -543.25788    2325.0905    168559.38    10.472245    2.3364327 
   38900   -617.78093    73.683712   -544.09722    2235.4588    169917.06    10.472245    3.0966695 
   39000   -611.71923    79.366044   -532.35319    2407.8527    181835.44    10.472245     3.989036 
   39100   -616.30385    81.658358   -534.64549    2477.3982    176011.48    10.472245    4.7686583 
   39200   -617.04603    75.297024   -541.74901    2284.4044    171432.37    10.472245    5.4834843 
   39300   -615.24847       78.371   -536.87747    2377.6645    174940.89    10.472245    6.2246321 
   39400   -605.09603    82.928175   -522.16785    2515.9227    189322.18    10.472245    7.3582229 
   39500   -622.28051    82.163029   -540.11749    2492.7092    170396.34    10.472245    8.6747341 
   39600   -614.60138    81.778058   -532.82332    2481.0298    176753.64    10.472245    9.0524405 
   39700   -611.88632    79.964258   -531.92206    2426.0017    181887.23    10.472245    9.6257295 
   39800   -620.06466    75.358211   -544.70645    2286.2608    169950.18    10.472245     11.16989 
   39900   -609.88934    76.196207   -533.69313    2311.6844    180822.44    10.472245    12.234694 
   40000   -607.47197    74.148037   -533.32394    2249.5458    186356.55    10.472245    13.092746 
   40100   -622.04175    72.770315   -549.27143    2207.7477    166031.56    10.472245     15.26502 
   40200   -619.59285    83.304141   -536.28871    2527.3289    171214.87    10.472245    16.092935 
   40300   -618.88723     80.59789   -538.28934    2445.2251    171310.82    10.472245    16.868466 
   40400   -615.63071    73.098173   -542.53253    2217.6944    172875.53    10.472245    17.454818 
   40500   -610.01798    80.256279    -529.7617    2434.8612    182203.07    10.472245    18.972426 
   40600    -612.3596    75.332437   -537.02716    2285.4788    177790.15    10.472245    20.058036 
   40700   -612.54172    79.571966   -532.96975    2414.1001    179336.68    10.472245    20.742715 
   40800   -614.46067    77.741073    -536.7196    2358.5534    178559.54    10.472245    22.109607 
   40900   -616.45608    72.271828   -544.18425    2192.6243    172060.41    10.472245    22.133218 
   41000   -611.45399    82.082348   -529.37164    2490.2615       179810    10.472245    23.147915 
   41100   -617.41219    79.421609   -537.99058    2409.5384    175814.99    10.472245    25.492244 
   41200   -615.88575    76.257909   -539.62784    2313.5563    174342.39    10.472245    26.181625 
   41300   -616.01062    78.824711   -537.18591    2391.4294    175315.35    10.472245    26.605688 
   41400   -615.91842    83.120919   -532.79751    2521.7702    176700.64    10.472245    27.242694 
   41500   -620.23435    74.663503   -545.57085    2265.1843    169383.61    10.472245    28.953774 
   41600   -616.07574    78.421764   -537.65398    2379.2046    176551.76    10.472245    29.677865 
   41700   -616.01542    82.024612   -533.99081    2488.5099    178190.77    10.472245    30.735403 
   41800   -616.20368    74.495614   -541.70807    2260.0908    173869.44    10.472245    32.547353 
   41900   -614.90243    73.464278   -541.43815    2228.8015    175637.72    10.472245    33.115984 
   42000    -615.3247    85.055303   -530.26939    2580.4567    178733.28    10.472245    33.321806 
   42100   -615.94448    73.203451   -542.74103    2220.8884    171642.12    10.472245    34.491188 
   42200   -617.41629    78.219392    -539.1969    2373.0649    173635.99    10.472245    35.057701 
   42300   -616.37317    70.664037   -545.70913    2143.8462    169592.65    10.472245     35.53745 
   42400   -620.81445     79.44197   -541.37248    2410.1562    169848.89    10.472245    36.913723 
   42500   -615.26589     80.03475   -535.23114    2428.1403    175436.43    10.472245    37.953811 
   42600   -623.09582    74.188783   -548.90703     2250.782    165406.07    10.472245    38.992979 
   42700   -623.26683     81.82033    -541.4465    2482.3122    165722.86    10.472245    40.484158 
   42800   -620.38112    81.058984   -539.32214    2459.2141    169576.73    10.472245      41.7839 
   42900   -619.63726    81.779599   -537.85766    2481.0765     171260.3    10.472245     43.22317 
   43000   -612.84109    79.771113   -533.06998    2420.1419    176978.58    10.472245    44.344945 
   43100   -620.23669    81.519329   -538.71737    2473.1803    169869.13    10.472245    46.596852 
   43200   -614.03141    72.491814    -541.5396    2199.2983    174816.24    10.472245    47.755114 
   43300   -613.12727    79.531991   -533.59527    2412.8873    177986.31    10.472245    49.457241 
   43400   -621.52859    82.152146   -539.37644    2492.3791    167246.74    10.472245    49.815372 
   43500   -620.69997    64.945475    -555.7545    1970.3532    167822.86    10.472245      50.7079 
   43600   -623.27505    78.690808   -544.58424     2387.367    164994.18    10.472245    49.988365 
   43700   -611.19676    77.644662    -533.5521    2355.6284    180784.03    10.472245    50.614389 
   43800   -616.33583    76.524362   -539.81147    2321.6401    175197.84    10.472245    50.806869 
   43900   -621.37642    73.951702   -547.42472    2243.5893    164361.22    10.472245     52.87376 
   44000   -615.08814    77.555292   -537.53285    2352.9171    176347.57    10.472245    54.089003 
   44100   -617.08862    78.787286   -538.30133     2390.294    172630.39    10.472245    56.364892 
   44200   -622.50279     75.83945   -546.66334    2300.8609    166757.13    10.472245    56.717561 
   44300   -620.52465    78.183219   -542.34143    2371.9675    167410.07    10.472245    58.076608 
   44400   -616.32774    86.089895   -530.23785    2611.8448     177529.7    10.472245    58.868427 
   44500   -624.81826    82.542841   -542.27542    2504.2322    162483.88    10.472245    59.651118 
   44600   -617.53617    75.617757   -541.91841     2294.135    170347.63    10.472245    61.183082 
   44700   -612.17353    79.264587   -532.90894    2404.7746    181513.01    10.472245    62.977522 
   44800     -605.349    87.043159   -518.30584    2640.7654    187730.29    10.472245    63.905406 
   44900   -610.88619    73.718279   -537.16791    2236.5075    183219.26    10.472245    66.008971 
   45000   -624.33738    80.304949   -544.03243    2436.3377    164556.37    10.472245    67.858529 
   45100   -618.63314    83.575829   -535.05731    2535.5716    170070.35    10.472245     68.92095 
   45200     -616.425    82.596767   -533.82823    2505.8682    173379.16    10.472245    70.817449 
   45300   -618.13338    75.090241   -543.04314    2278.1309    168229.11    10.472245    71.390034 
   45400   -613.68813    86.144254   -527.54387    2613.4939    177864.39    10.472245    72.075883 
   45500   -620.37898    78.853851   -541.52513    2392.3135    168473.79    10.472245    73.718844 
   45600   -615.62579    80.894432   -534.73136    2454.2218    176616.01    10.472245    76.039762 
   45700   -614.51667    80.851665   -533.66501    2452.9243    176833.84    10.472245    78.567204 
   45800   -618.19425    79.020945   -539.17331    2397.3829    170875.82    10.472245    79.032279 
   45900   -615.51523    76.142507   -539.37272    2310.0552    172766.22    10.472245    80.780943 
   46000    -614.6815    78.122322   -536.55918    2370.1199    175670.34    10.472245    82.005989 
   46100   -615.04936    81.531212   -533.51815    2473.5408    179809.36    10.472245    84.348198 
   46200   -620.15499    78.886323   -541.26866    2393.2986    170324.26    10.472245    83.575493 
   46300   -615.96015    72.013621   -543.94652    2184.7907    173956.71    10.472245    84.149788 
   46400    -614.0306    84.124377   -529.90622    2552.2137    181231.22    10.472245    85.960479 
   46500   -616.62226    76.170322   -540.45194     2310.899    175727.37    10.472245    88.557655 
   46600    -616.1599    81.574266   -534.58563     2474.847    173521.66    10.472245    88.127944 
   46700   -610.81739     77.70541   -533.11198    2357.4714    181377.72    10.472245    88.574228 
   46800    -619.1979    76.936606   -542.26129     2334.147    172569.64    10.472245    89.475621 
   46900   -621.90133    92.592784   -529.30854    2809.1331    170170.89    10.472245    91.324355 
   47000   -618.98708     81.67917   -537.30791    2478.0296    171374.54    10.472245    93.112607 
   47100   -616.59497    79.460705   -537.13426    2410.7246    175210.47    10.472245    93.930651 
   47200   -614.87297    67.291951   -547.58102    2041.5419     174019.3    10.472245     93.79279 
   47300   -616.85657    81.082127   -535.77444    2459.9162    174722.78    10.472245    94.830632 
   47400   -614.29335    78.605549    -535.6878    2384.7804    174916.58    10.472245    97.837967 
   47500   -627.08275    79.428649    -547.6541     2409.752    160730.75    10.472245    98.852621 
   47600   -613.63298    70.396894   -543.23609    2135.7415    173226.35    10.472245    99.431813 
   47700   -611.07626    80.047844   -531.02842    2428.5375    182338.13    10.472245    100.82902 
   47800    -617.4449    75.084349   -542.36055    2277.9522    172327.08    10.472245     103.2117 
   47900     -618.971    77.434875   -541.53613    2349.2638       169594    10.472245    103.98993 
   48000   -616.47623    81.937164   -534.53907    2485.8568    177475.02    10.472245    105.73195 
   48100    -613.8221    79.899522   -533.92258    2424.0376    178406.19    10.472245     106.9596 
   48200   -620.71214    72.741677   -547.97046    2206.8788    167917.54    10.472245    108.83867 
   48300   -619.48259    74.330086    -545.1525    2255.0689    169486.84    10.472245    109.89068 
   48400   -616.57504    79.627617   -536.94742    2415.7884    174665.83    10.472245    112.09767 
   48500   -612.72999    81.438624   -531.29137    2470.7318    180598.22    10.472245    113.60349 
   48600   -609.69864    83.669993   -526.02865    2538.4284    183433.12    10.472245    116.21768 
   48700   -614.32148    74.131076    -540.1904    2249.0312    173301.92    10.472245    116.08397 
   48800    -611.6923     76.09182   -535.60048    2308.5174    180863.04    10.472245      116.286 
   48900   -605.39519    79.467305   -525.92788    2410.9248    189046.28    10.472245    117.76632 
   49000   -625.57611    87.405244   -538.17086    2651.7506     164856.2    10.472245    118.56501 
   49100   -615.58261    76.863128   -538.71948    2331.9178     175128.1    10.472245    120.40877 
   49200      -617.98    82.400789   -535.57921    2499.9225    175985.01    10.472245    120.84636 
   49300    -626.0248    76.915143   -549.10966    2333.4958    159695.04    10.472245    120.82922 
   49400   -615.25851    79.601511     -535.657    2414.9964    176662.89    10.472245    121.38572 
   49500    -610.6318     76.15145   -534.48035    2310.3265    179702.86    10.472245     121.1713 
   49600   -616.69072     74.51053   -542.18019    2260.5433    173090.25    10.472245    120.87526 
   49700   -620.07856    82.502119   -537.57644    2502.9967    171296.09    10.472245    122.39002 
   49800   -613.97096    80.766187   -533.20477     2450.331     178224.5    10.472245    123.69584 
   49900   -616.60256     78.04736    -538.5552    2367.8457    172094.58    10.472245    125.90201 
   50000   -616.65481    79.362656   -537.29215    2407.7499    173364.89    10.472245    126.46342 
   50100   -613.64621    74.403124   -539.24309    2257.2848    177709.81    10.472245    126.77675 
   50200   -622.84862    73.068769   -549.77986    2216.8023    164082.85    10.472245    126.45226 
   50300    -615.3315    80.886135   -534.44536    2453.9701    175293.66    10.472245    127.60052 
   50400   -615.50628    79.068921   -536.43736    2398.8384    175299.06    10.472245    130.05208 
   50500   -624.03158    75.392281    -548.6393    2287.2944    165235.61    10.472245    132.07881 
   50600   -614.41468     76.85909   -537.55559    2331.7953    176352.97    10.472245    133.71641 
   50700   -611.12001    75.421121   -535.69889    2288.1694    178255.06    10.472245    135.59789 
   50800   -612.52006    87.076835   -525.44323    2641.7871    181013.73    10.472245    134.97033 
   50900   -615.18143    79.280445   -535.90098    2405.2557    175198.59    10.472245    137.54771 
   51000   -611.67552    78.351846   -533.32368    2377.0834    180605.52    10.472245    138.37236 
   51100   -616.98142    77.876829   -539.10459     2362.672    173713.94    10.472245    138.66813 
   51200   -618.54162    75.110742   -543.43088    2278.7529    172194.14    10.472245    139.47457 
   51300    -614.4418    80.440133   -534.00166     2440.439    179403.42    10.472245    140.18951 
   51400   -616.91789    73.972787    -542.9451    2244.2289     171920.9    10.472245    140.41897 
   51500   -613.78942    73.392141   -540.39728     2226.613    175405.65    10.472245    141.69629 
   51600   -612.76081    79.618019   -533.14279    2415.4972    179478.63    10.472245    143.27558 
   51700   -626.39381    80.322001   -546.07181    2436.8551    162795.87    10.472245    143.43893 
   51800   -619.54545    76.819695   -542.72575    2330.6001    169864.36    10.472245    143.45088 
   51900   -617.07203    81.828366   -535.24366     2482.556    173835.83    10.472245    144.51907 
   52000   -610.76602      77.7803   -532.98572    2359.7435    179973.32    10.472245    144.50854 
   52100     -617.199    72.710866   -544.48813    2205.9441    170888.21    10.472245    145.11132 
   52200   -618.23368    81.136361   -537.09732    2461.5616     174506.8    10.472245    147.03258 
   52300   -622.66288    76.327999   -546.33488    2315.6827    166895.05    10.472245    148.33263 
   52400   -611.67479    74.031009   -537.64378    2245.9953    177870.25    10.472245    148.83913 
   52500   -609.18594    75.427397   -533.75854    2288.3598     183613.9    10.472245    150.76423 
   52600   -616.22092    72.547081   -543.67384    2200.9751    173637.35    10.472245    153.99842 
   52700   -618.45613    75.920877   -542.53525    2303.3312    169961.78    10.472245     155.2032 
   52800   -616.25393    82.008659   -534.24527    2488.0259    175378.08    10.472245    155.33937 
   52900   -620.85584    80.454715   -540.40113    2440.8814    169806.52    10.472245    154.98085 
   53000   -617.30469    70.626431   -546.67826    2142.7053    172041.22    10.472245    157.03247 
   53100   -612.03994    78.238892   -533.80105    2373.6565     178276.2    10.472245    158.58499 
   53200   -615.77789    74.733994   -541.04389    2267.3229    176302.69    10.472245     157.9216 
   53300   -619.67181    83.607062   -536.06475    2536.5191    169989.08    10.472245    158.99749 
   53400   -619.18826    86.697495   -532.49076    2630.2785    172347.09    10.472245    160.38217 
   53500   -615.87801    73.743401   -542.13461    2237.2697    175667.66    10.472245    163.32048 
   53600   -616.40654    80.850312   -535.55622    2452.8833    175474.15    10.472245    163.26004 
   53700   -615.37467    84.417262   -530.95741    2561.0994    180031.51    10.472245    163.37337 
   53800    -616.5103    84.208376   -532.30192    2554.7622    175487.81    10.472245    164.52085 
   53900    -615.5723     72.06774   -543.50456    2186.4325    172454.11    10.472245    166.35459 
   54000   -612.14869    81.993906   -530.15478    2487.5783    180534.49    10.472245    168.36996 
   54100   -617.12557    81.692463   -535.43311    2478.4329    173225.09    10.472245    168.18029 
   54200   -617.43335    79.916102   -537.51725    2424.5407    174461.45    10.472245    167.67158 
   54300   -608.65037    87.609747   -521.04063    2657.9549    185876.27    10.472245    167.88931 
   54400   -611.41237    80.235972    -531.1764    2434.2451    181149.29    10.472245    169.82289 
   54500   -612.90116    78.422355   -534.47881    2379.2225    177698.43    10.472245    170.17484 
   54600    -611.0918     75.91456   -535.17724    2303.1396    180805.38    10.472245    172.83328 
   54700    -616.3132    73.718647   -542.59455    2236.5187    174986.29    10.472245    173.97493 
   54800   -614.22157    77.415215   -536.80636    2348.6673    177362.54    10.472245    174.85945 
   54900   -617.45706    84.642137   -532.81493    2567.9219    173633.18    10.472245    176.42269 
   55000   -620.66989    80.503864   -540.16602    2442.3725    168373.79    10.472245    178.78852 
   55100   -614.10912    75.737916    -538.3712    2297.7804    176215.88    10.472245    183.20789 
   55200   -609.62502    80.630652   -528.99437    2446.2191    182059.68    10.472245    184.64495 
   55300   -611.52497     66.89716   -544.62781    2029.5645    177850.89    10.472245    185.31328 
   55400   -611.79332    79.668483   -532.12484    2417.0283    178571.81    10.472245    186.61007 
   55500   -616.67705    81.174047     -535.503    2462.7049     173703.5    10.472245    188.54583 
   55600   -620.20786    74.024848   -546.18301    2245.8084    169087.42    10.472245    190.05465 
   55700     -615.027    77.327046   -537.69996    2345.9924    175420.91    10.472245    188.44551 
   55800   -612.92017    81.713636   -531.20653    2479.0753     181470.8    10.472245    188.44082 
   55900   -609.40535    80.207344     -529.198    2433.3765    182677.76    10.472245    189.09659 
   56000   -621.58428    80.394466   -541.18981    2439.0536    167500.19    10.472245     189.3285 
   56100   -612.30024    79.701522   -532.59871    2418.0306    178673.19    10.472245    189.67113 
   56200   -618.57715     79.74541   -538.83174    2419.3621    173456.94    10.472245    190.78709 
   56300   -616.40378    78.079657   -538.32412    2368.8255    176085.45    10.472245    192.01565 
   56400   -616.74985    81.144889   -535.60496    2461.8203    175337.91    10.472245    193.59815 
   56500   -617.64365    73.139899   -544.50375    2218.9603    170722.16    10.472245    194.75749 
   56600   -615.47864    81.109502   -534.36913    2460.7467    177907.51    10.472245    196.33928 
   56700   -609.57496    78.881808   -530.69316    2393.1617    183702.29    10.472245    198.64538 
   56800   -618.40563    75.034762   -543.37087    2276.4478    172615.06    10.472245    201.69237 
   56900   -618.42868    79.695324   -538.73335    2417.8426    172411.99    10.472245    202.86887 
   57000    -618.5591    83.864102     -534.695    2544.3174    175244.35    10.472245    202.85717 
   57100   -611.86618    74.776699   -537.08948    2268.6185    179253.71    10.472245    204.95868 
   57200   -620.48252    81.158162   -539.32436     2462.223     172143.3    10.472245    207.46115 
   57300   -614.90263    82.741528    -532.1611    2510.2601    174229.11    10.472245    207.74892 
   57400   -614.18752    81.595582   -532.59194    2475.4937    178587.59    10.472245    209.96242 
   57500   -615.64929    77.158102   -538.49119    2340.8669    175352.92    10.472245    209.63537 
   57600   -616.69794    81.705643    -534.9923    2478.8328    173810.28    10.472245    210.62946 
   57700   -625.26331    77.808731   -547.45458     2360.606    162651.95    10.472245    211.61752 
   57800   -618.96243    81.839397   -537.12303    2482.8907    174271.78    10.472245    211.26952 
   57900    -612.5589    76.915021   -535.64388    2333.4922    180715.35    10.472245     213.8952 
   58000   -618.39233    78.606536   -539.78579    2384.8103    171788.45    10.472245    214.95462 
   58100   -617.57391    77.124885   -540.44902    2339.8591    174355.15    10.472245    217.58672 
   58200   -610.61357    82.938374   -527.67519    2516.2321    181824.38    10.472245    220.79548 
   58300   -615.87016    76.559618   -539.31054    2322.7097    176756.94    10.472245     223.4994 
   58400   -617.87197    76.314237   -541.55774    2315.2652    169259.48    10.472245    224.53552 
   58500   -612.73605    82.875096   -529.86096    2514.3123     181913.7    10.472245    226.01209 
   58600   -609.40495    77.231232   -532.17372    2343.0855       184164    10.472245    225.00747 
   58700   -622.35222    79.965863   -542.38636    2426.0504    165643.55    10.472245    228.27765 
   58800   -614.79418    78.593441   -536.20074     2384.413    175691.04    10.472245    231.02407 
   58900   -614.80758    85.675689   -529.13189    2599.2783    177499.32    10.472245    231.08327 
   59000   -620.06222     78.44893   -541.61329    2380.0288     167899.5    10.472245    230.81629 
   59100   -613.56272    78.273799   -535.28892    2374.7155    178518.93    10.472245    233.36977 
   59200    -614.4453    85.128785   -529.31652    2582.6861    177215.55    10.472245    234.57484 
   59300   -617.11625    74.694637   -542.42162    2266.1289    172282.46    10.472245     236.6117 
   59400   -616.61662    86.234827   -530.38179    2616.2418    176680.66    10.472245    238.71443 
   59500   -613.68454    78.837743    -534.8468    2391.8248    178435.23    10.472245    239.25993 
   59600   -618.45803    82.388114   -536.06992     2499.538    174476.12    10.472245    240.44481 
   59700    -603.3203    83.409774   -519.91053    2530.5337    194471.46    10.472245    241.24298 
   59800   -613.88157    82.474331   -531.40724    2502.1537     179963.4    10.472245    243.24762 
   59900   -621.82465    80.544364   -541.28029    2443.6012       168646    10.472245     244.4019 
   60000   -618.69875     78.96133   -539.73742    2395.5742     172873.9    10.472245    243.68515 
   60100   -614.55129    83.378835   -531.17245     2529.595    178300.57    10.472245    244.96918 
   60200   -618.52608    76.275531   -542.25055    2314.0909    170044.14    10.472245    246.74396 
   60300   -614.36144    72.869014   -541.49242    2210.7421    176967.71    10.472245    249.13696 
   60400   -613.49314    78.728296   -534.76485    2388.5043    177126.09    10.472245    249.39592 
   60500   -612.07363    80.978287   -531.09535    2456.7658    181102.66    10.472245    250.61715 
   60600   -624.16085    79.958847     -544.202    2425.8375    162987.58    10.472245    252.47149 
   60700   -617.61969    82.590817   -535.02887    2505.6877    175865.85    10.472245    253.80271 
   60800   -611.70628     75.26378    -536.4425    2283.3959    179990.44    10.472245     254.2763 
   60900   -621.97483      78.7944   -543.18043    2390.5098    168118.24    10.472245    256.98093 
   61000   -614.57774     84.23073   -530.34701    2555.4403    178984.71    10.472245    256.03569 
   61100   -619.50076    79.419497   -540.08126    2409.4744    169711.77    10.472245    255.79708 
   61200   -620.23575    77.199753     -543.036    2342.1305    167910.58    10.472245    255.10043 
   61300   -616.16635    80.616429   -535.54992    2445.7876    173969.11    10.472245    256.31557 
   61400   -619.01495    81.268319   -537.74663     2465.565    172922.57    10.472245    257.23467 
   61500   -622.75899    75.705846   -547.05314    2296.8075     166605.6    10.472245    260.65405 
   61600   -612.60678    79.549287    -533.0575     2413.412    178932.41    10.472245    261.95919 
   61700    -617.5236    78.924052   -538.59955    2394.4433    173450.01    10.472245     265.5013 
   61800   -623.94988    75.844842   -548.10504    2301.0244     165847.8    10.472245    264.84309 
   61900   -608.94941     70.82442   -538.12499     2148.712    183523.35    10.472245     266.3948 
   62000   -614.20064    80.182257   -534.01838    2432.6154    177302.54    10.472245    267.85471 
   62100   -621.52095    79.157635   -542.36331    2401.5299    168492.03    10.472245    268.57813 
   62200   -616.04257    85.667925   -530.37464    2599.0428    178156.84    10.472245    270.27148 
   62300   -610.96135    72.869794   -538.09156    2210.7657    181988.89    10.472245    269.36527 
   62400    -616.0394    76.005615   -540.03378    2305.9021     175333.7    10.472245     271.6792 
   62500   -613.51204    76.310088   -537.20195    2315.1393    179864.67    10.472245    275.58545 
   62600    -616.0167    81.706205   -534.31049    2478.8498     176450.4    10.472245    275.16486 
   62700      -620.66    79.327626   -541.33237    2406.6871     170307.8    10.472245    277.51709 
   62800   -615.30892    73.528325   -541.78059    2230.7446    173841.25    10.472245    279.02043 
   62900   -615.77659    82.581592     -533.195    2505.4078    174623.78    10.472245    277.45068 
   63000   -621.71498    83.382763   -538.33222    2529.7142    169202.53    10.472245    279.20767 
   63100   -617.60547    80.029591   -537.57588    2427.9838    172616.83    10.472245    281.39128 
   63200   -617.40274    80.608515   -536.79422    2445.5475    174801.17    10.472245    280.97938 
   63300   -625.30185    76.064595   -549.23725    2307.6914    161541.55    10.472245    284.48859 
   63400   -619.04298    82.440714   -536.60226    2501.1338    175256.14    10.472245    285.23229 
   63500   -618.73442    79.750287   -538.98413    2419.5101    170908.07    10.472245     286.9737 
   63600    -619.7396     78.46154   -541.27806    2380.4113     168481.5    10.472245    287.03193 
   63700   -613.13162    81.710366   -531.42125    2478.9761    180363.66    10.472245    285.56459 
   63800   -620.43802    75.391484   -545.04653    2287.2702    168633.38    10.472245    288.47025 
   63900   -613.65821    83.617575   -530.04063    2536.8381     180930.4    10.472245    288.01616 
   64000   -618.06379    82.324832   -535.73896    2497.6181    173264.55    10.472245    286.85103 
   64100     -621.553    79.766859   -541.78614    2420.0129    171645.08    10.472245    287.83698 
   64200   -619.45333     84.32435   -535.12898    2558.2806    172179.01    10.472245    290.19138 
   64300   -619.04271    86.007417    -533.0353    2609.3425    170854.58    10.472245    289.37665 
   64400   -613.96599     70.78371   -543.18228    2147.4769    174109.65    10.472245    292.55183 
   64500   -616.66545    81.349479   -535.31597    2468.0273    172920.98    10.472245    292.89289 
   64600   -611.73798    84.953751   -526.78423    2577.3758    179195.94    10.472245    294.52232 
   64700   -612.44126    82.720742   -529.72052    2509.6294    181161.75    10.472245    295.17162 
   64800   -614.63007    77.246966    -537.3831    2343.5629    176126.33    10.472245    294.32566 
   64900   -610.88061    83.490973   -527.38964    2532.9971    183905.38    10.472245    294.77164 
   65000   -621.49957    78.165778   -543.33379    2371.4383    165166.81    10.472245    297.64808 
   65100   -617.59988    82.694027   -534.90586    2508.8189    174902.64    10.472245    297.90716 
   65200   -620.18154    83.406388   -536.77515     2530.431    169183.48    10.472245    299.77513 
   65300   -617.68491    75.039254   -542.64566     2276.584    171707.03    10.472245    300.08165 
   65400   -616.29727    82.267414   -534.02986    2495.8761    174584.69    10.472245    300.81427 
   65500   -613.55058    73.014706   -540.53588    2215.1622    176321.86    10.472245    300.94357 
   65600   -621.38082     75.69565   -545.68517    2296.4982     170631.7    10.472245    301.48126 
   65700   -615.37661    82.869801   -532.50681    2514.1517    175410.17    10.472245     302.0885 
   65800   -616.34612    79.550246   -536.79587    2413.4411    174923.07    10.472245    305.74766 
   65900   -621.43433    76.134139   -545.30019    2309.8013    167189.02    10.472245    306.84068 
   66000   -611.97036    73.672359     -538.298    2235.1144    180212.75    10.472245    309.20964 
   66100   -617.79187    81.684367    -536.1075    2478.1873    174085.45    10.472245    311.47066 
   66200   -621.59764    72.361178   -549.23647     2195.335    165684.59    10.472245    310.91595 
   66300   -618.33152    79.178839   -539.15269    2402.1732    174394.88    10.472245    313.13556 
   66400   -614.62545    79.399319   -535.22613    2408.8622    172367.12    10.472245     314.3027 
   66500   -614.58619    76.583688    -538.0025      2323.44    175921.96    10.472245    316.46229 
   66600   -617.47142    75.986972   -541.48444    2305.3365    170930.74    10.472245    315.93257 
   66700   -616.72039    86.847503   -529.87288    2634.8295    176555.17    10.472245    317.24462 
   66800   -615.97598    72.926007   -543.04997    2212.4712    171557.89    10.472245    320.90508 
   66900   -615.76001    74.848595   -540.91141    2270.7997    175010.51    10.472245    321.09846 
   67000   -611.70635    78.418303   -533.28805    2379.0996    179841.01    10.472245    320.04991 
   67100   -617.44357    83.699132   -533.74444    2539.3124    175043.56    10.472245     317.0302 
   67200   -616.65801    71.873169   -544.78484    2180.5295     171887.2    10.472245    316.62337 
   67300   -612.02203    78.863426   -533.15861     2392.604    179102.53    10.472245    317.20386 
   67400   -612.24021     76.06383   -536.17638    2307.6682     178616.5    10.472245    319.24184 
   67500   -610.88998    73.562866   -537.32711    2231.7926    180974.54    10.472245    319.63736 
   67600   -614.83893    87.523135   -527.31579    2655.3272    178337.76    10.472245    324.65271 
   67700   -617.35394    78.731505   -538.62243    2388.6017    174788.83    10.472245    327.15661 
   67800   -619.39672    77.266836   -542.12989    2344.1657     169340.2    10.472245    329.61467 
   67900   -618.23838     75.62164   -542.61674    2294.2528    172672.01    10.472245    329.84933 
   68000    -611.8063    79.263423   -532.54287    2404.7393    181056.26    10.472245    333.18005 
   68100   -621.55031    77.024052   -544.52626       2336.8    167387.54    10.472245    334.19885 
   68200   -621.28764    81.375718   -539.91192    2468.8233    169003.13    10.472245    334.92278 
   68300   -613.87701    80.503617    -533.3734     2442.365    180645.24    10.472245    337.44727 
   68400   -618.06379    76.395478   -541.66831      2317.73    172273.17    10.472245    338.97372 
   68500   -604.09274    75.351273   -528.74146    2286.0503    188284.33    10.472245    337.17189 
   68600   -615.97718    80.826076    -535.1511     2452.148    173363.42    10.472245    339.04617 
   68700   -614.58037    75.762929   -538.81744    2298.5393    175887.26    10.472245    339.33795 
   68800   -602.32926    75.435288   -526.89397    2288.5991    190765.05    10.472245    343.47004 
   68900   -618.38198    82.074917   -536.30706     2490.036    170919.03    10.472245    345.92582 
   69000   -619.75878    81.720535   -538.03824    2479.2846    172699.21    10.472245     348.7089 
   69100   -618.82474    83.611377   -535.21336    2536.6501    171488.69    10.472245    346.96088 
   69200   -617.31546    73.114161    -544.2013    2218.1795     170609.9    10.472245    349.03668 
   69300   -610.91908     76.38542   -534.53367    2317.4248    180465.23    10.472245    353.54393 
   69400   -611.01705      79.0877   -531.92935    2399.4081       180797    10.472245    351.31404 
   69500   -615.94131     71.36201    -544.5793    2165.0217    177977.67    10.472245    352.97654 
   69600   -615.46039    81.236411   -534.22398     2464.597    175379.54    10.472245    353.00276 
   69700   -612.26149    76.701994    -535.5595    2327.0292    180111.96    10.472245     357.6963 
   69800   -604.34199    83.024912   -521.31707    2518.8575    190058.37    10.472245    357.67942 
   69900   -612.92787    80.296943   -532.63093    2436.0948    180505.61    10.472245    359.56943 
   70000   -617.91837    77.802953   -540.11541    2360.4308     171567.2    10.472245    358.08878 
   70100   -619.37719    81.555548   -537.82165    2474.2791    172075.06    10.472245    357.49047 
   70200   -608.35629    82.098236   -526.25805    2490.7435    183800.78    10.472245    356.03559 
   70300   -619.97327    84.493879   -535.47939    2563.4239    171544.37    10.472245    356.49564 
   70400   -615.58609    73.710141   -541.87595    2236.2606    175702.59    10.472245    357.31338 
   70500   -612.34686    82.162231   -530.18463     2492.685    181265.59    10.472245    359.07174 
   70600   -613.65485    81.767774   -531.88708    2480.7178    177866.63    10.472245    359.23316 
   70700    -615.5118    79.691658   -535.82014    2417.7313    176855.25    10.472245    358.58795 
   70800   -615.63056    72.551946   -543.07862    2201.1227    177471.39    10.472245    356.57212 
   70900   -612.55042    77.970268   -534.58015    2365.5068    178578.22    10.472245    357.99658 
   71000   -607.29542    74.404553   -532.89087    2257.3281    181726.45    10.472245    357.50638 
   71100   -613.81848    68.890073   -544.92841    2090.0266    173111.79    10.472245    357.55884 
   71200   -617.06188    86.828697   -530.23318    2634.2589    175589.58    10.472245    360.48947 
   71300   -612.50537      77.2097   -535.29567    2342.4323    179856.61    10.472245    360.47848 
   71400   -619.00867    73.282603   -545.72606    2223.2898    168697.27    10.472245    361.78148 
   71500   -612.81539    83.492244   -529.32315    2533.0357    181494.08    10.472245    363.52264 
   71600   -612.42951    74.672083   -537.75742    2265.4446    177100.85    10.472245     362.6062 
   71700   -617.58669    78.469049   -539.11764    2380.6391    173240.97    10.472245      361.568 
   71800   -613.18157    84.882243   -528.29932    2575.2063    182419.08    10.472245    361.64714 
   71900   -617.59707    77.527639   -540.06943    2352.0781     169689.2    10.472245    363.34907 
   72000   -617.38385    82.063016   -535.32083     2489.675    173177.62    10.472245    367.58461 
   72100   -617.63439    87.110771   -530.52362    2642.8167    174452.89    10.472245    370.70186 
   72200    -617.1495    78.556817   -538.59269    2383.3019    172846.87    10.472245    372.10531 
   72300   -618.84097    80.426022   -538.41495    2440.0109    172428.08    10.472245    370.02723 
   72400   -613.74038    73.702738   -540.03764     2236.036    177828.15    10.472245    369.06494 
   72500   -618.69565    78.301445   -540.39421    2375.5543     172551.5    10.472245    370.59401 
   72600   -619.63967    81.081331   -538.55834     2459.892    169590.88    10.472245    374.79319 
   72700   -612.75678    82.108211   -530.64856    2491.0461     180133.5    10.472245    375.84531 
   72800   -618.65286    78.439806   -540.21305     2379.752    172071.41    10.472245    377.01471 
   72900   -615.66191    73.673192   -541.98872    2235.1397    173815.18    10.472245    375.21619 
   73000   -605.30157     81.13045   -524.17112    2461.3823    189776.87    10.472245    376.04517 
   73100   -613.46616     80.70362   -532.76254    2448.4328    179152.34    10.472245    375.93148 
   73200   -621.37616    79.258859    -542.1173    2404.6009    167401.61    10.472245    376.12318 
   73300   -620.37199    90.403262   -529.96872    2742.7062    169998.04    10.472245    376.55629 
   73400   -618.18965    83.034918   -535.15474    2519.1611    173321.84    10.472245    376.85517 
   73500   -617.10191    77.573533   -539.52838    2353.4705    174955.68    10.472245    377.73211 
   73600   -621.42656     75.13667   -546.28989    2279.5395    168151.18    10.472245    379.73539 
   73700   -620.11933    76.678351   -543.44098    2326.3119    169644.29    10.472245     379.3519 
   73800   -619.87444    84.298896   -535.57554    2557.5084    171075.71    10.472245    382.64237 
   73900   -621.61227     76.45191   -545.16036     2319.442    165898.94    10.472245    385.91997 
   74000   -621.04874     82.59369   -538.45505    2505.7749    167495.74    10.472245    387.60185 
   74100   -612.32915    77.006635   -535.32252    2336.2716    177055.04    10.472245    389.36556 
   74200    -619.1757    72.752381   -546.42332    2207.2036    168131.68    10.472245    390.09404 
   74300   -608.83732    74.752291   -534.08502     2267.878    184652.91    10.472245    391.51075 
   74400   -621.60688    79.822645   -541.78423    2421.7053    165185.28    10.472245    393.54669 
   74500   -619.67793    81.100924     -538.577    2460.4865    170534.82    10.472245    391.13855 
   74600   -613.08998    80.951082    -532.1389    2455.9405    180059.77    10.472245    393.91287 
   74700   -615.24563    75.521134    -539.7245    2291.2036    172675.91    10.472245    397.11319 
   74800   -623.37014    73.811656   -549.55848    2239.3405    164385.27    10.472245    401.26483 
   74900   -608.57796    78.558216   -530.01975    2383.3443    182126.58    10.472245    402.54394 
   75000   -614.89661    76.564938   -538.33167    2322.8711    174100.49    10.472245    404.03343 
   75100   -613.30992     73.56505   -539.74487    2231.8588    177654.35    10.472245    407.63281 
   75200   -612.75169    84.431836   -528.31986    2561.5416    179998.06    10.472245    410.48832 
   75300    -617.9421    79.490928   -538.45117    2411.6415    171116.77    10.472245     410.6631 
   75400   -617.95041     78.80854   -539.14187    2390.9388     173008.1    10.472245    414.84325 
   75500   -610.55966    83.399937   -527.15972    2530.2353    180334.24    10.472245     414.9538 
   75600   -617.98139    77.084134   -540.89726    2338.6228    173548.71    10.472245    416.80281 
   75700   -617.20837    76.280025   -540.92835    2314.2273       175153    10.472245    418.90758 
   75800   -612.23993    78.261187   -533.97874    2374.3329     178156.6    10.472245    418.66656 
   75900   -614.08341    81.409074   -532.67433    2469.8353    177373.07    10.472245    422.06531 
   76000   -611.44191    71.452044   -539.98986    2167.7532    176561.57    10.472245    421.71833 
   76100   -605.58327    76.339661   -529.24361    2316.0366    186434.33    10.472245    423.97709 
   76200   -617.26272     84.58396   -532.67876    2566.1568     174548.1    10.472245    424.98986 
   76300   -616.48813    76.475668   -540.01247    2320.1628    174535.25    10.472245    425.32586 
   76400   -617.27337    79.215608   -538.05776    2403.2887    172434.25    10.472245    422.34994 
   76500    -608.9188    80.097578   -528.82122    2430.0464    186886.37    10.472245    424.55512 
   76600   -613.77694    75.624913   -538.15203    2294.3521    178926.51    10.472245     425.7479 
   76700    -620.1843    76.708071   -543.47623    2327.2136    166002.53    10.472245    425.63355 
   76800   -608.02942    74.486681   -533.54274    2259.8198    182544.01    10.472245    426.48607 
   76900   -611.94556    85.923863    -526.0217    2606.8076    180569.77    10.472245    425.48418 
   77000    -618.2071    80.695929   -537.51117    2448.1995    172518.91    10.472245    426.68418 
   77100   -619.86002    74.452242   -545.40778    2258.7749    168754.18    10.472245    427.67588 
   77200    -612.9491    81.592763   -531.35633    2475.4082    180009.51    10.472245     429.3255 
   77300   -619.77716    83.250579   -536.52658     2525.704     174818.4    10.472245    430.91545 
   77400   -615.65837    73.042851   -542.61552     2216.016    171825.87    10.472245    429.22749 
   77500     -609.897    81.706468   -528.19053    2478.8578    184522.79    10.472245     431.5412 
   77600   -619.60695     81.45368   -538.15327    2471.1886    171560.53    10.472245    432.88251 
   77700    -617.9611    77.067268   -540.89383    2338.1111    173580.67    10.472245    435.55766 
   77800   -611.27141    85.268322   -526.00309    2586.9194    183993.18    10.472245    438.66895 
   77900   -614.79974    74.544223   -540.25552    2261.5655    173175.28    10.472245    439.33075 
   78000   -610.99441    77.197699   -533.79671    2342.0682    180026.02    10.472245    442.61955 
[...]
   81400    -614.5523    70.412447   -544.13985    2136.2133    176478.68    10.472245    472.16105 
   81500   -616.31582    82.062808   -534.25301    2489.6687    176812.09    10.472245    472.29755 
   81600   -617.10191    75.902768   -541.19914    2302.7818    174570.84    10.472245    471.04822 
   81700   -626.88328    80.622309   -546.26098     2445.966    159835.41    10.472245    470.27706 
   81800   -611.71207    79.526176   -532.18589    2412.7109    181806.61    10.472245    469.64658 
   81900   -615.16839    74.683166   -540.48523    2265.7808    175583.29    10.472245    470.19446 
   82000   -619.97192    74.498115   -545.47381    2260.1667    169568.39    10.472245    470.33477 
   82100   -618.39973    85.253621   -533.14611    2586.4734    174620.27    10.472245    471.69934 
   82200   -612.11859    76.852873   -535.26572    2331.6067    177770.17    10.472245     475.2099 
   82300   -621.09508    73.623717   -547.47136    2233.6387    166576.03    10.472245    476.11837 
   82400    -616.9755    76.716912   -540.25859    2327.4818     174136.3    10.472245    475.70816 
   82500   -615.09283     78.72696   -536.36587    2388.4638    175051.78    10.472245    477.27047 
   82600   -620.85735    75.007183   -545.85017    2275.6111    167329.89    10.472245    478.26228 
   82700   -618.18274    77.901141    -540.2816    2363.4096    171932.75    10.472245    477.95304 
   82800   -614.64832    79.883351   -534.76497     2423.547    175039.66    10.472245    477.27808 
   82900   -623.22656    76.017276   -547.20928    2306.2558     164089.5    10.472245    477.71306 
   83000    -625.1188    84.798089   -540.32071    2572.6532    163335.68    10.472245    478.00484 
   83100   -610.18751    76.865554   -533.32195    2331.9914    177707.11    10.472245    478.91442 
   83200   -611.19632    80.727439   -530.46889    2449.1555    179586.02    10.472245    479.93065 
   83300   -617.73233     75.54182   -542.19051    2291.8312    169764.31    10.472245    478.53897 
   83400   -614.11507    84.494776   -529.62029    2563.4511    181445.55    10.472245     477.9041 
   83500   -618.32671    83.290452   -535.03626    2526.9136    173350.48    10.472245    477.13542 
   83600   -611.54535    72.308034   -539.23731    2193.7227    180949.11    10.472245    479.02254 
   83700   -609.51153    80.513261   -528.99827    2442.6576    183988.73    10.472245    480.85729 
   83800   -619.41977     79.72624   -539.69353    2418.7805    171286.75    10.472245    483.68961 
   83900    -609.6086    72.705878   -536.90272    2205.7927     179399.7    10.472245    485.89949 
   84000   -604.51917    79.004857   -525.51431    2396.8948    191905.58    10.472245    487.16078 
   84100   -616.09902    78.547847   -537.55117    2383.0298    173066.24    10.472245    490.66235 
   84200    -615.3647    75.255764   -540.10893    2283.1527    177488.04    10.472245    490.17537 
   84300   -611.55619    84.585702   -526.97049    2566.2097    181706.97    10.472245    491.66641 
   84400   -619.82889    83.019724   -536.80917    2518.7001    172379.09    10.472245     491.9391 
   84500   -615.71933    76.113851   -539.60548    2309.1858    174536.74    10.472245    491.98785 
   84600   -616.57158    77.609859   -538.96172    2354.5725    172908.22    10.472245    495.32535 
   84700   -618.11024    75.251868   -542.85837    2283.0345    169056.28    10.472245    499.09959 
   84800   -616.68704    85.429752   -531.25729    2591.8169    175448.96    10.472245    497.44158 
   84900   -621.47249    79.476878   -541.99561    2411.2152    168445.01    10.472245    498.62146 
   85000   -619.76144    75.472535   -544.28891    2289.7292    170674.28    10.472245    498.82078 
   85100   -611.51941     77.54724   -533.97217    2352.6728    180538.91    10.472245    499.61195 
   85200   -616.14029    76.512754   -539.62754    2321.2879    175862.51    10.472245    499.70789 
   85300   -620.28699    73.899485    -546.3875    2242.0051    168335.79    10.472245     498.2313 
   85400   -617.93863    84.001597   -533.93703    2548.4888     172925.4    10.472245    498.02803 
   85500   -617.22623    79.216979   -538.00925    2403.3303     172257.8    10.472245    499.04184 
   85600   -618.16595    71.169822   -546.99613     2159.191    169419.34    10.472245    499.23599 
   85700   -608.97167    77.243945   -531.72772    2343.4712    184434.58    10.472245    499.14071 
   85800   -615.35927    82.886507   -532.47276    2514.6585    177220.42    10.472245    499.51811 
   85900   -620.20061    76.653071   -543.54754     2325.545     169905.6    10.472245    500.16035 
   86000   -616.14949    80.405579   -535.74391    2439.3907    172761.83    10.472245    500.01545 
   86100   -615.79919    77.560486   -538.23871    2353.0746    176917.92    10.472245    499.56506 
   86200   -622.14435    73.287561   -548.85679    2223.4402    165884.71    10.472245    501.27879 
   86300   -612.51588    75.248989   -537.26689    2282.9471    177616.33    10.472245    499.05329 
   86400   -617.49729    83.113891    -534.3834     2521.557    173720.41    10.472245    502.86851 
   86500   -618.96909     78.36859    -540.6005    2377.5914    171179.98    10.472245    504.05131 
   86600   -618.58068    79.209098   -539.37158    2403.0912    172115.19    10.472245    507.28067 
   86700   -609.11839    76.758745   -532.35965     2328.751    182272.86    10.472245     508.5247 
   86800   -612.47155    87.337047   -525.13451    2649.6816    181810.81    10.472245     513.0641 
   86900    -617.8326    78.031396   -539.80121    2367.3614     172457.7    10.472245    513.62078 
   87000   -616.95649    78.415847   -538.54065    2379.0251    175468.26    10.472245    514.44307 
   87100   -611.65333    84.355628    -527.2977    2559.2296    181269.36    10.472245    517.81838 
   87200   -614.70528    73.370847   -541.33443     2225.967    172371.14    10.472245    519.88501 
   87300   -610.49681    76.087118   -534.40969    2308.3748    182765.76    10.472245    521.97687 
   87400   -614.41751    85.348419   -529.06909    2589.3494    180401.13    10.472245    522.36318 
   87500   -618.60437    79.320937   -539.28344    2406.4842    172558.46    10.472245    521.95959 
   87600   -612.80621    79.114035   -533.69218    2400.2071    179556.26    10.472245     521.2323 
   87700   -611.66847    80.259952   -531.40852    2434.9726    181623.75    10.472245    522.65622 
   87800   -618.12577    78.535414   -539.59036    2382.6526     170910.4    10.472245    521.77389 
   87900   -618.78656    75.590602   -543.19596    2293.3112    168783.54    10.472245    528.90027 
   88000   -616.29453    85.685143   -530.60939    2599.5652     177690.5    10.472245    531.76402 
   88100   -622.07918    79.845548   -542.23363    2422.4002    167518.39    10.472245     529.3995 
   88200   -618.50575    76.614178   -541.89158     2324.365    170642.65    10.472245    530.56162 
   88300   -612.44652    85.946526   -526.49999    2607.4952     181466.6    10.472245    530.25602 
   88400   -617.08259    79.543331   -537.53925    2413.2313     173722.5    10.472245    533.85414 
   88500   -623.51219    81.785696   -541.72649    2481.2615    167087.25    10.472245    536.85725 
   88600   -616.91912    87.316673   -529.60245    2649.0634    176009.77    10.472245    536.24601 
   88700   -616.03473    79.168467   -536.86626    2401.8585    176963.03    10.472245    541.67628 
   88800   -617.25515    77.690267   -539.56488     2357.012    174298.24    10.472245    541.25894 
   88900   -615.96019    80.845778   -535.11441    2452.7457    177027.52    10.472245    544.03623 
   89000    -613.8842    76.475498   -537.40871    2320.1576    178153.99    10.472245    549.01224 
   89100   -609.96897    88.479328   -521.48964    2684.3367     185483.1    10.472245    549.96969 
   89200    -615.9117    80.285304    -535.6264    2435.7417    175106.17    10.472245    552.50079 
   89300    -617.3288    76.827832   -540.50097     2330.847    173140.03    10.472245    552.63152 
   89400    -623.8839    71.648746   -552.23516    2173.7209    165946.42    10.472245    554.21266 
   89500   -614.34247     77.67345   -536.66902    2356.5018    177088.12    10.472245     551.9885 
   89600   -613.41431    74.418011    -538.9963    2257.7364    177131.93    10.472245    552.01486 
   89700   -619.26334    76.771151   -542.49219    2329.1273    171055.01    10.472245    550.99906 
   89800   -615.46615    82.924646    -532.5415    2515.8156    176759.66    10.472245    552.19246 
   89900   -620.44802    73.929056   -546.51897    2242.9022     167086.4    10.472245    551.88978 
   90000   -618.53429    78.621211   -539.91308    2385.2555     172238.3    10.472245    551.89909 
   90100   -610.63678    77.099933   -533.53685    2339.1021     179879.7    10.472245     553.9802 
   90200   -617.35593    79.236926   -538.11901    2403.9354    172741.18    10.472245    551.86745 
   90300   -623.10303    76.715003   -546.38802    2327.4239     164907.8    10.472245    553.84458 
   90400   -610.79632    77.977145   -532.81917    2365.7155    180802.13    10.472245    560.39662 
   90500   -616.00546    82.694999   -533.31046    2508.8484     177105.7    10.472245    564.06343 
   90600   -617.23007    74.478743   -542.75133    2259.5789    171845.84    10.472245    564.91815 
   90700   -612.82764    73.828808   -538.99883    2239.8609     178703.8    10.472245    566.65455 
   90800   -610.62709     78.26769    -532.3594    2374.5302    180071.11    10.472245    570.99759 
   90900   -620.52553    79.717909   -540.80762    2418.5278     168736.8    10.472245    572.08994 
   91000   -622.85682    72.080297   -550.77652    2186.8135       165538    10.472245    574.63092 
   91100   -615.53167    77.216197   -538.31547    2342.6294     175648.5    10.472245    576.48992 
   91200   -610.02565    71.959694   -538.06596    2183.1546    180269.25    10.472245    576.71043 
   91300   -616.68561    69.187646   -547.49797    2099.0546    172602.08    10.472245    575.34721 
   91400   -623.65297    86.950055   -536.70291    2637.9408    169817.25    10.472245    577.85309 
   91500   -619.02325      81.7796   -537.24365    2481.0765    171267.57    10.472245    578.78689 
   91600   -621.52944    79.782219   -541.74722    2420.4788    166205.57    10.472245    580.87113 
   91700   -627.08538    71.288885    -555.7965    2162.8032    159225.64    10.472245      583.158 
   91800   -614.49525    73.760683   -540.73456     2237.794     177629.8    10.472245     585.1288 
   91900    -616.2445    85.735553   -530.50895    2601.0945    176606.85    10.472245    586.92058 
   92000   -614.93519    74.056901   -540.87829    2246.7809    175159.77    10.472245    587.42211 
   92100   -622.80306    77.329219   -545.47384    2346.0583    164441.61    10.472245    594.05121 
   92200   -619.03274    80.758482   -538.27426    2450.0973    171849.12    10.472245    595.63652 
   92300   -617.23658    80.793188   -536.44339    2451.1502    175664.52    10.472245    598.83927 
   92400   -617.12721    76.570881   -540.55633    2323.0514    174897.35    10.472245    600.33089 
   92500    -612.4564    68.666381   -543.79002    2083.2402    178844.35    10.472245    604.13988 
   92600   -610.76319    79.247413   -531.51577    2404.2536    182500.69    10.472245    603.97051 
   92700     -614.774    78.920837   -535.85316    2394.3457    176028.53    10.472245    605.54705 
   92800    -627.4636    80.285012   -547.17859    2435.7329    161657.95    10.472245    608.94582 
   92900   -614.95395    79.462142   -535.49181    2410.7682    175098.82    10.472245    610.96299 
   93000    -619.3435    82.031843   -537.31165    2488.7292     171353.7    10.472245     611.8756 
   93100   -619.16438    72.121955   -547.04243    2188.0773    166879.13    10.472245    612.66107 
   93200   -617.97139      81.9134   -536.05799    2485.1358    174124.33    10.472245    614.69583 
   93300   -619.07559    79.060193    -540.0154    2398.5736     171370.4    10.472245    616.29998 
   93400   -622.35365     74.26875    -548.0849    2253.2081    164386.83    10.472245    616.88731 
   93500   -614.23408    75.440568   -538.79351    2288.7594    176380.23    10.472245    615.29852 
   93600   -611.36291    73.719832   -537.64308    2236.5547     179941.3    10.472245    617.60193 
   93700   -605.55304    79.696196   -525.85684     2417.869    189492.22    10.472245    619.06786 
   93800   -616.84529    79.705646   -537.13964    2418.1557    176442.71    10.472245    621.46571 
   93900   -607.74453    73.101786   -534.64275     2217.804    184445.45    10.472245    620.93443 
   94000   -612.96841    80.125699   -532.84271    2430.8996    179894.87    10.472245    625.03183 
   94100   -624.77938    75.695022   -549.08435    2296.4791    161546.82    10.472245    626.26447 
   94200   -620.85757    80.062507   -540.79507    2428.9824    169634.85    10.472245     624.6102 
   94300   -611.70825    79.569685   -532.13857    2414.0309    180195.76    10.472245    624.79176 
   94400   -619.56082     74.96928   -544.59154    2274.4611    169764.61    10.472245    628.91568 
   94500   -620.53471    81.018373   -539.51634     2457.982    168298.58    10.472245    631.47725 
   94600   -611.23611    73.614437   -537.62167    2233.3571    180099.31    10.472245    629.67933 
   94700   -616.69118    83.455168   -533.23601    2531.9109    175236.02    10.472245    635.44026 
   94800   -616.54331    72.294701   -544.24861    2193.3182    171087.08    10.472245    638.87376 
   94900   -621.89731    91.298566   -530.59874    2769.8684    170214.51    10.472245     642.4285 
   95000   -619.99682    84.041465   -535.95536    2549.6983    171744.54    10.472245    645.48005 
   95100   -617.10015     77.91217   -539.18798    2363.7442    171850.07    10.472245    644.37294 
   95200   -617.24292    80.275034   -536.96789    2435.4302    172643.96    10.472245    649.17058 
   95300   -615.31519    82.589019   -532.72617    2505.6332    178282.02    10.472245    651.18372 
   95400   -617.83259    73.165888   -544.66671    2219.7488    173043.45    10.472245    649.76393 
   95500   -612.29671    75.383981   -536.91273    2287.0426    178950.41    10.472245    650.54196 
   95600   -616.18769    83.346277   -532.84142    2528.6073    172768.87    10.472245     651.4087 
   95700   -616.19363    75.036509   -541.15712    2276.5008    175275.31    10.472245    653.91502 
   95800   -619.88012    81.916659   -537.96346    2485.2347    170930.87    10.472245    652.85201 
   95900   -606.01784     78.02811   -527.98973    2367.2617    187090.07    10.472245    656.06246 
   96000   -616.98602    73.585486   -543.40053    2232.4788    170953.46    10.472245    658.49618 
   96100   -615.79609    78.473214   -537.32287    2380.7655     176168.2    10.472245    659.22877 
   96200   -611.51238    71.905057   -539.60733     2181.497    178040.17    10.472245    657.75011 
   96300   -619.41644    70.558482   -548.85796    2140.6438    169070.86    10.472245    656.66208 
   96400   -619.53613    77.841492   -541.69464       2361.6    170612.36    10.472245    660.94624 
   96500   -612.12361    79.663323   -532.46028    2416.8717    182710.87    10.472245    658.80696 
   96600   -617.02262    74.482653   -542.53997    2259.6976    170826.22    10.472245    661.87481 
   96700   -619.02955    77.555177   -541.47438    2352.9136    172012.61    10.472245    661.83052 
   96800   -612.77861    78.879799   -533.89881    2393.1007    179346.04    10.472245    666.17748 
   96900   -621.69858     84.16874   -537.52984    2553.5596    168838.58    10.472245     665.0516 
   97000   -616.30741    74.470448   -541.83696    2259.3273    172650.11    10.472245    665.77279 
   97100   -611.23766    80.000085   -531.23758    2427.0886    180631.54    10.472245    669.30193 
   97200   -619.07349    76.641887   -542.43161    2325.2056    170050.08    10.472245     671.8423 
   97300   -618.41173    75.789369   -542.62237    2299.3415    171678.79    10.472245    674.65441 
   97400   -611.27777     73.10273   -538.17504    2217.8327    179953.36    10.472245    677.45117 
   97500   -604.93478    79.112698   -525.82208    2400.1665    188429.83    10.472245    680.11258 
   97600   -610.69635    83.272957   -527.42339    2526.3829    183092.33    10.472245    680.50101 
   97700   -616.49019    74.984882   -541.50531    2274.9345    174003.65    10.472245    685.02891 
   97800   -614.18156    80.954082   -533.22747    2456.0315    177649.25    10.472245     688.2264 
   97900   -615.42447    72.460478   -542.96399    2198.3477     174574.5    10.472245    691.20233 
   98000     -617.207    76.890061   -540.31694    2332.7349    172992.15    10.472245    690.90652 
   98100    -615.9616    80.895185   -535.06641    2454.2446    176273.28    10.472245    692.17867 
   98200   -617.88784    79.828155   -538.05969    2421.8725    172019.73    10.472245    692.50617 
   98300   -624.71475    76.868055    -547.8467    2332.0673     164491.2    10.472245    698.21253 
   98400   -619.05421    84.822199   -534.23201    2573.3847    173624.17    10.472245      695.562 
   98500   -617.42505    79.468985   -537.95606    2410.9758     174697.7    10.472245    697.44357 
   98600   -624.17747    73.978527   -550.19894    2244.4031       164035    10.472245    697.54284 
   98700   -618.63929     79.08189    -539.5574    2399.2319    171757.04    10.472245    697.79668 
   98800   -620.56251    83.559934   -537.00257    2535.0893    171153.48    10.472245    698.07695 
   98900   -622.70479     78.28146   -544.42333     2374.948     168737.8    10.472245    703.06751 
   99000   -615.36088    73.814932   -541.54595    2239.4399    172465.19    10.472245    704.61169 
   99100   -610.24971    77.884144   -532.36557     2362.894    182409.74    10.472245    708.20142 
   99200   -619.38933    76.070806   -543.31852    2307.8799     168246.3    10.472245    711.67703 
   99300   -617.48274    69.827418   -547.65532    2118.4644    174164.22    10.472245    714.33801 
   99400   -610.34344    78.632788   -531.71065    2385.6067     181202.4    10.472245    714.51622 
   99500   -622.91695    86.032725   -536.88422    2610.1103    166791.38    10.472245    714.52093 
   99600   -622.46199    75.497041   -546.96495    2290.4726    163263.94    10.472245     719.5978 
   99700   -612.66565    75.569083   -537.09657    2292.6583    178712.41    10.472245    722.05879 
   99800   -619.44137    85.010885   -534.43048    2579.1091    172664.16    10.472245    721.74059 
   99900   -617.65741    74.195437   -543.46197    2250.9838    170433.94    10.472245    722.52873 
  100000     -605.469    73.826911   -531.64209    2239.8033    187712.02    10.472245    723.29088 
Loop time of 74.3861 on 1 procs for 100000 steps with 256 atoms

Performance: 580.754 ns/day, 0.041 hours/ns, 1344.337 timesteps/s
100.0% CPU use with 1 MPI tasks x no OpenMP threads

MPI task timing breakdown:
Section |  min time  |  avg time  |  max time  |%varavg| %total
---------------------------------------------------------------
Pair    | 44.252     | 44.252     | 44.252     |   0.0 | 59.49
Neigh   | 3.7378     | 3.7378     | 3.7378     |   0.0 |  5.02
Comm    | 0.84089    | 0.84089    | 0.84089    |   0.0 |  1.13
Output  | 0.026688   | 0.026688   | 0.026688   |   0.0 |  0.04
Modify  | 25.385     | 25.385     | 25.385     |   0.0 | 34.13
Other   |            | 0.1442     |            |       |  0.19

Nlocal:    256 ave 256 max 256 min
Histogram: 1 0 0 0 0 0 0 0 0 0
Nghost:    1574 ave 1574 max 1574 min
Histogram: 1 0 0 0 0 0 0 0 0 0
Neighs:    13455 ave 13455 max 13455 min
Histogram: 1 0 0 0 0 0 0 0 0 0

Total # of neighbors = 13455
Ave neighs/atom = 52.5586
Neighbor list builds = 6770
Dangerous builds = 29
Total wall time: 0:01:14
