LAMMPS (3 Mar 2020)

    # ---------- Initialize simulation ---------------------
    units metal
    atom_style atomic
    dimension  3
    boundary   p p p
    read_data /home/modeler/RemLabs/Lab4/Problem2A_size_7/temp_2600/lammps.data
  orthogonal box = (0 0 0) to (28.63 28.63 28.63)
  1 by 1 by 1 MPI processor grid
  reading atoms ...
  1372 atoms
  read_data CPU = 0.0018136 secs

    pair_style eam
    pair_coeff * * /usr/share/lammps-stable/potentials/Ag_u3.eam
Reading potential file /usr/share/lammps-stable/potentials/Ag_u3.eam with DATE: 2007-06-11

    velocity  all create 2600 87287 dist gaussian

    # ---------- Describe computed properties------------------
    compute msdall all msd
    thermo_style custom step pe ke etotal temp press density c_msdall[4]
    thermo 100

    # ---------- Specify ensemble  ---------------------
    #fix  1 all nve
    fix  1 all nvt temp 2600 2600 0.05

    # --------- Compute RDF ---------------
    compute rdfall all rdf 100 1 1
    fix 2 all ave/time 1 2500 2500 c_rdfall[*] file /home/modeler/RemLabs/Lab4/Problem2A_size_7/temp_2600/lammps.rdf mode vector

    # --------- Run -------------
    timestep 0.001
    run 10000
Neighbor list info ...
  update every 1 steps, delay 10 steps, check yes
  max neighbors/atom: 2000, page size: 100000
  master list distance cutoff = 7.55
  ghost atom cutoff = 7.55
  binsize = 3.775, bins = 8 8 8
  2 neighbor lists, perpetual/occasional/extra = 1 1 0
  (1) pair eam, perpetual
      attributes: half, newton on
      pair build: half/bin/atomonly/newton
      stencil: half/bin/3d/newton
      bin: standard
  (2) compute rdf, occasional, copy from (1)
      attributes: half, newton on
      pair build: copy
      stencil: none
      bin: none
Per MPI rank memory allocation (min/avg/max) = 3.83 | 3.83 | 3.83 Mbytes
Step PotEng KinEng TotEng Temp Press Density c_msdall[4] 
       0      -3910.2    460.76071   -3449.4393         2600     20971.49    10.472245            0 
     100   -3624.9018    253.53882    -3371.363    1430.6795    86803.526    10.472245   0.15767395 
     200     -3557.84    353.52248   -3204.3176    1994.8716    108342.34    10.472245   0.22246212 
     300   -3468.9127    446.43567    -3022.477     2519.166    133793.66    10.472245   0.29243609 
     400   -3404.7731    489.61823   -2915.1548    2762.8384    152594.46    10.472245   0.35808256 
     500   -3400.9437    457.25407   -2943.6896    2580.2126    150678.59    10.472245   0.40040047 
     600   -3430.9627    450.10436   -2980.8583    2539.8679    143472.04    10.472245   0.41006721 
     700    -3421.341    471.19826   -2950.1427    2658.8974    146663.86    10.472245   0.42062918 
     800   -3415.8695    456.58628   -2959.2833    2576.4443    146217.59    10.472245   0.44619581 
     900   -3412.2822    459.33566   -2952.9465    2591.9586    147604.96    10.472245   0.47333685 
    1000   -3390.8138    473.56301   -2917.2508    2672.2413    153750.34    10.472245   0.49802623 
    1100   -3391.8047    464.02174    -2927.783    2618.4015    153964.81    10.472245   0.50007727 
    1200   -3393.3955    451.75307   -2941.6425    2549.1713    152806.55    10.472245   0.48486247 
    1300   -3394.1835    461.95057   -2932.2329    2606.7142     152682.9    10.472245   0.47587933 
    1400   -3386.4872    451.65275   -2934.8345    2548.6052    154007.92    10.472245   0.47401411 
    1500   -3391.0612    476.17918   -2914.8821     2687.004    154810.75    10.472245   0.46647931 
    1600   -3379.2507    443.39896   -2935.8517    2502.0304     155247.3    10.472245   0.46781619 
    1700   -3390.1618    460.63177     -2929.53    2599.2724    154742.85    10.472245   0.45034881 
    1800   -3391.5235    456.08924   -2935.4343    2573.6396    153133.57    10.472245    0.4459482 
    1900   -3396.9837    457.33346   -2939.6502    2580.6605    152774.18    10.472245   0.45312255 
    2000   -3401.0693    453.68143   -2947.3879    2560.0527    151365.16    10.472245   0.48443086 
    2100    -3397.119    464.02708   -2933.0919    2618.4316    152261.31    10.472245   0.51329348 
    2200   -3398.9959    451.35812   -2947.6378    2546.9427     151442.6    10.472245   0.54563552 
    2300   -3396.2863    468.14781   -2928.1384    2641.6842    152741.14    10.472245   0.55107196 
    2400   -3397.2936    476.36667    -2920.927     2688.062    153042.13    10.472245   0.54397966 
    2500   -3409.4027    463.09203   -2946.3107    2613.1553    149142.16    10.472245   0.54511624 
    2600   -3400.8542    448.18084   -2952.6733    2529.0138    150327.46    10.472245   0.56615296 
    2700   -3390.9579    459.97776   -2930.9801    2595.5819    154091.34    10.472245   0.57811865 
    2800   -3392.6602    467.81749   -2924.8427    2639.8203    153912.82    10.472245    0.5913029 
    2900   -3401.0429    447.99371   -2953.0491    2527.9578    150406.67    10.472245   0.58803405 
    3000   -3402.2406    449.18334   -2953.0572    2534.6707    151151.46    10.472245   0.57942833 
    3100     -3382.91    465.71476   -2917.1952    2627.9549    156051.89    10.472245   0.58443784 
    3200   -3399.3887    457.32939   -2942.0593    2580.6376    151420.59    10.472245   0.58069813 
    3300   -3412.7059    470.05813   -2942.6478    2652.4639    149414.37    10.472245   0.57089913 
    3400   -3417.1399     464.2134   -2952.9265     2619.483    147537.61    10.472245    0.5769027 
    3500   -3420.0394    464.25312   -2955.7863    2619.7071    146791.09    10.472245   0.58150564 
    3600   -3389.3327    470.67151   -2918.6611    2655.9251    154455.19    10.472245   0.60643196 
    3700   -3395.1655    460.34718   -2934.8183    2597.6665     152684.1    10.472245   0.61628719 
    3800   -3404.4979    461.42679   -2943.0712    2603.7586    149974.64    10.472245    0.6328814 
    3900   -3401.3317    456.86318   -2944.4685    2578.0068    150780.62    10.472245   0.64952671 
    4000    -3422.232    453.37302    -2968.859    2558.3124    145658.89    10.472245   0.65654211 
    4100    -3401.319    459.55823   -2941.7608    2593.2146    150979.32    10.472245   0.66144138 
    4200   -3396.4822    457.45556   -2939.0267    2581.3495    151830.77    10.472245   0.67742993 
    4300   -3398.3882    460.72417   -2937.6641    2599.7938    153034.44    10.472245   0.69546832 
    4400   -3386.0595    452.69822   -2933.3613    2554.5046     154444.7    10.472245    0.7227219 
    4500   -3374.3878    467.46345   -2906.9243    2637.8225    159468.29    10.472245    0.7544789 
    4600   -3383.2021    464.02705    -2919.175    2618.4314    156744.07    10.472245   0.76614088 
    4700   -3382.3901    449.30605   -2933.0841    2535.3631    155645.93    10.472245     0.778256 
    4800   -3365.5689    446.47898     -2919.09    2519.4104    159175.49    10.472245   0.79904983 
    4900   -3365.2141    474.28187   -2890.9322    2676.2978    160550.45    10.472245   0.83125757 
    5000   -3394.2403    467.59248   -2926.6478    2638.5506     154827.6    10.472245   0.83652166 
    5100   -3389.4379     458.7777   -2930.6602    2588.8102    154186.11    10.472245   0.84473904 
    5200   -3377.9332    476.00779   -2901.9254    2686.0369    157479.31    10.472245   0.84394153 
    5300   -3383.0702    455.28274   -2927.7875    2569.0886    155816.75    10.472245   0.87381914 
    5400   -3363.3874    472.79955   -2890.5878    2667.9333    160547.74    10.472245   0.90036929 
    5500   -3368.7557     459.5899   -2909.1658    2593.3933    159239.05    10.472245   0.91603117 
    5600   -3379.6502    458.58315   -2921.0671    2587.7123    157706.78    10.472245   0.95355214 
    5700   -3363.6747    440.51526   -2923.1595    2485.7581    159022.68    10.472245   0.98747309 
    5800   -3372.9382    466.88521   -2906.0529    2634.5596    158790.15    10.472245    1.0411606 
    5900   -3352.8547    434.03146   -2918.8233     2449.171    162060.13    10.472245    1.1394074 
    6000   -3353.8096    471.61083   -2882.1988    2661.2255    164049.55    10.472245    1.1913138 
    6100   -3338.7216     467.3104   -2871.4112    2636.9588    167025.59    10.472245    1.2440365 
    6200   -3331.4578    451.46488   -2879.9929    2547.5451    167259.72    10.472245    1.2943357 
    6300   -3354.4189    468.99953   -2885.4193    2646.4903    162216.16    10.472245    1.3591538 
    6400   -3331.5684    441.75693   -2889.8115    2492.7647    167998.53    10.472245    1.4324753 
    6500   -3329.7861    476.42324   -2853.3628    2688.3812    168753.59    10.472245    1.5068851 
    6600   -3342.3354    464.33391   -2878.0015     2620.163    166675.89    10.472245    1.6095967 
    6700   -3342.5413    459.21674   -2883.3246    2591.2876    166305.83    10.472245    1.7210367 
    6800    -3319.715     461.4232   -2858.2918    2603.7383    171133.28    10.472245    1.8465617 
    6900   -3301.8901    461.40343   -2840.4867    2603.6267     176346.2    10.472245    1.9992089 
    7000    -3282.811    476.66778   -2806.1432    2689.7611    181393.33    10.472245    2.1515138 
    7100   -3294.3908    465.29604   -2829.0948    2625.5921    177997.91    10.472245    2.3142346 
    7200   -3282.1364    455.27984   -2826.8565    2569.0723    179968.68    10.472245    2.5373614 
    7300   -3262.1543    444.83153   -2817.3228    2510.1142    184586.75    10.472245    2.7506278 
    7400        -3284    460.91156   -2823.0884    2600.8512    180200.68    10.472245    2.9357142 
    7500   -3270.7846    470.88326   -2799.9013      2657.12     183053.3    10.472245    3.1688415 
    7600   -3256.8749     455.1539    -2801.721    2568.3616    184771.69    10.472245    3.4332301 
    7700   -3269.1436    452.42762   -2816.7159    2552.9777    183773.19    10.472245    3.7509465 
    7800   -3251.5716    451.45982   -2800.1117    2547.5165    187546.65    10.472245    3.9756906 
    7900   -3272.9462    482.12034   -2790.8258     2720.529    184484.92    10.472245    4.1514543 
    8000   -3268.9458    462.22942   -2806.7164    2608.2877    184495.45    10.472245    4.3402608 
    8100   -3276.7528    466.87029   -2809.8825    2634.4754    182644.91    10.472245     4.667978 
    8200   -3286.6156    449.62005   -2836.9956     2537.135    178943.29    10.472245    4.9447911 
    8300   -3273.5402    463.15956   -2810.3806    2613.5363    183760.61    10.472245    5.2528176 
    8400   -3266.5851    474.88639   -2791.6987     2679.709    185578.09    10.472245    5.5795522 
    8500   -3262.9396    459.01484   -2803.9248    2590.1483    185761.82    10.472245    5.8516308 
    8600   -3271.6945    452.93367   -2818.7608    2555.8332    182502.55    10.472245    6.1043946 
    8700   -3246.3618    464.48761   -2781.8741    2621.0303    189255.13    10.472245    6.4531857 
    8800   -3259.7449    452.23123   -2807.5137    2551.8695    185100.22    10.472245    6.7289423 
    8900   -3264.8417    452.11561   -2812.7261     2551.217    183586.69    10.472245    7.0008368 
    9000   -3274.0307    446.98121   -2827.0495    2522.2444    182858.87    10.472245    7.2994301 
    9100   -3266.7241    470.03983   -2796.6843    2652.3606    185774.87    10.472245    7.5808484 
    9200   -3263.6171    457.94119   -2805.6759    2584.0899    184327.67    10.472245    7.8079602 
    9300   -3274.3592    455.50053   -2818.8586    2570.3176    183202.46    10.472245    8.0805457 
    9400   -3262.1198    479.88239   -2782.2374    2707.9006    187086.27    10.472245    8.3657623 
    9500   -3268.5638    472.08436   -2796.4794    2663.8975    185112.54    10.472245    8.5683328 
    9600   -3259.7718     451.6472   -2808.1246    2548.5739    185094.44    10.472245    8.7655601 
    9700   -3262.5229    479.38401   -2783.1389    2705.0883    186562.13    10.472245    8.9858864 
    9800   -3275.3823    458.12641   -2817.2559    2585.1351    182093.35    10.472245    9.2598957 
    9900   -3279.9748    455.14369   -2824.8311     2568.304    180835.76    10.472245    9.5295463 
   10000   -3274.1763    474.03002   -2800.1463    2674.8766    182005.15    10.472245    9.7838989 
Loop time of 37.7414 on 1 procs for 10000 steps with 1372 atoms

Performance: 22.893 ns/day, 1.048 hours/ns, 264.961 timesteps/s
100.0% CPU use with 1 MPI tasks x no OpenMP threads

MPI task timing breakdown:
Section |  min time  |  avg time  |  max time  |%varavg| %total
---------------------------------------------------------------
Pair    | 23.567     | 23.567     | 23.567     |   0.0 | 62.44
Neigh   | 0.50192    | 0.50192    | 0.50192    |   0.0 |  1.33
Comm    | 0.18971    | 0.18971    | 0.18971    |   0.0 |  0.50
Output  | 0.0049551  | 0.0049551  | 0.0049551  |   0.0 |  0.01
Modify  | 13.404     | 13.404     | 13.404     |   0.0 | 35.52
Other   |            | 0.07377    |            |       |  0.20

Nlocal:    1372 ave 1372 max 1372 min
Histogram: 1 0 0 0 0 0 0 0 0 0
Nghost:    3524 ave 3524 max 3524 min
Histogram: 1 0 0 0 0 0 0 0 0 0
Neighs:    71875 ave 71875 max 71875 min
Histogram: 1 0 0 0 0 0 0 0 0 0

Total # of neighbors = 71875
Ave neighs/atom = 52.387
Neighbor list builds = 167
Dangerous builds = 0
    
Total wall time: 0:00:37
