LAMMPS (3 Mar 2020)
Reading data file ...
  orthogonal box = (0 0 0) to (17.469 17.469 17.469)
  1 by 1 by 1 MPI processor grid
  reading atoms ...
  217 atoms
  read_data CPU = 0.00101758 secs
Reading potential file library.meam with DATE: 2012-06-29
Reading potential file LiSi.meam with DATE: 2020-11-07
1 atoms in group Li
216 atoms in group Si
Neighbor list info ...
  update every 1 steps, delay 10 steps, check yes
  max neighbors/atom: 2000, page size: 100000
  master list distance cutoff = 6
  ghost atom cutoff = 6
  binsize = 3, bins = 6 6 6
  2 neighbor lists, perpetual/occasional/extra = 2 0 0
  (1) pair meam/c, perpetual
      attributes: full, newton on
      pair build: full/bin/atomonly
      stencil: full/bin/3d
      bin: standard
  (2) pair meam/c, perpetual, half/full from (1)
      attributes: half, newton on
      pair build: halffull/newton
      stencil: none
      bin: none
Setting up Verlet run ...
  Unit style    : metal
  Current step  : 0
  Time step     : 0.003
Per MPI rank memory allocation (min/avg/max) = 8.895 | 8.895 | 8.895 Mbytes
Step Temp E_pair E_mol TotEng Press Volume 
       0         1400   -951.04357            0    -911.9553   -116399.41    5330.9442 
    3200    1424.9469   -954.92242            0   -915.13763    13940.457    4517.9814 
Loop time of 2.34872 on 1 procs for 3200 steps with 217 atoms

Performance: 353.145 ns/day, 0.068 hours/ns, 1362.442 timesteps/s
100.0% CPU use with 1 MPI tasks x no OpenMP threads

MPI task timing breakdown:
Section |  min time  |  avg time  |  max time  |%varavg| %total
---------------------------------------------------------------
Pair    | 2.2708     | 2.2708     | 2.2708     |   0.0 | 96.68
Neigh   | 0.029141   | 0.029141   | 0.029141   |   0.0 |  1.24
Comm    | 0.014419   | 0.014419   | 0.014419   |   0.0 |  0.61
Output  | 2.6384e-05 | 2.6384e-05 | 2.6384e-05 |   0.0 |  0.00
Modify  | 0.029557   | 0.029557   | 0.029557   |   0.0 |  1.26
Other   |            | 0.004813   |            |       |  0.20

Nlocal:    217 ave 217 max 217 min
Histogram: 1 0 0 0 0 0 0 0 0 0
Nghost:    957 ave 957 max 957 min
Histogram: 1 0 0 0 0 0 0 0 0 0
Neighs:    4335 ave 4335 max 4335 min
Histogram: 1 0 0 0 0 0 0 0 0 0
FullNghs:  8670 ave 8670 max 8670 min
Histogram: 1 0 0 0 0 0 0 0 0 0

Total # of neighbors = 8670
Ave neighs/atom = 39.9539
Neighbor list builds = 49
Dangerous builds = 1
Setting up Verlet run ...
  Unit style    : metal
  Current step  : 3200
  Time step     : 0.003
Per MPI rank memory allocation (min/avg/max) = 9.666 | 9.666 | 9.666 Mbytes
Step PotEng KinEng TotEng Temp Press Density c_msdli[4] c_msdsi[4] 
    3200   -954.92242     39.78479   -915.13763    1424.9469    13940.457    2.2322598            0 2.9102941e-33 
    3300   -961.11959    38.535495   -922.58409    1380.2017    6556.3312     2.225707   0.69120948  0.079700817 
    3400   -950.67346     35.73799   -914.93547    1280.0052    -9380.555    2.1665781   0.11913187   0.11034285 
    3500   -952.42514    38.387661   -914.03748    1374.9068   -12144.388    2.1625218   0.15488589  0.092762555 
    3600   -953.44606    38.117405   -915.32865    1365.2272    2735.1504    2.2048424    0.6209929   0.10025654 
    3700   -959.77616    38.281266   -921.49489    1371.0961     13854.16    2.2432558    1.0566937  0.094785268 
    3800   -954.39847    41.589085   -912.80939    1489.5702    1756.2497    2.1971538   0.70026261   0.10003915 
    3900   -953.31174    39.565402   -913.74634    1417.0892   -9941.1087    2.1651928   0.20942196   0.10806642 
    4000   -953.36257    36.266103   -917.09647    1298.9203   -8207.1394    2.1724618   0.20285663   0.11425653 
    4100   -957.32976    37.777593   -919.55217    1353.0564     6108.277     2.215824   0.71910675  0.092818204 
    4200   -951.83969    40.249786    -911.5899    1441.6014    10079.441    2.2138244   0.29106812  0.097255579 
    4300   -954.53469     40.58769     -913.947    1453.7039   -1893.4924    2.1910967   0.33245915  0.091623586 
    4400     -950.966     34.57424   -916.39176    1238.3239   -6971.3928    2.1732722   0.14838668  0.088964961 
    4500   -954.25144    35.528192   -918.72325     1272.491   -3302.3043    2.1872267   0.83276803  0.090449574 
    4600   -952.21171    41.972724   -910.23899    1503.3107    3188.6437    2.1966837    0.3327276     0.104126 
    4700   -951.34983    39.495204   -911.85463     1414.575    11366.778    2.2196946   0.25535132   0.10220798 
    4800   -952.63412    37.439448   -915.19467    1340.9453    3409.9939    2.2025407   0.74715814   0.10167096 
    4900   -952.89305    37.342872   -915.55018    1337.4863   -5542.2422     2.174514    0.3983576   0.11564434 
    5000   -948.96066    41.624486   -907.33617    1490.8381   -11111.343    2.1612027   0.16313844  0.097215835 
    5100   -952.07035    37.886283   -914.18407    1356.9493    7159.0468    2.2084498   0.18206267   0.11789261 
    5200   -952.09196    37.294747   -914.79722    1335.7626    12538.484    2.2228041   0.60523827   0.11858142 
    5300    -950.7429    38.472298    -912.2706    1377.9382    1074.2658    2.1925058   0.14894264   0.11060263 
    5400   -949.15759    41.506799   -907.65079     1486.623    -9658.097    2.1586415   0.16590608   0.12942433 
    5500   -952.28165    36.247381   -916.03427    1298.2497   -904.54163    2.1910342   0.28566836  0.097979641 
    5600   -955.77484     41.65015   -914.12469    1491.7573    6914.0018    2.2166441   0.20565587  0.093781183 
    5700   -951.93952     40.49429   -911.44523    1450.3586    7788.6536    2.2115924  0.075071018  0.096415875 
    5800   -947.78925    43.406653    -904.3826    1554.6689   -3386.4589    2.1715154   0.15598374   0.12037925 
    5900   -954.80659    41.624904   -913.18168    1490.8531   -7108.2047    2.1779228  0.077885193   0.10660579 
    6000   -956.22283    42.195901   -914.02693    1511.3042   -2631.6939    2.1934003   0.43528629   0.10193836 
    6100   -953.52697    38.988189   -914.53878    1396.4155     7703.448    2.2128552   0.26226143    0.1104232 
    6200   -956.61866    38.451673   -918.16698    1377.1995    4131.7631    2.2096936   0.23351935  0.098231918 
    6300   -957.76897    35.631646   -922.13732    1276.1964   -808.53219    2.2031387   0.10953307   0.11698839 
    6400   -952.55389    37.690445   -914.86345     1349.935   -7079.8407    2.1825235    4.3228473    0.1451696 
    6500   -953.02817    39.156108   -913.87206    1402.4298    -6439.249    2.1788013    5.8019614   0.13692477 
    6600   -956.70952    38.035315    -918.6742     1362.287    786.06914    2.2061658    6.1983311   0.12594252 
    6700   -957.39475    38.396671   -918.99807    1375.2295     8076.171    2.2226406    5.2340508   0.12607343 
    6800   -956.63195    43.480483   -913.15147    1557.3132    637.55659    2.2003979    5.5928885   0.12238195 
    6900   -955.91463    39.183941   -916.73069    1403.4267   -7221.0859    2.1830942    5.0002623   0.12478596 
    7000   -957.12003    36.220031       -920.9    1297.2702   -7049.5688    2.1874241    5.4644271   0.13181838 
    7100   -953.21864    40.338732   -912.87991    1444.7871   -1933.5886    2.1925174    6.0099594   0.15165802 
    7200   -955.30719    40.995967   -914.31122    1468.3269    8487.6706    2.2182062    5.4625182   0.13712914 
    7300   -957.77177    39.943714   -917.82805     1430.639    3121.8358     2.211912    5.6285166   0.12787807 
    7400    -948.0595    37.976036   -910.08346    1360.1639    -2892.375    2.1752659     6.726133   0.14094576 
    7500   -950.27178    37.311569   -912.96021    1336.3651   -4190.0889    2.1791713    5.5310746   0.13256845 
    7600   -955.74397    38.822381   -916.92159    1390.4769    662.08591     2.202129    7.1754677   0.12564297 
    7700   -952.73455    39.023595   -913.71095    1397.6837    7639.6003    2.2131921    5.2225569   0.12934612 
    7800   -951.11709    41.324619   -909.79247     1480.098    1567.3743    2.1918231    5.4034568   0.12593008 
    7900   -955.21787     37.91779   -917.30008    1358.0777   -7852.2577    2.1813666    5.2933953   0.12676334 
    8000   -953.64236     37.95022   -915.69214    1359.2393   -6227.9222    2.1805262    5.9948743   0.12538977 
    8100   -951.06494     41.08636   -909.97858    1471.5644     7709.135    2.2070148    6.0388185   0.12351784 
    8200   -953.43746    35.991313   -917.44614    1289.0783    18367.502     2.241934     6.206855    0.1258526 
    8300   -955.00461    37.830164   -917.17444    1354.9393   -3565.3173    2.1910637    5.1693983   0.12816115 
    8400    -953.9117    39.903692     -914.008    1429.2055   -17114.496     2.150044    5.5298235   0.13017253 
    8500   -954.55786     41.01206    -913.5458    1468.9033   -7010.6516    2.1789124    6.1601427   0.13765096 
    8600   -960.35874    39.625754   -920.73299    1419.2508    8928.2599    2.2313029    5.7258772   0.11034888 
    8700   -953.83024    39.575126   -914.25512    1417.4375     7067.381    2.2110293     6.559391     0.122117 
    8800   -951.78975    37.249301   -914.54044    1334.1349   -844.24865    2.1876239    5.5852464   0.11544159 
    8900   -957.91237    36.956306   -920.95606    1323.6409   -6475.9829    2.1879812    4.9509087   0.12250063 
    9000   -953.62873    37.757642   -915.87108    1352.3418   -1624.7265    2.1919005    6.9261931   0.12913823 
    9100   -953.41975    39.988442    -913.4313     1432.241    6244.6032    2.2093941    5.4801342   0.11788621 
    9200   -953.22342    35.392563   -917.83086    1267.6332    6979.5086    2.2120941    5.8200466   0.12467169 
    9300   -957.30904    39.628413   -917.68063     1419.346   -4732.2285    2.1902991    6.5099686   0.12346993 
    9400   -950.31091    38.715472   -911.59544    1386.6478   -8456.1286    2.1691453    7.4635654   0.14473382 
    9500    -953.9056    37.539198    -916.3664    1344.5179   -1708.9076    2.1911286    7.4152137   0.13113695 
    9600   -956.62042    40.237259   -916.38316    1441.1527    5538.8575    2.2168794    4.9216192    0.1188488 
    9700   -952.89157    44.433127   -908.45845    1591.4335    3922.6579    2.1987554    6.4035073   0.11798869 
    9800   -954.51439    39.105208   -915.40918    1400.6067   -1622.6019      2.19204    6.5704138   0.12201739 
    9900    -953.6013    36.885249   -916.71605    1321.0958   -6031.7277    2.1783922    5.8066062   0.12230425 
   10000   -950.25594     39.74176   -910.51418    1423.4057   -1666.1862    2.1822123    6.1188203   0.13511494 
   10100   -955.16556    40.603766    -914.5618    1454.2796    9477.2409    2.2198756    5.9869428   0.13015005 
   10200   -954.66128    37.820936   -916.84034    1354.6088    9455.6226    2.2201716    5.5407332   0.12389692 
   10300   -952.53313    38.114077   -914.41906     1365.108   -5278.3818    2.1797075    6.1442297   0.13814441 
   10400   -949.92539    37.576392     -912.349    1345.8501   -15995.373    2.1470382    6.5299667   0.14782378 
   10500   -960.59633    39.104269   -921.49206    1400.5731   -2598.7422    2.2031761    6.1833012   0.12158789 
   10600   -956.31566     40.76488   -915.55078    1460.0502    15364.222    2.2378953    6.1092811   0.12825034 
   10700   -957.01813    43.452623   -913.56551    1556.3154    5684.5621     2.212951    5.7854622    0.1183899 
   10800   -952.79832    35.422136   -917.37618    1268.6925     -3684.89    2.1825832    5.7444965   0.10726118 
   10900   -955.13283    34.582231    -920.5506    1238.6101   -5560.8254    2.1880002    6.3694374   0.11471356 
   11000   -950.77226    36.698462    -914.0738    1314.4058     1319.574     2.194532    5.3362661   0.13148005 
   11100   -955.18038    40.022627   -915.15775    1433.4653    5028.5925    2.2090188    5.2527954   0.12470801 
   11200   -957.77251    36.595496   -921.17701     1310.718    4817.9251    2.2168711    5.7234019   0.12709357 
   11300    -956.2324    42.565597    -913.6668    1524.5453   -6818.7743    2.1841005    6.2950458    0.1379139 
   11400    -955.3197    41.191323   -914.12837    1475.3238    -4049.776    2.1870422    6.2328404    0.1242841 
   11500   -956.99658    39.743339   -917.25324    1423.4623    299.27459    2.2051708    7.1982991   0.13526907 
   11600   -958.31092    38.455025    -919.8559    1377.3195    5347.6386    2.2188455    6.2703953   0.12089313 
   11700   -950.45972    39.458517   -911.00121     1413.261   -1709.4834    2.1872306    6.3773708   0.14320826 
   11800   -953.72386    39.347166    -914.3767    1409.2728   -5804.7804    2.1840207    5.5648111   0.13171351 
   11900   -959.48382    42.388202   -917.09562    1518.1917   -4310.5804    2.1969379    5.7276109   0.11496029 
   12000   -954.43458     39.44127   -914.99331    1412.6433    9162.5379    2.2208762      6.19635    0.1171101 
   12100    -948.4393     38.93572   -909.50358    1394.5363    6659.7014    2.2042753     10.73599   0.15079304 
   12200   -952.42054    37.118971   -915.30157    1329.4669   -6240.9036    2.1795761    4.9134498   0.13348686 
   12300   -950.28703    32.780229    -917.5068    1174.0689   -10340.074    2.1692805    5.6305119   0.14373735 
   12400   -950.90847    40.085907   -910.82256    1435.7318    631.33058    2.1928857    6.4114568   0.14410742 
   12500   -954.18454    42.081209   -912.10333    1507.1963    13223.737     2.227262    6.1354705    0.1349027 
   12600   -954.90347     38.28255   -916.62092    1371.1421    5634.3728    2.2144295    6.0241009    0.1293378 
   12700   -953.07675    38.659251    -914.4175    1384.6342   -5866.0541    2.1829056     6.060564   0.12180545 
   12800   -952.12192    42.781693   -909.34022    1532.2851   -9135.4963    2.1690981    5.8144505   0.13405111 
   12900   -954.67004    36.681868   -917.98817    1313.8115    2416.4551    2.2060649    5.7335556   0.11234073 
   13000   -954.91097    39.439109   -915.47187    1412.5658    5015.3895    2.2109071    7.1516231    0.1170763 
   13100   -952.62858    41.266289   -911.36229    1478.0088    754.89931    2.1937842    4.9097294    0.1182258 
   13200   -958.11374    39.580267   -918.53348    1417.6216   -4541.7894    2.1925955    5.9825019   0.10983769 
   13300   -958.33554    40.599569   -917.73597    1454.1293   -7099.5767    2.1870565    6.3475746    0.1205047 
   13400   -956.08483    42.720022   -913.36481    1530.0763   -2175.0963    2.1929062     6.668101   0.11259646 
   13500   -954.21709    38.068526   -916.14857    1363.4765    5130.2326    2.2094393    6.4684838   0.11700659 
   13600   -954.92816    35.087277   -919.84088     1256.699    5641.6925    2.2154144    5.4821314   0.12008678 
   13700   -952.02342      38.2509   -913.77252    1370.0085    -464.2084    2.1916522    6.9808463   0.12497427 
   13800   -955.60504    40.035892   -915.56915    1433.9405   -7226.4721    2.1819046    5.8759538   0.11490878 
   13900   -957.64509    36.192711   -921.45238    1296.2916   -2146.2703    2.1992386    6.2884034   0.11996976 
   14000   -954.31993    40.476262   -913.84367    1449.7129    8843.7691    2.2144804    5.8839883    0.1147772 
   14100   -953.74512     39.65234   -914.09278     1420.203    11403.891     2.222982    7.3163108   0.11593706 
   14200   -956.72751    37.420378   -919.30714    1340.2622   -1282.5096    2.1965454    5.6024343   0.11671675 
   14300   -949.05928    36.607121   -912.45216    1311.1343   -12200.709    2.1580127    6.7878079    0.1171181 
   14400   -950.71378    37.825968   -912.88781     1354.789   -2047.5297     2.184433    6.1147659   0.13116258 
   14500     -956.248     39.99502   -916.25298    1432.4766    8347.2464    2.2216936    5.1556126   0.11882065 
   14600   -956.91128    39.942002   -916.96928    1430.5777      7199.43    2.2188793    5.8441556   0.11949338 
   14700   -953.93199    44.578198    -909.3538    1596.6294   -7453.6318    2.1743906    5.5554158   0.13218696 
   14800   -955.19856    38.914085   -916.28448    1393.7614   -6778.7849    2.1820139    5.4400025   0.12353824 
   14900   -953.50476    37.288975   -916.21578    1335.5558    558.43294    2.1985811    5.5794745   0.12976054 
   15000   -952.82071    43.342667   -909.47804    1552.3772    3399.9785    2.2008633    6.2462287   0.12591511 
   15100   -953.13469    37.574604   -915.56009    1345.7861    4567.1639    2.2045311    6.8508865   0.12663156 
   15200   -953.01969    35.893934   -917.12576    1285.5906   -1525.9816    2.1889951    7.5918606   0.12463389 
   15300   -951.53199    39.067024   -912.46497    1399.2391   -3419.1407    2.1792374    5.4010441   0.12922266 
   15400   -956.88407      42.9532   -913.93087    1538.4279   -3531.7502    2.1921719    6.5189734   0.13077023 
   15500   -956.51367    37.880943   -918.63273     1356.758    4057.6233    2.2128895    5.4000841   0.12268804 
   15600   -951.70371    37.899569   -913.80414    1357.4251    4820.0989    2.2026699    6.5028847   0.12055983 
   15700   -955.00899    40.664098   -914.34489    1456.4405   -3231.3395    2.1882405    6.4551558   0.11675878 
   15800   -955.38551    34.448793   -920.93672    1233.8308   -816.13404    2.1981953    6.0037282    0.1193195 
   15900   -952.92525    38.606196   -914.31905    1382.7339   -7.3771784    2.1935272    6.4750495   0.12847163 
   16000   -954.97602    40.719368   -914.25665    1458.4201    1656.3838    2.1981996    6.2983979   0.11538533 
   16100   -955.38339    34.665054   -920.71833    1241.5765      3741.85    2.2077745    6.4317921   0.12426997 
   16200   -952.82631    39.050996   -913.77531    1398.6651   -1603.0907    2.1892857    7.2882569   0.13359919 
   16300   -955.40843    41.307863   -914.10057    1479.4979   -2066.2841    2.1935143     5.763457   0.12380718 
   16400    -958.6688    39.883673   -918.78512    1428.4885   -1097.8637    2.2012333    6.4422767   0.12926927 
   16500   -954.06076    40.938883   -913.12188    1466.2823    1088.0718    2.1958051    6.1700972   0.12575735 
   16600   -957.34478    44.758575   -912.58621    1603.0898   -664.36948    2.1967182    6.2391933   0.11592597 
   16700   -955.49251    37.952816   -917.53969    1359.3322      1157.28    2.1993252    6.2824431   0.13401722 
   16800   -953.52264    39.470442    -914.0522    1413.6881   -1028.3424    2.1909767    6.2882948   0.12218099 
   16900   -952.96593    42.015851   -910.95008    1504.8554   -2928.5648    2.1835526    6.3158542   0.12439156 
   17000   -952.78018    35.546717   -917.23346    1273.1545    2910.0084    2.2019026    7.7502776   0.12792817 
   17100   -952.36838    37.865097   -914.50328    1356.1904    4736.7754    2.2048291    6.9053368    0.1201051 
   17200   -949.53061    39.770255   -909.76036    1424.4263    705.55279     2.189272    6.1740457   0.14571008 
   17300   -952.70424    34.940316   -917.76392    1251.4354   -1677.0213    2.1889654    5.7435899   0.12995791 
   17400   -954.03088    38.192317   -915.83856    1367.9103   -3719.0637    2.1866903    6.8892442   0.13608428 
   17500   -951.50594    40.598818   -910.90712    1454.1024    4221.3713    2.1991217    6.9554522    0.1315283 
   17600   -955.75577    36.954245   -918.80152    1323.5671    10906.156    2.2266721    6.8733851   0.12681419 
   17700   -955.27623    38.205903   -917.07033    1368.3969   -1825.4841    2.1935231    6.3290022   0.13193259 
   17800   -952.60362     39.06307   -913.54055    1399.0975   -10761.541    2.1634549     6.545141   0.12214127 
   17900   -951.94594    35.064571   -916.88137    1255.8858   -3454.8437    2.1847298    6.6877645   0.13923424 
   18000    -955.6649    36.228895     -919.436    1297.5876    8675.0031    2.2225634    6.6257701   0.12662883 
   18100   -953.49695    40.891207   -912.60574    1464.5747    8496.1003    2.2134877    7.1932082    0.1244282 
   18200   -954.88813    38.755888   -916.13225    1388.0954   -836.33976    2.1935276    5.8724102   0.13156627 
   18300   -954.07727    33.078561   -920.99871    1184.7541   -6978.7461    2.1835737    6.1175918   0.12254514 
   18400   -953.08194    39.842959   -913.23898    1427.0303   -4047.1048    2.1802328    6.1885013   0.12740324 
   18500   -952.28003    37.844945   -914.43508    1355.4687    6971.0913    2.2088651    6.8783157   0.13210879 
   18600   -958.26152    39.187429   -919.07409    1403.5516    4649.1962      2.21765    6.2480031   0.10843474 
   18700   -951.15535    39.853822   -911.30153    1427.4194    -299.2695    2.1856616    7.3810655    0.1399882 
   18800   -956.08801    42.205834   -913.88218    1511.6599   -4836.1628    2.1848496    5.3796072   0.11293803 
   18900   -957.02299    39.029547   -917.99344    1397.8968   -2010.4816    2.1971411    6.3546815   0.12368931 
   19000   -952.96551    40.514881   -912.45063    1451.0961     2770.987    2.1999308    6.8470063   0.12360833 
   19100   -949.24289    37.156852   -912.08604    1330.8237    4798.6618    2.1982114    6.0298892   0.12924451 
   19200   -955.34484    37.709844   -917.63499    1350.6299   -1749.9642    2.1944981    5.9711421   0.10802251 
   19300   -951.80269    38.300291   -913.50239    1371.7775   -1563.2158    2.1856457    7.1711132   0.12280126 
   19400   -952.02417    41.048437   -910.97574    1470.2061   -2343.0741    2.1844114    6.2509487   0.12062012 
   19500   -955.34953    37.260484   -918.08905    1334.5354    4597.0047    2.2101038    5.9509951   0.12303892 
   19600   -955.62823    41.550526   -914.07771    1488.1891    3548.5332    2.2044387    7.2387326   0.10843863 
   19700   -951.10632    38.862806   -912.24351    1391.9248    409.19539    2.1846255    7.8652253   0.11526734 
   19800   -956.45578    36.293078    -920.1627    1299.8864    -8743.083    2.1814202    5.6587191   0.11303325 
   19900   -953.30474    37.646096   -915.65864    1348.3466   -814.83056    2.1906879    6.3002016   0.11930447 
   20000   -954.24795    42.422284   -911.82566    1519.4124    10783.187    2.2181983    6.3590208   0.12005851 
   20100   -959.30606    40.054413   -919.25165    1434.6038    8610.0725    2.2263875    6.3590177   0.10385573 
   20200   -953.34445    37.563834   -915.78061    1345.4003   -6935.2614    2.1799363    5.4640946   0.12661939 
   20300    -951.7147    38.348492   -913.36621    1373.5039   -10463.789    2.1667135    5.4010177   0.11686625 
   20400   -956.01422    37.932186   -918.08204    1358.5933   -879.57051    2.1965779      7.11053   0.11248481 
   20500   -959.25389    41.943324   -917.31056    1502.2578    7975.8322    2.2248034    6.9402207   0.11583448 
   20600   -952.82663    41.509538   -911.31709    1486.7211    4734.1093     2.204937    6.6013729   0.11053877 
   20700   -954.17137    37.256935   -916.91444    1334.4083   -5309.9536    2.1846841    6.0663759   0.12298572 
   20800   -954.25725    37.728861   -916.52839     1351.311   -7215.4516    2.1777869    6.0733107     0.111965 
   20900   -951.42623    41.561001   -909.86523    1488.5643   -3013.3183     2.182911    6.6465062    0.1227916 
   21000   -953.23455    36.942982   -916.29157    1323.1636    8383.6534    2.2144014     6.438586   0.10537778 
   21100   -955.86516    39.225689   -916.63947    1404.9219    3854.2591    2.2102444    7.1609684   0.11602359 
   21200   -951.97707    42.079519   -909.89755    1507.1358   -4352.5378    2.1808334    6.3609947   0.13668945 
   21300   -955.26974     38.34498   -916.92476    1373.3781    -5184.267    2.1871241    5.8092917   0.11719988 
   21400   -957.46099    40.700919   -916.76007    1457.7593   -2789.5643    2.1955585    6.2571131   0.11753942 
   21500   -950.35982    39.271019   -911.08881    1406.5455     4785.662    2.1998002    6.3615642   0.12341004 
   21600   -953.28909    35.770872   -917.51822    1281.1829    3911.6222    2.2105926    5.9251419   0.11806755 
   21700   -954.63693    37.074229    -917.5627    1327.8644   -2267.1863    2.1940106    5.7226628   0.12326465 
   21800   -951.41657    38.434425   -912.98215    1376.5817   -4685.2632    2.1802422    6.1455141   0.13407751 
   21900   -958.25856      40.4787   -917.77986    1449.8002   -3133.1703    2.1983478    6.5082113   0.11213918 
   22000    -958.2024    39.780354   -918.42205     1424.788    9553.5074    2.2284383    7.2057368   0.10929399 
   22100   -952.60833    40.592124    -912.0162    1453.8627    8705.0674    2.2155194    7.1808777   0.12560026 
   22200   -954.07563    37.696365   -916.37927    1350.1471   -10285.863    2.1727606    6.1717513   0.12015318 
   22300   -952.41851      32.6092   -919.80931    1167.9433   -12678.909      2.16579    6.9775775   0.13154419 
   22400   -953.62252    41.254044   -912.36847    1477.5703   -2505.1369      2.19071    5.2642031   0.12032192 
   22500   -953.54555    39.513016   -914.03254    1415.2129    12155.816     2.227968     6.431462   0.10921151 
   22600   -956.74579    38.555147   -918.19064    1380.9055    7115.3499    2.2196357    5.7049321   0.11432952 
   22700   -951.55304    40.852461   -910.70058     1463.187   -7277.4156    2.1728199    6.2280199   0.13185923 
   22800   -955.13322     40.80275   -914.33047    1461.4065   -8369.3289    2.1757143    5.8316585   0.11772173 
   22900   -958.58024    41.172953   -917.40729    1474.6659     -899.324    2.1996068    5.9197277    0.1159949 
   23000   -951.59299      40.2398   -911.35319    1441.2437    6496.0118    2.2094306    6.0641061   0.11945588 
   23100   -952.77525    38.803448    -913.9718    1389.7988    4074.8893    2.2041783    5.7850399   0.11313831 
   23200   -955.50051    37.241091   -918.25942    1333.8408   -5395.6886    2.1865024    6.6944415   0.11604113 
   23300   -953.17139    39.821852   -913.34954    1426.2743   -7378.2303    2.1751907    6.8162938   0.12145814 
   23400   -953.49297    40.154687   -913.33828    1438.1953    1166.4248    2.1928906    6.4116946   0.10604458 
   23500   -956.16283    37.195086   -918.96774    1332.1931    9493.8819    2.2214731    5.8490186   0.10731405 
   23600   -952.30829     38.97771   -913.33058    1396.0402    5209.0352    2.2027819    7.1706882   0.12801424 
   23700   -952.88849    38.309779   -914.57871    1372.1174   -4457.4896    2.1810761    5.7879769   0.11672401 
   23800   -957.73074    36.918636    -920.8121    1322.2917   -8877.7006    2.1827595    5.4850348   0.11597846 
   23900   -952.83663    38.858519   -913.97811    1391.7712    695.75057    2.1923419    5.5337496   0.11754044 
   24000   -954.02065    40.499849    -913.5208    1450.5577    12605.654    2.2252977     5.762095   0.11933516 
   24100   -954.79393    35.420566   -919.37337    1268.6362    11008.807     2.224404    6.9208491   0.13057473 
   24200   -949.04419    37.200257   -911.84394    1332.3783   -11285.212    2.1551748    6.7637061    0.1513135 
   24300   -952.99813    39.200496   -913.79763    1404.0196   -16018.877    2.1521295    6.0765539   0.12783858 
   24400   -954.74357    37.505949   -917.23762    1343.3271    4416.0235    2.2053382    6.5743542   0.11063941 
   24500   -953.98119    38.622141   -915.35905     1383.305    12524.404    2.2250495    8.1305026   0.12610913 
   24600   -951.98599    41.204656   -910.78133    1475.8014     356.5389    2.1908465    6.1869917   0.13435028 
   24700   -953.75341     36.41418   -917.33923    1304.2239   -3425.0395    2.1835241    6.0330567   0.12279854 
   24800    -951.0465    35.766952   -915.27954    1281.0425    -876.8193     2.185748    6.1119557    0.1316419 
   24900   -951.71686    42.132596   -909.58427    1509.0368     481.7575    2.1888514    7.2672394   0.12590063 
   25000   -956.84201    39.325552   -917.51646    1408.4986    5246.7876    2.2136268    5.7201002   0.12236421 
   25100   -953.29728    37.792262   -915.50502    1353.5818    2883.3588    2.2005299    6.8024512    0.1316981 
   25200   -950.81993    39.805086   -911.01484    1425.6738   -4528.8547    2.1730146    7.2555124   0.13526066 
   25300   -954.84244    35.688708   -919.15373    1278.2401   -2032.3452    2.1913323    6.0492255    0.1233531 
   25400   -955.56014     38.92065   -916.63949    1393.9966   -161.14664    2.1962503    5.9055522   0.12046528 
   25500   -953.99216    41.660348   -912.33181    1492.1226    2207.4301    2.1989534    6.0523499    0.1271502 
   25600   -955.72191    36.616178   -919.10574    1311.4587    3132.2945    2.2073198    5.7295833   0.11147891 
   25700   -953.49028    35.662947   -917.82734    1277.3174   -2709.7855    2.1863759    5.6492865   0.12804331 
   25800   -953.83962    40.416612   -913.42301    1447.5765   -5559.8238    2.1786317    6.2486911   0.13067654 
   25900   -956.79898    39.040614   -917.75836    1398.2932    1263.4336     2.202003    6.8944461   0.11910076 
   26000   -959.06741    40.060774   -919.00663    1434.8317    7813.4474    2.2235314    6.5681004   0.12265244 
   26100   -952.08113    39.864816   -912.21632    1427.8131    4154.6628    2.1977366    5.9763036   0.12011015 
   26200   -952.45566    35.867781   -916.58788    1284.6538   -8729.9259    2.1700666    6.4247413   0.13139781 
   26300   -955.40579    37.153906   -918.25188    1330.7182   -10282.937    2.1704174    6.1968388   0.12357575 
   26400   -951.30572    40.639207   -910.66652     1455.549    2252.7022    2.1930877    6.0303954   0.13191862 
   26500     -955.864    41.337903    -914.5261    1480.5738      12679.2     2.226526    5.9093082   0.11007387 
   26600   -956.57536    38.970528   -917.60483     1395.783    4029.8655    2.2079907     7.229868   0.10271252 
   26700   -952.90578    42.582253   -910.32353    1525.1419    -9118.811    2.1686727    5.1101022   0.13342394 
   26800   -954.18231    39.508877   -914.67344    1415.0647   -7466.4784    2.1780634    7.1561378   0.11612298 
   26900   -958.72924    41.507825   -917.22141    1486.6598   -1088.4578     2.200646    5.9982489     0.114538 
   27000   -953.53725     41.89888   -911.63837    1500.6659    5053.7754    2.2041325    6.3833258    0.1151211 
   27100   -954.16978    40.277703   -913.89208    1442.6013    550.29946    2.1961909    5.7707549   0.10535633 
   27200   -954.50969    36.234395    -918.2753    1297.7846   -2295.1418    2.1922164    6.6039766   0.13382885 
   27300   -956.07328    42.601614   -913.47166    1525.8353   -4677.8835    2.1854243       6.5979   0.11596115 
   27400   -953.14336    39.718159    -913.4252    1422.5604    974.31808      2.19655    7.3877605   0.12594355 
   27500   -957.37704    37.854348   -919.52269    1355.8054    7333.4361    2.2181259    6.3086402   0.11516506 
   27600   -953.96706    40.405659    -913.5614    1447.1842    1983.2103    2.1993975    5.4558331   0.12093077 
   27700   -952.20539    37.264815   -914.94057    1334.6905   -3699.7903    2.1823988    4.8439685   0.11900073 
   27800   -957.37938    36.345821   -921.03356    1301.7755   -5590.7111    2.1910859    5.8398901   0.12050078 
   27900   -953.23819    39.551643   -913.68655    1416.5964    2857.8278    2.1979296    6.5675595   0.12393787 
   28000   -953.14835    39.511623   -913.63672    1415.1631    12756.946     2.222516    6.3073834   0.12717676 
   28100   -958.65547    39.295413   -919.36006    1407.4192    3642.7052    2.2155083    6.6276082   0.12010008 
   28200   -950.55539    38.929413   -911.62598    1394.3104    -12735.88    2.1564814    6.9273316   0.13255994 
   28300   -952.58186    39.165636   -913.41622     1402.771   -11951.431    2.1654571    5.4458548   0.12178249 
   28400   -957.63441    40.682086   -916.95233    1457.0848    3409.6913    2.2118344    4.8649108   0.11118949 
   28500   -956.41125    40.814535   -915.59671    1461.8286    11144.389    2.2287899    4.6503595   0.11476822 
   28600   -949.99265    40.296919   -909.69573    1443.2895    2759.3239     2.190392    5.4324377   0.11384576 
   28700   -956.05405    39.316918   -916.73713    1408.1894   -7509.6843    2.1812609     5.751849   0.13269211 
   28800   -954.30903    38.556971   -915.75206    1380.9709   -3717.2306    2.1884462    6.5015589    0.1204595 
   28900   -952.78948    43.854742   -908.93474    1570.7178    1656.0075    2.1937688    5.2032837   0.13719244 
   29000   -956.24933    39.630691   -916.61864    1419.4276    5699.1944    2.2149354      7.27596   0.13437685 
   29100   -953.61749    37.089375   -916.52811    1328.4069   -1154.1629    2.1967011    7.5712054   0.13763124 
   29200   -950.90026    39.045314   -911.85494    1398.4616   -4745.7122    2.1764281    7.2003531   0.13337566 
   29300   -956.86376     39.38602   -917.47774    1410.6644   -4879.1732    2.1908155    5.0211685    0.1144082 
   29400   -957.77369    39.442589    -918.3311    1412.6905    655.84308    2.2070347    6.5095704   0.11253247 
   29500   -955.19831    41.709152   -913.48916    1493.8706    3874.8809    2.2088401    6.3996984   0.11969037 
   29600   -955.04391    39.580166   -915.46375     1417.618   -559.52302    2.1976131    5.3862972   0.12571904 
   29700   -957.62523     36.70741   -920.91782    1314.7263   -4395.1128    2.1944941    5.7726476   0.12005216 
   29800   -954.34895    39.861585   -914.48737    1427.6974   -5244.2186    2.1847636    5.8590032   0.12485556 
   29900   -956.84249    42.429739   -914.41275    1519.6794    464.83883    2.2023862    6.8870448   0.12092813 
   30000   -957.24543    36.450979   -920.79445    1305.5419    9665.7479    2.2316631    7.7129614   0.12915853 
   30100    -949.8969     36.31329   -913.58361    1300.6104    5103.0818    2.2003036    6.0338461   0.12885641 
   30200   -954.80142     40.57458   -914.22684    1453.2343   -13002.156    2.1637237    5.7196289   0.13244594 
   30300    -956.5915    38.607093    -917.9844    1382.7661   -12290.548    2.1728151    5.2800587   0.12462541 
   30400   -957.96002    41.056924    -916.9031    1470.5101    5488.9319    2.2170872    6.0669275   0.12826982 
   30500   -955.12989    44.440153   -910.68974    1591.6851    9906.9614    2.2193777    7.0045502   0.12855109 
   30600    -952.4329    36.450025   -915.98287    1305.5077     1136.305    2.1949146    5.4609713   0.11945844 
   30700   -953.40394    36.210219   -917.19373    1296.9187   -8700.4226    2.1761657    5.1572534   0.11931002 
   30800   -952.00385    43.086282   -908.91757    1543.1944   -5449.2514    2.1742071    7.1075245   0.12299626 
   30900   -952.75931    38.095229   -914.66409    1364.4329    7856.0441    2.2117594     7.764555   0.11702611 
   31000   -957.61861     41.27078   -916.34783    1478.1697    4565.4109    2.2132509    9.0255663   0.13032362 
   31100   -951.52682    41.073792   -910.45302    1471.1143   -4045.1741    2.1756484    9.2415028   0.12759461 
   31200   -953.39849    39.673826   -913.72467    1420.9726   -7222.0208    2.1740313    6.5395295    0.1149981 
   31300   -956.65311     39.38381    -917.2693    1410.5853   -868.57874    2.1968442    6.2961064   0.11835748 
   31400   -954.43919    42.096701   -912.34249    1507.7512    5444.5997    2.2095985    6.2212137   0.12475988 
   31500   -954.69575    41.630927   -913.06482    1491.0688    2754.2561     2.200094    6.3882602   0.12525235 
   31600   -958.65432    39.857724    -918.7966    1427.5591   -5351.2689    2.1906084    5.6076223   0.11316126 
   31700   -952.20499    37.719242   -914.48575    1350.9665   -2717.0558    2.1851855    6.0416413    0.1298545 
   31800   -951.88126    39.310478   -912.57079    1407.9588    2315.4633    2.1930472    5.6492279   0.12441627 
   31900   -957.24697    36.707026   -920.53994    1314.7126    6566.0034    2.2187827    6.7335228   0.11832067 
   32000   -954.12714    39.110107   -915.01703    1400.7822    766.35128    2.1965137    5.8496786   0.11452665 
   32100    -955.4947    41.558386   -913.93631    1488.4707    -6001.166    2.1799779    5.1105927   0.11052216 
   32200   -958.65946    38.051636   -920.60782    1362.8716    -3446.964    2.1954677    6.8786999   0.11090975 
   32300     -952.989    37.109525   -915.87948    1329.1286    5448.7913    2.2034847     6.405602   0.12072384 
   32400    -955.0039    41.736992   -913.26691    1494.8677     3167.397     2.205837    7.7277223   0.12455527 
   32500   -952.94935    34.367845    -918.5815    1230.9316    2685.6418    2.2032035    6.1964497   0.12646429 
   32600    -953.4103    36.563428   -916.84688    1309.5694    171.34876    2.1953951    7.8860996   0.13081946 
   32700    -950.1028    37.847763   -912.25503    1355.5696   -960.85945    2.1871301    4.9805188   0.12512197 
   32800   -955.14976    38.194717   -916.95504    1367.9962   -622.76269    2.1988275    5.2941324    0.1319906 
   32900    -954.8066    37.500332   -917.30627    1343.1259    1347.0577    2.2043567    6.5707189   0.13524361 
   33000   -950.08734    40.172217   -909.91513    1438.8231    743.65085    2.1872584    7.4852448   0.13203262 
   33100   -954.66618    38.289137   -916.37704     1371.378    -322.4711    2.1965552    7.4275749   0.13079245 
   33200   -954.83249     38.33366   -916.49883    1372.9727    451.64377    2.2020902    5.9004176   0.13153114 
   33300   -948.76471    39.665208   -909.09951    1420.6639    1414.7195    2.1883517    5.8331671   0.13307522 
   33400   -956.09501    39.683105    -916.4119    1421.3049    1376.2435    2.2024039    7.6860431      0.12746 
   33500   -956.26512     39.68885   -916.57627    1421.5107   -2393.9511    2.1967583    5.4939167   0.11824246 
   33600   -952.74902    41.717659   -911.03136    1494.1752   -3010.1084    2.1855878    4.7836025   0.13040647 
   33700   -955.66118    38.683032   -916.97815    1385.4859   -530.77228    2.2017627     4.838005   0.13234635 
   33800   -956.88406     39.09998   -917.78408    1400.4195   -1045.4879     2.200758    5.1594641   0.11506109 
   33900   -952.60899    39.272233   -913.33675    1406.5889   -368.94524    2.1951013    5.5006198   0.12705258 
   34000   -954.60683    39.805352   -914.80148    1425.6833   -1056.6011    2.1940053    5.0900642   0.11628251 
   34100   -958.85064    38.763628   -920.08701    1388.3726     1580.235    2.2078348    6.0646959   0.12074016 
   34200   -956.13745    41.985121   -914.15233    1503.7548    2093.6409    2.2033662    6.2469916   0.12291818 
   34300   -955.14434    40.665655   -914.47868    1456.4963   -196.69368    2.1954101    7.5839213    0.1227786 
   34400   -961.02953    39.539395   -921.49014    1416.1577   -4913.4361    2.1962719    5.9727687    0.1195686 
   34500   -954.21299    39.581783    -914.6312    1417.6759   -5005.7303    2.1829819    7.6955993   0.12104478 
   34600   -955.16009     41.30192   -913.85817     1479.285    1716.9378    2.2003399    6.2366566   0.11745729 
   34700   -958.31155    38.684265   -919.62728    1385.5301    5521.8318    2.2189291     5.897704   0.11864031 
   34800    -953.0866    39.021589   -914.06501    1397.6118    2367.8433    2.1989799    5.6422189   0.12311581 
   34900   -954.32993    40.931018   -913.39891    1466.0006   -4578.1231     2.182601    5.7922489   0.12337684 
   35000   -956.26279    38.274175   -917.98861    1370.8421   -6185.7062    2.1868435    5.0332266   0.12047352 
   35100   -954.84039    39.292187    -915.5482    1407.3037    2337.6464    2.2039248    6.5045507   0.12535791 
   35200   -955.49734    44.876454   -910.62089    1607.3118    6611.8939    2.2118763    6.0477352   0.11768452 
   35300   -954.72737     38.30722   -916.42015    1372.0257    2169.6467    2.2019713    8.3133344   0.11998748 
   35400   -954.93677    38.466043   -916.47073    1377.7142   -8799.8142    2.1758432    5.6113429    0.1266183 
   35500   -951.50615    42.216914   -909.28924    1512.0568   -10272.407    2.1644768    5.6088154   0.13609425 
   35600   -955.67213    38.722195   -916.94994    1386.8886    8013.0435    2.2170776    7.3543846     0.111389 
   35700   -957.77638    41.957344   -915.81903    1502.7599    10561.489    2.2273954    6.1985339   0.10906488 
   35800   -951.57931    39.616036   -911.96327    1418.9027   -639.29074    2.1894623    7.3558734   0.12438535 
   35900   -953.09371    38.278109    -914.8156     1370.983   -11682.653    2.1663787    5.9055266   0.12541319 
   36000   -955.62793    37.188795   -918.43913    1331.9678   -4818.8378    2.1890394    5.4013628   0.11707897 
   36100   -953.88361    40.792518   -913.09109      1461.04    4229.1035    2.2069207     5.996893   0.12036348 
   36200   -955.33864    40.055709   -915.28293    1434.6502    4142.0191    2.2086085    6.8944776   0.11436396 
   36300   -956.49129    36.258952   -920.23234    1298.6642    458.11172    2.2032383    6.8763135    0.1137582 
   36400   -952.42621    38.518978   -913.90724    1379.6101   -1846.6561    2.1861557    5.5578693   0.12377326 
   36500   -954.90734    40.055894   -914.85145    1434.6569   -1029.4342    2.1916907    6.6371421   0.12042553 
   36600   -953.13242    32.268953   -920.86347    1155.7569    5916.3897    2.2149407    5.9486972   0.11831347 
   36700   -952.98262    39.692867   -913.28976    1421.6546    2206.2855    2.1989192    6.3706302    0.1304302 
   36800   -952.91155    38.510739   -914.40082     1379.315   -642.84616    2.1946533    5.0004413   0.12361271 
   36900    -957.9356    38.353259   -919.58234    1373.6746    -2958.333    2.1977748      6.97946   0.11118785 
   37000   -954.26965    40.785488   -913.48417    1460.7883   -5.8630718    2.1933581    6.2724836   0.11691251 
   37100   -954.43378    41.491954   -912.94183    1486.0913    4104.9945    2.2063128     6.805808   0.12028837 
   37200   -955.11722    37.767243   -917.34998    1352.6857    4093.2987      2.20988      7.24532   0.11880684 
   37300   -953.91485    38.942662   -914.97219    1394.7849   -3839.6669    2.1878766    6.0620977   0.12530062 
   37400   -952.09833    41.180531    -910.9178    1474.9373   -10581.297    2.1653685    5.8120059   0.12227583 
   37500   -956.33542    39.108417   -917.22701    1400.7217   -711.67661    2.1997608    6.5180514   0.12838302 
   37600   -956.83944    41.782009   -915.05743    1496.4801    11411.107    2.2282278    7.1807633   0.10659122 
   37700   -952.07906    43.243729   -908.83533    1548.8336    7116.8919    2.2076961     5.971167   0.12645244 
   37800   -954.53266    37.991113   -916.54154    1360.7039   -6513.0072    2.1841632     5.387986   0.12383011 
   37900   -956.04326    39.581693   -916.46157    1417.6727   -11700.551    2.1712859    5.8078552   0.12478848 
   38000    -953.5808    42.708411   -910.87239    1529.6604   -1590.2737    2.1890203    6.1900357   0.11873514 
   38100   -956.74273    38.892688   -917.85005    1392.9951     7990.605    2.2247557    6.3129849   0.11435577 
   38200   -957.54843    40.175721   -917.37271    1438.9486    3141.9837    2.2107278    6.1591604   0.11216716 
   38300   -954.91905     41.61909   -913.29996    1490.6449   -4234.9012    2.1846314    7.3770613   0.12532264 
   38400   -953.94497     38.01912   -915.92585     1361.707   -6140.8821    2.1831007    6.6784157   0.13480728 
   38500   -956.02569    36.144325   -919.88137    1294.5586    2618.4935    2.2074627    6.8024759   0.12360111 
   38600   -952.19459    38.995325   -913.19927    1396.6711    6193.4947    2.2063593    6.7743128   0.13755924 
   38700   -952.99929     37.55767   -915.44162    1345.1796    3273.3528    2.2027806    5.6777774    0.1284624 
   38800    -960.4949    39.468275   -921.02663    1413.6105   -3687.2324    2.1984572    5.5917348   0.11289605 
   38900   -957.12508    43.759659   -913.36542    1567.3123   -7150.6982    2.1817216    6.9305972    0.1190635 
   39000   -951.93234    37.123175   -914.80916    1329.6175    1896.3754    2.1965651    7.4842427   0.12194975 
   39100    -959.4412    39.955217   -919.48599     1431.051    2457.8351    2.2128578    6.0241072   0.11908413 
   39200   -953.32983    41.879971   -911.44986    1499.9887    244.54475    2.1918341    6.7735023   0.12752408 
   39300   -952.03127    37.869219   -914.16205    1356.3381   -254.95723    2.1913171    7.0250699   0.13611132 
   39400   -957.44139    39.150573   -918.29081    1402.2315   -3205.4601    2.1970773     7.341523   0.12090298 
   39500   -952.78536    41.443026   -911.34233    1484.3389     1884.052    2.1926113    5.6195752   0.12244445 
   39600   -953.17219    40.098367   -913.07382    1436.1781    7044.2723     2.209492    5.7307622   0.12778519 
   39700   -954.49924    37.057961   -917.44128    1327.2818    1642.0208    2.2018696    5.5419757   0.12213358 
   39800   -952.43852    39.767968   -912.67056    1424.3444   -6970.4886    2.1755716    6.1681045   0.13273524 
   39900   -954.14846      42.1809   -911.96756    1510.7669   -5190.8902    2.1807637    6.5856697   0.11852019 
   40000   -954.55667    36.801624   -917.75505    1318.1007    7363.5264    2.2165055    8.0114415   0.11566847 
   40100   -953.67239    40.503065   -913.16932    1450.6729     8981.281    2.2167721    7.2241285   0.11503877 
   40200   -953.55793    40.551513   -913.00642    1452.4081    -390.0733    2.1906508    7.2016107   0.12121121 
   40300   -957.44698    37.544245   -919.90273    1344.6987    -7073.793    2.1849284    6.9163494   0.11867532 
   40400   -952.51167    37.818947   -914.69272    1354.5375      -2336.8    2.1863857    6.4556437   0.12130922 
   40500   -955.00319    41.905405   -913.09778    1500.8996    3686.3132    2.2063599    6.2108431   0.13382827 
   40600   -958.96856    38.621732   -920.34682    1383.2904    9275.8112      2.22979    5.0610032   0.11328852 
   40700    -953.8617    39.668177   -914.19353    1420.7702   -979.93798    2.1951857    5.5727394   0.12465164 
   40800   -955.75545    41.541592   -914.21385    1487.8692   -10524.007    2.1731322    6.5189862   0.11575114 
   40900    -957.0617      37.2038    -919.8579    1332.5052    -5415.555    2.1909126    6.7055783   0.10859814 
   41000   -950.99667    35.482816   -915.51385    1270.8658    8134.8619    2.2134415    6.0721005   0.13099805 
   41100   -953.21713    40.662465   -912.55466     1456.382    7689.7314    2.2149114    4.8670653   0.11764785 
   41200    -955.3728    37.380206    -917.9926    1338.8234   -3192.2137    2.1955096    7.0316216   0.12112247 
   41300   -954.19947    39.833342   -914.36613    1426.6859   -8487.9582    2.1750134    7.8702816   0.12157257 
   41400   -953.14107     41.65737    -911.4837    1492.0159    -3829.037    2.1840712    6.1617543   0.11719102 
   41500   -956.59305    39.729452    -916.8636    1422.9649    3519.4783     2.210534    6.2526336   0.11794066 
   41600    -955.7429    39.855178   -915.88773    1427.4679    3509.4051    2.2092715     6.145923    0.1279809 
   41700    -949.7021    39.999371   -909.70273    1432.6324    -1351.965     2.184689    6.5168974   0.14034949 
   41800   -953.38595    36.120467   -917.26548    1293.7041   -326.56904    2.1974749    6.4047608   0.12766392 
   41900   -954.57611    38.960087   -915.61602     1395.409    1167.4614    2.1995441    6.9374114    0.1228795 
   42000   -953.41628    43.398887   -910.01739    1554.3908   -837.86743    2.1907154    6.3847279   0.12822565 
   42100   -956.65152    38.747938   -917.90358    1387.8106    1387.4441    2.2046003    6.3317958   0.11949479 
   42200   -957.06948    40.750593   -916.31888    1459.5385   -1229.7376    2.1948237    7.6822296   0.12634516 
   42300   -950.55506    38.451959   -912.10311    1377.2097   -2058.9629    2.1867859    6.9647693   0.12928669 
   42400   -955.54945    36.066422   -919.48303    1291.7684    1185.2702    2.2027915    6.3322703   0.12039412 
   42500   -956.16435    39.088484   -917.07586    1400.0077    1943.9129    2.2030694    7.0459436   0.10872268 
   42600   -955.00213    42.329084   -912.67304    1516.0743    108.95461    2.1971737    7.4573482    0.1141406 
   42700   -953.75849    35.348454   -918.41003    1266.0534    689.67852    2.1984831    6.5540455   0.11606471 
   42800   -957.37264    39.324092   -918.04855    1408.4464   -3584.5935    2.1930733    5.4692887   0.10727677 
   42900    -949.4406    36.797326   -912.64327    1317.9468    2677.0696    2.1905532    5.6823035   0.12121416 
   43000    -957.2525    39.942045   -917.31046    1430.5792    2339.5463    2.2073892    6.0168202   0.11986079 
   43100   -956.96358    38.433844   -918.52974    1376.5609     4327.147    2.2110565    5.6323383   0.11597184 
   43200    -952.6815    41.240396   -911.44111    1477.0814   -3614.0882    2.1837219    8.5455415   0.13648458 
   43300   -955.80754    38.950333   -916.85721    1395.0597   -6836.6564    2.1838244    7.4950538   0.12435429 
   43400   -958.19143    41.312027   -916.87941     1479.647   -2883.9215     2.196779    6.0590875   0.12286176 
   43500   -952.26452    42.617749   -909.64677    1526.4132    4402.9505    2.2022573    6.5600097   0.11496753 
   43600   -955.74446     39.51786    -916.2266    1415.3864     3406.126    2.2115013    7.9227585   0.12320253 
   43700   -953.62797    36.493214   -917.13476    1307.0546   -1851.6342    2.1917931      6.61146     0.102818 
   43800   -948.96469    39.086106   -909.87859    1399.9226   -8597.0926    2.1643197    7.6656838   0.12607312 
   43900    -953.5002    36.405511   -917.09469    1303.9134    211.10091    2.1958515     4.988952   0.11446132 
   44000   -955.37341     39.12323   -916.25018    1401.2522    9040.6276    2.2206166    7.0700036   0.11619987 
   44100   -953.87117    42.607744   -911.26342    1526.0549     5201.136    2.2080975    6.9892759   0.12411278 
   44200   -954.49479    38.224974   -916.26982    1369.0799   -5926.8287    2.1836878    8.3507401   0.12858538 
   44300   -955.87177    37.614671   -918.25709    1347.2211   -11953.265    2.1719337    6.3616691   0.12444072 
   44400   -951.09898    38.298786    -912.8002    1371.7236   -1064.2201    2.1883183     6.589904   0.13850974 
   44500   -956.34692    40.436179   -915.91074    1448.2773    8887.9931    2.2227927    6.9868931   0.12954456 
   44600   -958.72284    39.432226   -919.29062    1412.3193    3661.3772    2.2172569    6.6769656   0.11507026 
   44700   -954.89208    41.479798   -913.41228    1485.6559   -5531.5011     2.183227    6.0140818   0.13755855 
   44800   -958.70348    43.312325   -915.39116    1551.2904   -8202.1077    2.1843444    7.0473946     0.124061 
   44900   -955.63809    35.492066   -920.14603    1271.1971    2064.8399    2.2071102    5.3979524   0.11004467 
   45000   -952.68577    39.999683   -912.68609    1432.6436    1146.0461    2.1988543    7.3293314   0.13455727 
   45100   -956.81148    41.512741   -915.29874    1486.8358    849.71636    2.2022529    7.8543834   0.11214342 
   45200   -956.56925    36.752784   -919.81647    1316.3514   -386.06374    2.2020179    6.8844442   0.11426222 
   45300    -950.8629    39.178483   -911.68442    1403.2312   -3463.6773    2.1819144    6.2695286   0.13823655 
   45400   -952.15817    37.430843   -914.72732    1340.6371    2831.6391    2.1968796    6.1528699   0.12500075 
   45500   -959.07227    40.723777   -918.34849     1458.578    2677.2211    2.2106958    7.4600877   0.11866207 
   45600   -954.99306    44.259135   -910.73393    1585.2017   -789.75815    2.1934461    7.0057973   0.13427254 
   45700   -953.79888    39.231698   -914.56718    1405.1371   -1889.8349    2.1897724    6.0728284   0.12008413 
   45800   -954.85246    36.831996   -918.02046    1319.1885    -3990.114    2.1876441    6.0943783   0.12036552 
   45900   -949.39139    38.208544   -911.18285    1368.4915   -103.04748    2.1841563    6.3215852   0.12031986 
   46000   -954.75228    40.059282     -914.693    1434.7782    8128.4384    2.2148231    5.9277078   0.10854497 
   46100   -954.77879    37.352611   -917.42618    1337.8351    7460.2426    2.2164631    5.7783137     0.105502 
   46200   -949.37795    36.457319   -912.92063    1305.7689   -2140.1801    2.1785304    6.7612119   0.11838178 
   46300   -954.11439    40.764943   -913.34945    1460.0524   -13416.233    2.1609343    6.5874608    0.1249257 
   46400   -957.51649    38.247168   -919.26932    1369.8749   -1701.0699    2.1995371    6.5016778   0.10608966 
   46500   -951.77977    39.023191   -912.75658    1397.6692    12390.363    2.2226585    6.6647769   0.12263863 
   46600   -955.74115     41.01063   -914.73052    1468.8521    6165.6123    2.2136331    6.7857497   0.12342381 
   46700   -959.88532     39.24851   -920.63681    1405.7393   -6077.4634    2.1930509    5.7324919   0.11445218 
   46800   -951.77045    37.867552   -913.90289    1356.2784   -7445.5945    2.1726313    5.6020532   0.12251841 
   46900   -953.94109    39.630906   -914.31019    1419.4353   -711.75502    2.1933726     5.442905   0.11407036 
   47000   -958.97478    39.144281    -919.8305    1402.0062    5693.9806    2.2191497    6.0470157   0.10250414 
   47100   -952.24335    39.900055   -912.34329    1429.0753    2490.1179    2.1965482    5.4087849   0.11777477 
   47200   -952.60418    38.168716   -914.43546     1367.065   -1480.8295    2.1880563    7.3667612   0.11039081 
   47300   -954.88111    35.563849   -919.31726    1273.7681   -958.92693    2.1947404    6.8311672   0.10688517 
   47400    -951.0597     38.92894   -912.13076    1394.2935    1216.7142    2.1927498    7.7014068   0.12007068 
   47500   -953.44588     39.88414   -913.56174    1428.5052    4258.7829    2.2039884    6.1298826    0.1128029 
   47600   -956.44188    38.091115   -918.35077    1364.2856    1556.8637    2.2063332    5.9774889   0.12112521 
   47700   -951.57195    39.843321   -911.72863    1427.0433   -1723.6189    2.1855761    6.4529192   0.14536618 
   47800   -952.94489    39.407243   -913.53765    1411.4245   -1838.4212    2.1888741    6.8787392   0.13154648 
   47900   -956.25722    38.342305   -917.91491    1373.2823    541.95346    2.2009499    6.7416791   0.11929996 
   48000   -952.05848    40.222677    -911.8358    1440.6304    4433.3241    2.2041987    5.4718639   0.12634463 
   48100   -951.44964    37.878335   -913.57131    1356.6646    4739.2275    2.2071454     7.119655   0.12533317 
   48200   -953.63416    35.156405   -918.47775    1259.1749   -3392.9404    2.1905104    6.7839132   0.12552593 
   48300   -953.31043    39.528844   -913.78159    1415.7798   -9091.4439    2.1733903    6.0191636    0.1224271 
   48400   -952.19349    40.189408   -912.00408    1439.4388    261.09014    2.1935989    6.5531232   0.12733649 
   48500   -956.12005    37.067157   -919.05289    1327.6111    11947.322    2.2333992    7.0852502   0.12753978 
   48600   -954.23464    40.580871   -913.65377    1453.4596    5819.4366    2.2110593    6.2791743   0.12833937 
   48700   -952.02749     37.97862   -914.04887    1360.2564   -5862.9675    2.1778413    6.0841613   0.12776649 
   48800   -954.89856    34.008494   -920.89007    1218.0609   -6953.3368    2.1839024    6.6492379   0.12188949 
   48900   -953.67753    39.090733    -914.5868    1400.0883    418.35976    2.1981493    5.9657184   0.13151923 
   49000   -954.25618    41.027619   -913.22857    1469.4605    8232.9461    2.2186137    6.4619158   0.12662956 
   49100   -956.87506    37.317051   -919.55801    1336.5614    4694.5221    2.2174476    5.8574627   0.12047823 
   49200   -952.77033    39.955417   -912.81491    1431.0581   -5643.3742    2.1808164    6.0043487   0.13165273 
   49300   -953.78228    40.155513   -913.62676    1438.2248   -5880.3676    2.1809957    6.0361497   0.11385186 
   49400   -955.97751    37.531074   -918.44644     1344.227    1926.5002    2.2087525    7.0661394   0.11382391 
   49500   -955.96859    42.313238   -913.65535    1515.5068    7036.9295    2.2152571    6.9480054   0.12018243 
   49600   -949.68227    37.703585   -911.97869    1350.4057    3710.9392     2.201208    5.9807173   0.12352493 
   49700   -954.34722    36.281291   -918.06593    1299.4643    -3394.314    2.1914143    8.7221049   0.13511839 
   49800   -955.90234    42.090503   -913.81183    1507.5292   -4723.4279    2.1863641    5.9312601   0.11888198 
   49900   -953.20282    42.347789   -910.85503    1516.7442   -936.33937    2.1926632    6.4268232    0.1284341 
   50000   -958.88364     41.06918   -917.81446    1470.9491    1692.3371    2.2118095    5.4707524   0.11227433 
   50100   -957.06548    42.633767   -914.43172    1526.9869   -1338.9945     2.200533    5.8898321   0.11431192 
   50200   -952.25912    41.220524    -911.0386    1476.3697   -3118.6995     2.187865    6.7530987    0.1321083 
   50300   -954.45416    35.628846   -918.82531    1276.0961    216.04284    2.2024471    6.6036387   0.13246777 
   50400   -953.51467    38.616205   -914.89846    1383.0924   -406.73096    2.1990408     7.046153   0.13212908 
   50500   -952.57966    40.697519   -911.88214    1457.6375    841.20895    2.1954651     6.350054   0.12119438 
   50600   -956.24482    36.462105   -919.78272    1305.9404    2975.9556    2.2095424     6.852673   0.11267222 
   50700   -954.94267    39.840502   -915.10217    1426.9423   -632.72748    2.1969211    7.4238918   0.12575901 
   50800   -954.51263     41.56445   -912.94818    1488.6879   -3687.4091    2.1867929    5.9392824   0.13230638 
   50900   -957.96721    37.555682   -920.41153    1345.1083   -1248.9139    2.2042559    5.1880857   0.13468776 
   51000   -955.11319    40.044077   -915.06911    1434.2336    1846.1004    2.2042999    6.4496114   0.13386394 
   51100   -953.51659    40.604163   -912.91243    1454.2939    4336.7581    2.2056497    6.4725569   0.13197877 
   51200   -956.48831    37.080556   -919.40775     1328.091   -1970.6175     2.196647      7.73316   0.12618386 
   51300    -953.2046    39.353065   -913.85154    1409.4841   -9545.0507    2.1714594    6.0679219   0.13179282 
   51400   -952.28502    39.524494   -912.76053    1415.6241    -534.5991    2.1907519     6.429742   0.13705977 
   51500   -953.98196    36.407354    -917.5746    1303.9794    10855.063    2.2253195    6.9969665   0.13385577 
   51600   -955.45138    40.556441   -914.89494    1452.5846    6661.2054    2.2178368     8.006975   0.12572438 
   51700   -949.33627     37.86067    -911.4756    1356.0319   -4475.8671    2.1769713    7.1062437   0.12535962 
   51800   -952.10076    33.893447   -918.20731    1213.9404   -7421.8708    2.1765904    6.0818757    0.1284933 
   51900    -956.7549    42.193053   -914.56184    1511.2022   -1916.5471    2.1939345     5.681274   0.11778327 
   52000   -952.93836    42.505631   -910.43273    1522.3976     6815.987    2.2122069    7.0511548   0.12698885 
   52100   -956.65799    38.617919   -918.04007    1383.1538    6246.8306    2.2178253    7.7055785   0.12828724 
   52200    -951.6563    36.843886   -914.81241    1319.6144   -2043.9453    2.1890187    5.9991082   0.13717676 
   52300    -952.1675    40.139824   -912.02768    1437.6629   -8377.0271    2.1706511     6.458126   0.12934235 
   52400   -957.93198    38.152423   -919.77956    1366.4814   -474.80173    2.2028819    6.0715153   0.11232196 
   52500   -955.37161    40.900325   -914.47128    1464.9013    5313.7646    2.2109248     7.214531   0.11658756 
   52600   -952.38159    39.354052   -913.02753    1409.5194    4202.7181    2.2016583    6.5857119    0.1167265 
   52700   -957.73818    37.372423   -920.36575    1338.5447   -3029.1515    2.1994982     7.210448   0.12253934 
   52800   -954.67809    40.159422   -914.51866    1438.3648     -5278.42    2.1817632    5.4949358    0.1183453 
   52900   -953.13391    39.678029   -913.45588    1421.1231     124.2514    2.1935422    5.1500352   0.11665443 
   53000    -959.1463    39.648449   -919.49785    1420.0637    2110.8782    2.2126607    6.6479815   0.11044685 
   53100    -953.2797    40.131957   -913.14774    1437.3811    2576.8889    2.1990442    5.8871251   0.11046572 
   53200    -952.9705    39.560046   -913.41045    1416.8974   -792.13727    2.1913426    7.2546879   0.12706322 
   53300   -957.46769    38.714446   -918.75324    1386.6111   -1520.1917    2.1983563    7.0861248   0.12325715 
   53400   -953.65987    40.822464   -912.83741    1462.1126    475.00259    2.1939541     6.163653   0.12683016 
   53500   -953.72603    41.163087   -912.56295    1474.3125     1897.266    2.1979189    6.6815179   0.11489385 
   53600   -954.41707    36.320054   -918.09702    1300.8526    1870.1521     2.203593    5.7182258   0.12131095 
   53700   -950.03377    37.363986   -912.66979    1338.2425    2031.0982    2.1900594    6.2294966   0.11640586 
   53800   -952.50417    39.844681   -912.65949     1427.092   -910.09871    2.1893461    7.2740427   0.11399975 
   53900   -954.66149    36.327724   -918.33377    1301.1273    1512.0923    2.2057966    7.5225568   0.11982574 
   54000   -956.11528    43.305655   -912.80963    1551.0515    679.38406    2.1996575    6.3951736   0.11027001 
   54100   -955.68764     42.59079   -913.09685    1525.4476   -1017.9535    2.1950757    5.1111842   0.11236914 
   54200   -959.56225    40.487496   -919.07475    1450.1153   -6225.7689    2.1912382    6.1505036   0.10170906 
   54300   -956.37384     42.87415   -913.49969    1535.5966   -4653.4688     2.185199    6.9297688   0.11358719 
   54400   -951.37666    38.673662     -912.703    1385.1503    5603.7471    2.2037634    6.6368975    0.1192581 
   54500   -953.02771    34.172419   -918.85529    1223.9321    11865.998    2.2258212    6.8505991   0.12193069 
   54600    -953.5461     40.28968   -913.25642    1443.0302    110.32533    2.1927705    5.3089362   0.12323494 
   54700   -949.84392    35.726078   -914.11784    1279.5786   -7026.7029    2.1706437    5.6688675   0.11987982 
   54800   -959.17641    38.937169   -920.23924    1394.5882   -8317.6919    2.1873345     6.095786   0.11443915 
   54900   -955.99407    42.647101   -913.34697    1527.4645    3787.0612     2.206434    5.7756852   0.11016056 
   55000   -955.42228    41.640917   -913.78136    1491.4266    8067.1797    2.2190022     6.847742    0.1136894 
   55100   -955.70434    36.061742    -919.6426    1291.6008     1466.289    2.2053438    7.9690869   0.11985522 
   55200   -952.99163    40.562789   -912.42885     1452.812   -8852.0936    2.1706437    5.8155123   0.11327757 
   55300   -952.54409    38.274811   -914.26928    1370.8649   -5394.4858    2.1814799     8.228614   0.12564708 
   55400   -956.17602    37.918903   -918.25712    1358.1176    5038.9831     2.212696    6.5485988   0.11416102 
   55500   -955.19601    43.891202   -911.30481    1572.0237    5255.2641    2.2068453    5.4676403   0.11694515 
   55600   -951.46423    37.039084   -914.42515    1326.6057    711.81971    2.1952587    5.5293708   0.12141556 
   55700    -956.5192    37.831858   -918.68734         1355   -5156.1747    2.1851808    5.5383536   0.11776828 
   55800   -952.47811    40.583428   -911.89468    1453.5512   -3849.5628    2.1809917     6.984109   0.12727083 
   55900   -951.55512    36.610754   -914.94437    1311.2644    2121.5276    2.2006862    5.6382089   0.11972023 
   56000   -953.22232    35.212146   -918.01018    1261.1714    5837.8381    2.2083152    4.6453559   0.10826642 
   56100   -955.23413    43.010107   -912.22402    1540.4661   -1412.7498     2.192226    5.7260227   0.12742741 
   56200   -956.85513    41.246038    -915.6091    1477.2835    -4295.886     2.190789    6.1832347   0.10674805 
   56300   -957.30801    38.512717   -918.79529    1379.3859   -1285.8507    2.1990351    7.4530122   0.11350007 
   56400    -953.3104    40.951204   -912.35919    1466.7236    647.66116    2.1922237     7.513624   0.12362951 
   56500   -953.18568    37.076373   -916.10931    1327.9412    188.49606    2.1992739    6.9235074   0.12049505 
   56600   -954.61032    35.325399   -919.28492    1265.2277    1373.5616    2.2028169    5.9729841   0.12269826 
   56700     -951.739    39.249537   -912.48946    1405.7761   -485.25771     2.187328    6.1765351   0.12367067 
   56800   -956.16406    39.861923   -916.30213    1427.7095   -2263.0762    2.1950926    5.0858584   0.12046219 
   56900   -958.47611    39.495106     -918.981    1414.5715    1792.8814    2.2063713    6.0948498   0.12387594 
   57000   -953.69749    42.028855   -911.66864    1505.3212    437.74506    2.1943737    4.8418535     0.122102 
   57100   -957.00652    40.620744   -916.38578    1454.8877   -1717.9727    2.1964892    5.8727939   0.11460291 
   57200   -954.79652    36.084512   -918.71201    1292.4163   -2825.6775    2.1924114    6.4806013   0.12203281 
   57300   -952.75284    41.357396   -911.39544    1481.2719   -1828.2207    2.1861277    7.6972658   0.12030888 
   57400   -955.41242    38.942894   -916.46953    1394.7932     5525.856    2.2143606    6.7831836   0.12136346 
   57500   -957.52279    39.887598   -917.63519    1428.6291    5271.1366    2.2139595    6.3550637   0.10391641 
   57600   -951.71773    40.992318   -910.72541    1468.1962   -4789.4701    2.1752324    6.6044503   0.12638066 
   57700   -956.60516    39.456133   -917.14903    1413.1756   -9916.6075    2.1767505    5.9936253   0.11672685 
   57800   -954.46483     37.53545   -916.92938    1344.3837   -76.547695    2.1965293    6.2441913   0.12303412 
   57900   -950.64144    40.325413   -910.31603    1444.3101    8532.4841    2.2103325    7.4428481   0.13329064 
   58000   -956.67794    39.733419   -916.94452     1423.107     7479.858    2.2192833    5.2391093   0.12252451 
   58100   -956.11773    38.743681   -917.37405    1387.6581     -5032.12    2.1882249    6.3887071    0.1295139 
   58200   -950.50729    38.524237   -911.98305    1379.7984   -9300.6181    2.1685841    6.6740759   0.13318894 
   58300   -955.12466    36.475556    -918.6491    1306.4221   -1134.3477    2.2006674    6.6028514   0.12997153 
   58400   -958.34772     41.03004   -917.31768    1469.5472    4127.0278    2.2196262    5.3271888   0.11869263 
   58500   -952.25681    40.378254   -911.87856    1446.2026    4195.8783    2.2074496    8.5400477   0.13164971 
   58600   -955.77895     37.75118   -918.02777    1352.1103   -1582.5731    2.1975232    6.3411951   0.12238801 
   58700   -958.99434    41.601187   -917.39315    1490.0037   -7461.9223    2.1894752    6.3615546   0.12376094 
   58800   -952.42415    40.502883   -911.92127    1450.6664   -1348.9818    2.1885846    6.1245559   0.13538918 
   58900   -954.49606    36.747686   -917.74838    1316.1688    4691.4465    2.2102833    5.4869781   0.12395939 
   59000   -956.27789    39.121989    -917.1559    1401.2078    2030.9452    2.2087167     6.164825   0.12242095 
   59100   -951.33214    39.646629   -911.68551    1419.9985   -3480.0223    2.1883809    6.7669184   0.15295917 
   59200   -957.83389    39.918054   -917.91584    1429.7199   -1750.1716    2.1973889    6.3953485   0.11376194 
   59300   -957.80452    42.007273   -915.79725    1504.5482   -2069.8786    2.2000072    5.5774765   0.11856907 
   59400   -952.04029    40.891842   -911.14844    1464.5975    468.84906    2.1922027    6.2910224   0.13306707 
   59500   -956.53355    38.056207   -918.47734    1363.0353    1403.6625    2.2073349    6.6543755   0.11451805 
   59600   -952.58765    37.545334   -915.04232    1344.7377    1557.9721    2.1976894    7.4475905   0.12584816 
   59700   -953.95064    42.037119   -911.91352    1505.6172   -3181.9773    2.1883238    5.0807749   0.11564303 
   59800   -958.98621     39.80273   -919.18348    1425.5894    190.86887    2.2049442    5.2563299   0.11646276 
   59900    -952.6183    38.304945   -914.31336    1371.9442    3035.4597    2.2004541    4.5283265   0.12419755 
   60000   -952.47519    40.042445   -912.43274    1434.1752    1869.0432    2.1968078    5.9558817   0.13306379 
   60100   -953.11944    33.707222   -919.41221    1207.2705    2786.9563    2.2048398    7.3943741   0.13233973 
   60200   -952.09999    38.214116   -913.88588    1368.6911   -1255.6672    2.1907395    6.8291751   0.13774409 
   60300    -952.1205    39.024522   -913.09598    1397.7168   -2147.6176    2.1878087    5.3644844    0.1487296 
   60400   -956.14795    36.640138   -919.50781    1312.3169    3661.5083    2.2081223    6.4761834   0.12322746 
   60500   -954.60416    41.360488   -913.24367    1481.3827    5205.3772    2.2098549    6.7570426   0.12252872 
   60600   -956.49952    42.685206   -913.81431    1528.8293   -79.477987    2.1987739    6.8146489   0.13536916 
   60700   -956.25569    36.329509   -919.92618    1301.1913   -6679.3777    2.1857483    6.5165547   0.11891334 
   60800   -951.94055    38.518817   -913.42173    1379.6043   -6849.3801    2.1769178    5.2537945   0.12973759 
   60900   -954.32533    40.881389   -913.44394    1464.2231    2934.4855    2.2043748    5.5600724   0.12819749 
   61000   -952.45782    33.926147   -918.53167    1215.1116    13211.862     2.228365    7.8042711   0.13027438 
   61100   -951.86534    39.983158   -911.88218    1432.0517    1631.3545    2.1940837    5.9773896   0.13143547 
   61200   -954.38208    40.211632   -914.17044    1440.2348   -8979.4027    2.1758459     6.872255   0.14059836 
   61300   -953.93128    35.018044   -918.91324    1254.2193   -4141.5225    2.1899591    6.9496211   0.13262974 
   61400   -953.82195    41.631703   -912.19025    1491.0966    2112.9635    2.2028844     5.826904   0.12389842 
   61500   -955.31686    42.051116   -913.26575    1506.1185    7350.3953    2.2166077    7.3761251   0.13846034 
   61600   -956.90058    38.479991   -918.42059    1378.2137    963.96281    2.2044093    7.3974283   0.11515783 
   61700   -954.22072    41.477805   -912.74292    1485.5845    -9684.779     2.172704    5.5516588   0.12515917 
   61800    -951.1032    38.086036   -913.01716    1364.1037   -4204.0089    2.1800094    7.0145307   0.12905131 
   61900   -955.63143    37.292725   -918.33871    1335.6902    4049.8818     2.211682     6.887649   0.10571494 
   62000   -952.96557    40.682864   -912.28271    1457.1127    7396.6064    2.2114532    5.1749347   0.12226778 
   62100   -954.21172    39.970107   -914.24162    1431.5843    676.68529    2.1969985    6.4371117   0.12278831 
   62200   -954.63523     35.22196   -919.41327    1261.5229   -6985.6985    2.1841424    6.5820326   0.11871321 
   62300   -954.50475    41.132933   -913.37181    1473.2325   -8005.1228     2.177542    5.3690471   0.11849203 
   62400   -954.39561    40.248277   -914.14734    1441.5473    5304.1384    2.2083867    6.9374324   0.11905344 
   62500   -955.71749    37.440563   -918.27692    1340.9852    19119.014    2.2475581    8.3656359   0.12709932 
   62600    -951.4626    39.850883   -911.61172    1427.3141     3491.055    2.1965297    5.9085389   0.12355752 
   62700   -953.54384    39.323689   -914.22015    1408.4319   -20001.134    2.1467125    6.3049376   0.13376054 
   62800   -954.54465    35.926806   -918.61784    1286.7679   -10514.912    2.1708512    6.4682167   0.12141184 
   62900   -952.89308    39.112232   -913.78084    1400.8583    7241.1171    2.2126673    6.7760865   0.12633614 
   63000   -951.48928    39.909778   -911.57951    1429.4235    10795.564    2.2168886    6.4874134   0.11761615 
   63100   -956.23918    38.365061   -917.87412    1374.0974    513.18287    2.1998018    6.1585245   0.11215676 
   63200   -953.46646    39.826519   -913.63994    1426.4415   -6572.3253     2.175732    6.1375755   0.11567623 
   63300   -952.11344     40.50453   -911.60891    1450.7254   -4898.3728     2.178647    6.4459943   0.12925034 
   63400   -954.93983    37.069419   -917.87041    1327.6922    6502.2086    2.2150265    7.5113877   0.11292778 
   63500   -953.61027    40.021164   -913.58911     1433.413    8550.8778    2.2156174    6.1359266    0.1225092 
   63600   -953.38986    41.255461    -912.1344     1477.621   -1727.3837    2.1917773    8.3639756   0.12241371 
   63700   -955.93335    36.655062   -919.27829    1312.8514   -6128.5646    2.1872469    7.1192633   0.11718932 
   63800   -953.61229    39.091931   -914.52036    1400.1312   -2421.2313    2.1879987    7.1389475    0.1271167 
   63900   -953.73359    41.960122   -911.77347    1502.8594    5223.7472    2.2062747    7.1333079   0.11476908 
   64000   -957.89157    38.494431   -919.39714    1378.7309    7173.3973    2.2264568    5.4389863   0.12015419 
   64100   -954.47719    40.044198     -914.433    1434.2379   -3495.6174    2.1935478    5.5050184   0.12239592 
   64200   -954.22941    40.683821   -913.54559    1457.1469   -10974.725    2.1715745    5.9206712   0.11855673 
   64300   -956.95729    36.808671   -920.14862    1318.3531   -3816.1076    2.1941482    6.5301176   0.12058434 
   64400   -956.45783    41.676166   -914.78166    1492.6891    6626.3684    2.2172853     8.563504    0.1228027 
   64500   -952.87845    40.548708   -912.32974    1452.3077    11417.147    2.2207122    6.8267696    0.1286906 
   64600   -955.78754    36.806239    -918.9813     1318.266   -1241.9169    2.2014575    5.8824467   0.12175168 
   64700   -954.77854    41.046519   -913.73202    1470.1375   -11402.703    2.1688025    6.7673754   0.13080201 
   64800   -950.91496    38.382528   -912.53243     1374.723   -3494.0661    2.1824278    6.5011895   0.12873059 
   64900   -953.55609    36.075922   -917.48016    1292.1087    5241.3945    2.2115116    5.7429863    0.1277052 
   65000   -956.42367    42.211214   -914.21246    1511.8526    2607.4203     2.208158    6.8567464   0.12158921 
   65100   -949.27426    38.017366   -911.25689    1361.6442    903.50221    2.1907616    5.4330163   0.11393849 
   65200   -955.58011     37.76487   -917.81524    1352.6007    -3780.583    2.1948493    5.5097626   0.11942163 
   65300    -956.2485    41.741996    -914.5065    1495.0469   -2704.1284    2.1912415    7.3793467   0.11611135 
   65400   -949.21414    38.644832    -910.5693    1384.1177    1994.4745      2.19066    5.8296155   0.13480222 
   65500   -956.61698    38.730426   -917.88656    1387.1834    3374.0918    2.2103103    6.8203107   0.10748117 
   65600   -953.33409    38.903611   -914.43048    1393.3863     3818.856    2.2021403     6.774425   0.12182027 
   65700   -952.09941    40.689568   -911.40984    1457.3528   -4037.0518    2.1812402     5.882347   0.12352448 
   65800   -955.21523     35.83811   -919.37712    1283.5911   -1065.4971     2.195542    5.7404037   0.11984591 
   65900   -955.82149    40.667824   -915.15366     1456.574   -480.26077    2.1972848    6.2359156   0.13125384 
   66000   -953.40313    41.394644   -912.00848     1482.606    3453.8904    2.2015677    4.6620278   0.12139608 
   66100   -957.91045    38.194393   -919.71606    1367.9846     2834.843    2.2118668    6.6844341   0.11618663 
   66200   -956.46011    40.995584   -915.46453    1468.3131   -6730.0529    2.1824999    5.3784959   0.11933453 
   66300   -952.96044    39.693405   -913.26703    1421.6738   -8711.3327     2.171848    4.6997434   0.13110193 
   66400   -958.14846    38.388259    -919.7602    1374.9282    1093.7787    2.2055572     6.401062   0.11154808 
   66500   -956.15597    40.435095   -915.72087    1448.2385    10648.056    2.2265368    7.1182166   0.10509616 
   66600   -953.50194     40.97915   -912.52279    1467.7246    5635.9669    2.2077916    6.0068083   0.12331528 
   66700   -953.44092    34.800951   -918.63996    1246.4439   -7318.3291    2.1793429    5.9759917   0.12280752 
   66800   -952.36542    37.182835   -915.18258    1331.7543    -9661.904    2.1690374    6.4733353   0.12590249 
   66900   -951.70952    39.953513   -911.75601    1430.9899    2148.4354    2.1958546    7.9305444   0.12205421 
   67000   -957.51132    40.655889   -916.85543    1456.1465    6854.3041    2.2201232    6.2383205   0.11723154 
   67100    -957.5188    41.692074   -915.82672    1493.2589    3397.1013    2.2087541    6.0263668   0.11298967 
   67200   -950.08523    39.664474   -910.42075    1420.6376   -6029.3392    2.1753142    6.1864328   0.13608271 
   67300   -958.71652    40.862714   -917.85381    1463.5542    -5870.628    2.1904269    6.2861354   0.11285256 
   67400   -954.41568    38.797839   -915.61784    1389.5979     2456.839    2.2012701    6.3596695   0.10671901 
   67500   -954.63639    44.499795   -910.13659    1593.8213    646.13994    2.1985034    8.0010216   0.12407332 
   67600   -955.85731    37.783712    -918.0736    1353.2756    2104.8681    2.2056974    6.3486677   0.11101515 
   67700   -956.39103    40.245621   -916.14541    1441.4522   -3783.2205    2.1889461     5.860763   0.11906982 
   67800   -951.98672    40.347941   -911.63878    1445.1169   -3153.0581    2.1801825    7.2197589   0.12205556 
   67900   -957.47985    37.954153    -919.5257    1359.3801    2146.4116      2.20677    6.7227875   0.11103715 
   68000   -956.52944    40.171533   -916.35791    1438.7986    3435.5831     2.205819    6.1854393   0.11285928 
   68100    -951.6463    39.132626   -912.51368    1401.5888     415.6886    2.1912229    5.6991045   0.12599872 
   68200   -955.29913    35.904438   -919.39469    1285.9668    -3145.069    2.1908462    7.1706583   0.12191622 
   68300   -953.46054    36.761636    -916.6989    1316.6685   -3681.4885    2.1885947    4.8621744   0.11729239 
   68400   -953.45495    40.977199   -912.47775    1467.6547    4130.4201    2.2038852    7.1138902   0.11881657 
   68500   -956.83721    39.086582   -917.75063    1399.9396    11208.675    2.2291263    7.0887432   0.11785375 
   68600   -957.36334    39.130161   -918.23318    1401.5004    444.02376    2.2045817    6.3337456   0.11359195 
   68700   -954.55532    42.155056   -912.40027    1509.8412    -14244.22    2.1573138    7.3589434   0.12198428 
   68800   -954.77004    37.184629   -917.58541    1331.8186   -8512.8196    2.1776723    7.3911188   0.12408367 
   68900   -953.39363    36.549431   -916.84419    1309.0681    8715.6531    2.2182526    6.5815851   0.13167912 
   69000   -952.48702    42.452655   -910.03436    1520.5001    8769.2537    2.2139195    6.6793905   0.13006127 
   69100   -957.75624    40.925588   -916.83065    1465.8061   -483.85364    2.2009114    6.2370437   0.11688727 
   69200   -956.54708    39.741126   -916.80595     1423.383   -7088.1061    2.1809064    5.5370324   0.12498731 
   69300   -950.34824     39.98764    -910.3606    1432.2122   -3971.3442    2.1748458    5.8668878   0.12169735 
   69400   -955.18098    37.379657   -917.80132    1338.8037    4861.0984    2.2104497    7.0754357   0.11421464 
   69500    -955.7577    39.561451   -916.19625    1416.9477    5273.3067    2.2134839    6.3605311   0.12074149 
   69600   -948.93344    37.620334   -911.31311    1347.4239    687.96445    2.1905346    6.1265117   0.12746572 
   69700   -956.59313     37.94474   -918.64839     1359.043   -6098.7953    2.1865543    5.7728379   0.11636706 
   69800   -955.84465     38.97248   -916.87217    1395.8529   -3442.1809    2.1881234    7.8725525   0.11477732 
   69900    -952.4712    40.675994   -911.79521    1456.8666    3175.8197    2.1977832    7.7375938    0.1250525 
   70000   -959.08458    40.675868   -918.40872    1456.8621    5702.1761    2.2174662    6.8226093   0.12079679 
   70100   -954.56008    36.856971   -917.70311     1320.083   -286.13221    2.1985312    3.9558182   0.11184436 
   70200   -952.65708    39.782477   -912.87461    1424.8641   -7757.8872    2.1730571     6.730601   0.12798953 
   70300   -953.58729    35.368029   -918.21926    1266.7545   -4795.3683    2.1857777    6.8479092   0.13486426 
   70400   -956.03751    38.590788   -917.44672    1382.1821    8082.3602    2.2188573    4.8099225    0.1260358 
   70500   -951.84249    41.230267   -910.61223    1476.7186    17999.204    2.2341371    6.2116143   0.12658496 
   70600   -953.92004    37.731582   -916.18846    1351.4084    1118.6311    2.1984852     5.650635    0.1177066 
   70700   -955.99207    37.651533   -918.34054    1348.5414   -17637.284    2.1602846     7.931085   0.12456737 
   70800   -949.70618    39.074274    -910.6319    1399.4988   -7888.5224    2.1657149    7.4717075    0.1368782 
   70900   -954.43157    39.072458   -915.35912    1399.4338    6302.6158    2.2169554    5.7420491   0.13119198 
[...]
  186800   -956.06556    38.440907   -917.62465    1376.8139   -8641.1864    2.1775001    27.310945   0.12540657 
  186900   -957.93318    38.512279    -919.4209    1379.3702    3850.5577    2.2143062    26.656936   0.12519441 
  187000   -957.04134    43.486501   -913.55484    1557.5288    5966.2657    2.2143482    25.925263   0.11875323 
  187100   -957.93673    42.333001   -915.60373    1516.2146   -2505.0523    2.1977835     23.74874   0.11894064 
  187200   -956.29781    34.331774   -921.96604    1229.6396   -2403.6033    2.1989825    26.862431   0.12809648 
  187300   -954.33638    40.073648   -914.26274    1435.2927   -4013.3321    2.1857577    25.556803   0.12569299 
  187400   -952.99541    38.605561   -914.38985    1382.7112    2615.9971    2.1991601    29.037359   0.12856783 
  187500    -955.8991    36.747236   -919.15187    1316.1527    5395.6618    2.2132438    23.560455   0.12116547 
  187600   -957.24894    40.227447    -917.0215    1440.8012    1586.0834     2.204834    20.874516   0.11298267 
  187700   -952.79828     40.00003   -912.79825     1432.656    -3521.977    2.1828613    23.425931   0.11396849 
  187800   -952.53871    36.067711     -916.471    1291.8146   -4346.1675    2.1817116    27.101322   0.13256674 
  187900   -956.17001    38.653675   -917.51633    1384.4345   -910.82172    2.1983497    26.643777    0.1294395 
  188000   -950.89376    41.617843   -909.27592    1490.6002    4454.3502    2.2000553    26.947386   0.13597897 
  188100   -954.89267    40.525701   -914.36697    1451.4837    5330.1395    2.2095536    26.090071   0.12604901 
  188200   -952.43194    35.281083   -917.15086    1263.6404   -1810.0442      2.19013    24.729017   0.12641001 
  188300   -952.76729    42.320198   -910.44709     1515.756   -10040.346    2.1660451    26.358597    0.1331151 
  188400   -954.00861    41.434289   -912.57432     1484.026   -1003.1295    2.1895209    22.487293   0.12882919 
  188500   -952.51985    36.443764   -916.07609    1305.2834    11847.329    2.2255864    25.513358   0.13302934 
  188600    -955.7405    41.763132   -913.97737    1495.8039    8057.2264    2.2173958    24.404132   0.11747639 
  188700   -952.27728    42.529128   -909.74815    1523.2391   -9109.6728    2.1678301    25.753838   0.12946451 
  188800   -957.30263    38.879958   -918.42267    1392.5391   -12379.306    2.1743255    23.446454   0.12044778 
  188900   -955.44786    38.856137   -916.59172    1391.6859   -690.73504    2.2003894    26.836578   0.12163665 
  189000   -955.03258    42.215311   -912.81727    1511.9994    7609.6389     2.216701    24.099854   0.12164123 
  189100   -955.94342     38.88276   -917.06066    1392.6395    2181.6739    2.2068889    26.170898   0.11958781 
  189200   -955.73617    35.924471    -919.8117    1286.6843   -4110.4434    2.1932788    26.618443   0.13254007 
  189300   -955.82569    41.227636   -914.59805    1476.6244   -4370.7247    2.1846477    24.748971   0.12600933 
  189400   -953.52927    39.362199   -914.16707    1409.8112    853.40009    2.1960192    24.208432   0.13282532 
  189500    -958.5385    36.953992    -921.5845     1323.558    4782.7639    2.2170446    24.137496   0.11865829 
  189600   -953.29855    38.421625   -914.87692    1376.1233     406.6166    2.1969825     23.82837   0.13343342 
  189700   -956.22827    41.958581   -914.26969    1502.8042   -2600.0413    2.1901926    25.961366   0.12828517 
  189800   -955.49005    36.006232   -919.48382    1289.6127   -1111.4324    2.2000151     25.01103   0.12627694 
  189900   -954.39128    36.669837   -917.72144    1313.3806    2012.3745    2.2040303    26.103065    0.1434341 
  190000   -953.34987    40.224405   -913.12547    1440.6923     1588.119    2.1969741    24.244811   0.12490984 
  190100   -954.81098    38.199063   -916.61192    1368.1519   -1889.0475     2.195043     24.58748     0.122096 
  190200   -956.26209    37.560771   -918.70132    1345.2906   -1421.3052    2.1961044    26.106537   0.12240034 
  190300   -948.74814    38.614623   -910.13352    1383.0357   -1296.1549    2.1825617    25.173134   0.14393498 
  190400   -955.83827    41.198442   -914.63983    1475.5788    2612.7196    2.2052473    22.953977   0.13871696 
  190500   -956.04826    38.924693   -917.12357    1394.1413    3058.3451    2.2116104    25.266923   0.12877009 
  190600   -949.86583    39.492561   -910.37327    1414.4803    1146.7423    2.1886889    24.022568   0.14273064 
  190700   -955.12327    42.339951   -912.78332    1516.4635   -7140.5164     2.181892    23.750427   0.14770173 
  190800   -957.09011    39.841755   -917.24835    1426.9872   -6772.4187    2.1884057    26.759825   0.14082804 
  190900   -952.04187    39.221844   -912.82002    1404.7842     9359.464    2.2151105    26.367498   0.12940212 
  191000   -948.64856    39.232419   -909.41615     1405.163     13730.39    2.2196981     24.64198   0.13832065 
  191100   -954.37946    36.748924   -917.63053    1316.2132     818.1182    2.1986709    25.521298   0.12543812 
  191200   -953.59719    37.960562   -915.63663    1359.6097    -12010.58    2.1666532    26.187166   0.13213968 
  191300   -952.10676    39.470854   -912.63591    1413.7029   -6181.7501    2.1774952    21.975263   0.13254311 
  191400   -956.12424    35.364753   -920.75948    1266.6372    9813.9775    2.2274085    27.365573   0.12050804 
  191500   -955.70125    38.765429   -916.93582    1388.4371    7012.8661    2.2191561     26.13885   0.12976159 
  191600   -956.09559    42.162405   -913.93318    1510.1044   -4480.0163    2.1910025    25.228211   0.13636547 
  191700   -955.77089    38.713579   -917.05731      1386.58   -8660.0729    2.1790441    24.557319    0.1326485 
  191800   -956.67591    35.995512    -920.6804    1289.2287   -815.53757    2.2015361    23.420099    0.1286793 
  191900   -955.25792    41.953471   -913.30445    1502.6212    4809.5443    2.2076076    25.929278   0.12916073 
  192000   -952.88085    37.757161   -915.12369    1352.3246    6066.4139    2.2068251    25.192599   0.12660485 
  192100   -955.92234    35.528427   -920.39391    1272.4994   -3056.5077    2.1966713    25.157275   0.13566336 
  192200   -952.60971    38.616878   -913.99283    1383.1165   -3157.8896    2.1818048    23.738649   0.13665957 
  192300   -952.60236    39.038147   -913.56421    1398.2049    3209.6308    2.2004632     24.95728   0.14212044 
  192400   -954.96371    38.713222   -916.25049    1386.5672    6560.7204    2.2175638    23.103744   0.13323422 
  192500   -956.24505    37.542556    -918.7025    1344.6382    3094.1972    2.2086281     27.62355   0.13163252 
  192600   -948.37023    39.167212   -909.20301    1402.8275   -10303.783    2.1540487     26.60742   0.14632655 
  192700   -951.12107    37.845775    -913.2753    1355.4984   -8730.9995    2.1723811    27.110399   0.15576667 
  192800   -956.56231    41.370413    -915.1919    1481.7382    8981.5464    2.2203037    42.259112   0.14318969 
  192900   -954.71287    38.001585   -916.71128    1361.0789    16535.188    2.2389759    49.404526   0.15568195 
  193000   -950.11044     42.38157   -907.72887    1517.9541   -4056.6279     2.176113    54.830751   0.17233492 
  193100   -952.89902    39.855497   -913.04352    1427.4794   -10510.325    2.1687953    48.113512   0.15602901 
  193200   -956.76371    41.109766   -915.65394    1472.4027   -6022.1842    2.1880618    49.779724   0.15356975 
  193300   -956.38595    41.797162   -914.58878    1497.0227    2366.8992     2.204739     42.90193   0.14968693 
  193400   -948.17568    40.613265   -907.56241    1454.6199    1084.7553    2.1871968    47.576328   0.17350702 
  193500   -953.87081    39.608441   -914.26236    1418.6307   -3108.7923    2.1904651    43.842865   0.15486945 
  193600   -952.93212    37.399211   -915.53291    1339.5041   -213.91346    2.1956804    47.542746   0.14343803 
  193700   -949.43601    39.363004   -910.07301      1409.84    1716.0714     2.191276    47.421726    0.1405055 
  193800   -947.99566    38.024356   -909.97131    1361.8945    2750.8786    2.1876175    52.046809   0.14532913 
  193900   -952.59898    37.655907   -914.94307     1348.698    506.88366    2.1927045    50.273096   0.15648831 
  194000   -952.68009    38.248024   -914.43207    1369.9055    2176.7472      2.19772    45.600626   0.14630245 
  194100   -951.92753    37.354959   -914.57258    1337.9192    2150.5527    2.1981404    52.384143   0.16656871 
  194200   -958.53928    35.993442   -922.54584    1289.1546    103.39093    2.2045176     46.32489   0.14038937 
  194300   -954.38958    36.684927   -917.70466     1313.921   -6981.2711     2.179601    50.340891   0.14724117 
  194400   -951.03448    36.565853   -914.46863    1309.6563   -1776.8889    2.1866271    49.738545    0.1587421 
  194500   -953.62298    41.614834   -912.00815    1490.4924    7272.8976    2.2107598    45.235156   0.14201473 
  194600   -956.37699    36.668337   -919.70865    1313.3268    7649.5487    2.2221075    47.069415   0.14236727 
  194700   -951.04622    33.972467   -917.07375    1216.7706   -3812.4074    2.1838207    45.082979    0.1574164 
  194800   -951.90103    38.917629    -912.9834    1393.8883   -10351.601    2.1666092    47.036902   0.16687253 
  194900   -952.72875    36.782383   -915.94636    1317.4116     711.6888    2.1952495    53.157558   0.15318946 
  195000   -958.53181    39.693429   -918.83838    1421.6747    7780.9917     2.227733    61.333769   0.14412728 
  195100   -953.14873    41.490834    -911.6579    1486.0512     5732.653    2.2037299    50.792101     0.142173 
  195200   -952.67584    37.401739    -915.2741    1339.5947   -4610.2528    2.1852705    46.236534   0.17901036 
  195300   -954.01535    35.262949    -918.7524     1262.991   -5597.8047    2.1835552    46.683168   0.15724759 
  195400   -951.88234    41.047143   -910.83519    1470.1598   -684.06443    2.1876185    49.070982    0.1581943 
  195500   -948.47657    35.822177   -912.65439    1283.0205    8276.9765    2.2069246    43.546693    0.1629424 
  195600   -951.87283    35.557144   -916.31569     1273.528    4401.6182    2.2079726    53.057012   0.14428477 
  195700   -947.57268    36.711109   -910.86157    1314.8588    1204.3607    2.1841391    44.740007   0.16283191 
  195800   -952.34422    41.721143   -910.62308       1494.3   -5917.3758     2.179271    48.696568   0.16057531 
  195900   -954.61312     38.69579   -915.91733    1385.9429   -1291.5466    2.1917556    45.385814   0.14416193 
  196000   -952.26642    38.483059   -913.78336    1378.3236     3798.223    2.1998366    50.362399    0.1548223 
  196100   -948.79031    41.830471   -906.95984    1498.2158    3046.7796    2.1911723    48.682055   0.16011285 
  196200   -955.61283    40.327804   -915.28503    1444.3957      2113.72    2.2060548     45.14478   0.15356014 
  196300   -952.68981    37.690683   -914.99913    1349.9436   -839.46549    2.1915151    47.245029      0.15191 
  196400   -953.25298    42.727177    -910.5258    1530.3325   -5418.9573    2.1778741    48.967505   0.14607761 
  196500   -952.02377    42.994653   -909.02912    1539.9126   -3888.7548     2.178276    52.476534   0.14813088 
  196600   -953.53972    38.000843   -915.53888    1361.0524    4117.9253    2.2065549     42.35607    0.1539886 
  196700   -955.32352     41.38746   -913.93606    1482.3487    5049.5373    2.2052963    49.422596   0.14432191 
  196800   -952.15773    38.214144   -913.94358     1368.692   -133.72691    2.1898122    48.031789   0.15768202 
  196900   -958.12814    36.318151   -921.80999    1300.7844   -6122.8706    2.1920576    44.743717   0.15721547 
  197000   -952.79114    36.574036    -916.2171    1309.9493   -4038.1752    2.1834812    45.787978   0.14923895 
  197100   -951.49392     38.75786   -912.73606     1388.166    9149.1373    2.2083767    51.601396   0.15475658 
  197200   -953.77847    36.805815   -916.97265    1318.2508    14490.856    2.2310955    43.419459    0.1428063 
  197300   -954.44666    34.376136   -920.07053    1231.2285    656.07249    2.1984942    43.797428   0.14337085 
  197400   -949.88426    36.574917   -913.30935    1309.9809   -12795.741    2.1547492    39.997124   0.16447569 
  197500   -950.90334     36.02418   -914.87916    1290.2555   -5862.3209    2.1744471    44.829887   0.16387309 
  197600   -957.05765    38.252301   -918.80535    1370.0587    9611.7452     2.222309    47.342191   0.14489164 
  197700   -950.82069    37.633288    -913.1874    1347.8879    13486.567    2.2229358    41.868797   0.15312092 
  197800   -951.47661     39.72132   -911.75529    1422.6736     1727.543    2.1926215    45.230159   0.15002211 
  197900   -955.56897     39.59379   -915.97518     1418.106   -8820.3037    2.1785125    49.097704   0.15815036 
  198000   -952.09788    37.702212   -914.39566    1350.3565   -2967.0896    2.1826344    50.688872   0.15649922 
  198100   -949.22071    42.661529   -906.55918    1527.9813   -683.50946    2.1832804    39.834967   0.16890555 
  198200   -950.81778    36.893573    -913.9242     1321.394    7337.5754    2.2084769    45.511099   0.14925617 
  198300   -951.03747    36.085008   -914.95246    1292.4341    6507.4716    2.2057981    44.087175   0.16043084 
  198400   -951.16882    39.357277   -911.81155    1409.6349   -1902.2082    2.1849974    45.992845   0.15686796 
  198500     -952.575    43.763727   -908.81128     1567.458   -9672.0112    2.1654815    50.859684   0.16180631 
  198600   -953.34855    37.783788   -915.56477    1353.2783   -2476.3636    2.1911186    42.328317   0.15153309 
  198700    -951.8229    37.955216   -913.86768    1359.4182     9654.264    2.2152318    51.919117    0.1529292 
  198800   -953.07358    42.230243   -910.84333    1512.5342    7392.6457    2.2099409    50.248187   0.15727883 
  198900   -945.05333    39.198932    -905.8544    1403.9636   -5820.6233    2.1615227     48.49015   0.17456458 
  199000   -951.71877    37.704709   -914.01406     1350.446   -11216.398    2.1660437    46.011872   0.15838107 
  199100    -956.2529    41.502456   -914.75045    1486.4674   -361.67682    2.1992752    48.517578   0.15334519 
  199200   -953.05029    38.823678   -914.22661    1390.5233    10661.504    2.2185012    43.513626   0.14095251 
  199300   -951.08961    45.738372   -905.35124    1638.1826    3344.7826    2.1894065    42.355432   0.15268227 
  199400   -948.37155     37.47519   -910.89636    1342.2254   -537.69051    2.1854879    47.305546   0.15909915 
  199500   -951.44654     37.13638   -914.31016    1330.0904    -3059.909    2.1863554    48.810866    0.1475227 
  199600    -955.0609    39.195472   -915.86543    1403.8397   -1366.7137    2.1988054    46.836638   0.14838541 
  199700   -953.31153    39.135186   -914.17634    1401.6804    3903.0345    2.2018513     54.01236   0.14593527 
  199800    -951.8034    43.565863   -908.23754    1560.3712   -3160.5312    2.1814314    42.597685   0.16864515 
  199900   -952.94508    39.808488   -913.13659    1425.7957   -6072.8952    2.1807633    46.892573   0.15474488 
  200000   -954.19748    38.693793   -915.50368    1385.8714   -924.77455    2.1950947    48.456048   0.15684453 
  200100   -956.09458     39.40736   -916.68722    1411.4287    2874.2178    2.2094231    56.531754   0.14836637 
  200200    -949.9367    42.024307    -907.9124    1505.1583   -1644.0264     2.183902    48.785902   0.15963328 
  200300   -953.44371    40.455545   -912.98817    1448.9709   -4694.9635    2.1826855    52.679792   0.14976171 
  200400   -956.52714     41.06812   -915.45902    1470.9111   -2788.5181    2.1931541    46.375929   0.14223665 
  200500   -954.29816    38.592421   -915.70574    1382.2406    5902.9454    2.2094229    51.029255   0.14749629 
  200600   -948.09236    41.299175   -906.79319    1479.1867    3334.7437    2.1911965    39.726989   0.15568071 
  200700   -952.42405    39.468133   -912.95591    1413.6054   -3104.9813    2.1874409    52.174902   0.15866696 
  200800   -953.39268    37.660836   -915.73185    1348.8746   -8123.4622    2.1780517    42.216868   0.15566465 
  200900   -952.65022    38.740772   -913.90944     1387.554   -6276.7945    2.1814302    49.556746   0.16111894 
  201000   -948.94777    41.957824   -906.98995    1502.7771    5746.4337    2.1981483     50.84963   0.16320641 
  201100   -952.01486    38.773131   -913.24173    1388.7129    10849.092    2.2197474    47.940636   0.15707429 
  201200   -952.78598    37.583612   -915.20237    1346.1087   -1627.2078    2.1945495    46.372033   0.17100587 
  201300   -951.90189    38.620395   -913.28149    1383.2425   -10469.156    2.1660314    54.583642   0.15451782 
  201400   -946.62243    39.140372   -907.48206    1401.8662   -7587.0214    2.1618747    46.524509   0.16436981 
  201500   -953.94613    39.380761   -914.56537     1410.476    6768.5332    2.2106516    44.337482   0.13615879 
  201600   -953.99316    39.608255   -914.38491    1418.6241    10436.731    2.2206678    51.851735   0.14038893 
  201700   -950.67527    39.830029   -910.84524    1426.5672    691.32213    2.1839904    48.739507   0.15962388 
  201800   -954.70005    37.742307   -916.95774    1351.7926   -10902.656     2.170139    49.266265    0.1493807 
  201900   -957.83839    40.577968   -917.26042    1453.3557    -7798.199    2.1821254    46.083636   0.15176644 
  202000   -953.06598    38.852049   -914.21393    1391.5395    3942.0388    2.2040804    45.056725   0.14459492 
  202100   -953.94794    41.759676   -912.18827    1495.6802       7072.9    2.2092407    44.968949   0.15123121 
  202200   -955.50557    36.354958   -919.15062    1302.1028   -1900.8114    2.1983578    45.591923   0.15550578 
  202300   -958.26422    40.363355   -917.90086     1445.669   -10792.811    2.1769743    48.243935   0.15054615 
  202400   -952.37052    38.770049   -913.60047    1388.6025   -1729.2493    2.1851544    48.424094    0.1693911 
  202500   -952.29706    39.177527   -913.11953    1403.1969    5621.2392    2.2055321    44.037833   0.14747988 
  202600    -958.8018    38.429245   -920.37255    1376.3962    5289.7677    2.2203655    47.562153   0.13214454 
  202700   -952.81254    39.252388   -913.56015    1405.8782   -2465.6512    2.1865925    50.121047   0.15700553 
  202800   -952.63602    39.079426   -913.55659    1399.6833   -6592.5386    2.1716052    49.242313   0.15508823 
  202900   -954.77991     35.26992   -919.50999    1263.2406   -1922.3646     2.197086    49.130537   0.15796416 
  203000   -952.96941    39.430773   -913.53864    1412.2673    6746.7489    2.2072317    52.725956   0.14728571 
  203100   -953.12089    40.797193   -912.32369    1461.2075    7066.1525     2.206055    47.275151   0.16053998 
  203200   -957.49275    40.060054   -917.43269    1434.8058   -2362.9116     2.192794    49.140135   0.16075617 
Loop time of 144.714 on 1 procs for 200000 steps with 217 atoms

Performance: 358.224 ns/day, 0.067 hours/ns, 1382.039 timesteps/s
100.0% CPU use with 1 MPI tasks x no OpenMP threads

MPI task timing breakdown:
Section |  min time  |  avg time  |  max time  |%varavg| %total
---------------------------------------------------------------
Pair    | 141.33     | 141.33     | 141.33     |   0.0 | 97.66
Neigh   | 0.31143    | 0.31143    | 0.31143    |   0.0 |  0.22
Comm    | 0.85528    | 0.85528    | 0.85528    |   0.0 |  0.59
Output  | 0.06779    | 0.06779    | 0.06779    |   0.0 |  0.05
Modify  | 1.8578     | 1.8578     | 1.8578     |   0.0 |  1.28
Other   |            | 0.2948     |            |       |  0.20

Nlocal:    217 ave 217 max 217 min
Histogram: 1 0 0 0 0 0 0 0 0 0
Nghost:    951 ave 951 max 951 min
Histogram: 1 0 0 0 0 0 0 0 0 0
Neighs:    4292 ave 4292 max 4292 min
Histogram: 1 0 0 0 0 0 0 0 0 0
FullNghs:  8584 ave 8584 max 8584 min
Histogram: 1 0 0 0 0 0 0 0 0 0

Total # of neighbors = 8584
Ave neighs/atom = 39.5576
Neighbor list builds = 526
Dangerous builds = 5
Total wall time: 0:02:27
