LAMMPS (3 Mar 2020)
Reading data file ...
  orthogonal box = (0 0 0) to (16.36 16.36 16.36)
  1 by 1 by 1 MPI processor grid
  reading atoms ...
  256 atoms
  read_data CPU = 0.00098665 secs
Reading potential file /usr/share/lammps-stable/potentials/Ag_u3.eam with DATE: 2007-06-11
Neighbor list info ...
  update every 1 steps, delay 10 steps, check yes
  max neighbors/atom: 2000, page size: 100000
  master list distance cutoff = 7.55
  ghost atom cutoff = 7.55
  binsize = 3.775, bins = 5 5 5
  2 neighbor lists, perpetual/occasional/extra = 1 1 0
  (1) pair eam, perpetual
      attributes: half, newton on
      pair build: half/bin/atomonly/newton
      stencil: half/bin/3d/newton
      bin: standard
  (2) compute rdf, occasional, copy from (1)
      attributes: half, newton on
      pair build: copy
      stencil: none
      bin: none
Setting up Verlet run ...
  Unit style    : metal
  Current step  : 0
  Time step     : 0.005
Per MPI rank memory allocation (min/avg/max) = 3.744 | 3.744 | 3.744 Mbytes
Step PotEng KinEng TotEng Temp Press Density c_msdall[4] 
       0       -729.6    78.447982   -651.15202         2380    19135.934    10.472245            0 
     100   -677.59985    51.377813   -626.22204    1558.7296    85962.426    10.472245    0.1223522 
     200   -656.70113    69.353879   -587.34726    2104.0979    119921.58    10.472245   0.21554432 
     300   -648.75675    90.287807   -558.46894    2739.2034     133523.8    10.472245   0.23102881 
     400   -650.11085    81.507873   -568.60297    2472.8327    129055.17    10.472245   0.23171334 
     500   -649.86464    69.155464   -580.70918    2098.0782    127445.38    10.472245   0.27343598 
     600   -646.27273    82.291884   -563.98084    2496.6185    135296.24    10.472245   0.26899429 
     700   -644.22848    78.112427   -566.11606    2369.8198    137750.19    10.472245   0.25043501 
     800   -655.16192    81.134864   -574.02706    2461.5162    123763.66    10.472245   0.26566232 
     900   -647.10497    82.594828   -564.51014    2505.8094     134352.3    10.472245   0.21835091 
    1000   -649.56476     76.50274   -573.06202    2320.9841    129469.98    10.472245    0.2439041 
    1100   -652.09904    75.283519   -576.81552    2283.9947    124832.61    10.472245   0.26857226 
    1200   -651.13158    89.378849   -561.75273    2711.6269     129441.9    10.472245   0.20360656 
    1300   -652.26297    77.172666    -575.0903    2341.3087    124860.56    10.472245   0.20069621 
    1400   -650.08817    80.319993   -569.76818    2436.7941     130524.2    10.472245   0.21286396 
    1500   -642.50868    75.915382   -566.59329    2303.1645    137579.43    10.472245   0.26441021 
    1600   -656.44766    82.716389   -573.73127    2509.4974    121085.42    10.472245   0.18337809 
    1700   -658.81136    70.758899   -588.05246    2146.7242    115416.07    10.472245   0.18431646 
    1800   -652.75686    77.922928   -574.83393    2364.0706    125219.51    10.472245   0.22879625 
    1900   -648.92338     81.97185   -566.95154    2486.9091    132613.27    10.472245   0.22027976 
    2000   -646.50361    73.696269   -572.80734    2235.8398    133970.81    10.472245   0.27017767 
    2100   -659.34339    78.891497    -580.4519    2393.4556    116849.16    10.472245   0.23121382 
    2200   -649.94317    84.481976   -565.46119    2563.0628       131379    10.472245   0.21895708 
    2300   -645.22901    71.779157   -573.44986    2177.6774     134553.3    10.472245   0.26429975 
    2400   -648.72925     77.75851   -570.97074    2359.0824    131116.21    10.472245   0.21730895 
    2500   -643.68801    80.993448   -562.69456    2457.2258    138852.27    10.472245   0.25213972 
    2600   -646.99671    75.345731   -571.65098    2285.8821    130368.23    10.472245   0.26228534 
    2700    -650.8904    78.907629   -571.98277     2393.945    129426.61    10.472245   0.24804034 
    2800   -648.21938    77.647449   -570.57193     2355.713    133502.67    10.472245   0.23149251 
    2900    -651.8114    73.367459   -578.44394    2225.8642    126001.38    10.472245   0.22749053 
    3000    -645.1015    76.969276   -568.13222    2335.1382    135551.75    10.472245   0.24512984 
    3100   -646.52593    80.684393   -565.84153    2447.8495    131845.82    10.472245   0.29683132 
    3200   -650.82923    73.545894   -577.28333    2231.2776    126746.48    10.472245   0.25690371 
    3300   -649.68521    82.371332   -567.31388    2499.0289    131002.84    10.472245   0.25112218 
    3400   -649.95939     79.86411   -570.09528    2422.9633     128996.3    10.472245   0.24510061 
    3500   -649.83514    72.719193   -577.11594    2206.1967    128629.93    10.472245   0.29514046 
    3600   -644.01105    82.388012   -561.62304    2499.5349    137769.63    10.472245   0.25829489 
    3700    -650.1828    76.257909   -573.92489    2313.5563    128973.83    10.472245   0.23678728 
    3800   -647.21668    76.854364   -570.36232    2331.6519    131917.11    10.472245   0.25362317 
    3900   -642.07118    84.818255   -557.25292     2573.265    141094.98    10.472245   0.25655404 
    4000   -634.24257    83.092114   -551.15046    2520.8963    151455.37    10.472245   0.35954297 
    4100   -650.52066    79.078653   -571.44201    2399.1337     129674.5    10.472245   0.28449686 
    4200   -638.54754    67.485005   -571.06253    2047.3989    142101.67    10.472245   0.29427414 
    4300   -639.91188    78.214269   -561.69761    2372.9095    141960.39    10.472245   0.35580047 
    4400   -654.23856    83.337742   -570.90082    2528.3484    124720.84    10.472245   0.23094037 
    4500   -657.05724     79.35065   -577.70659    2407.3857     120223.9    10.472245    0.1767737 
    4600   -643.07291    79.422817   -563.65009    2409.5751    139974.16    10.472245   0.23113588 
    4700   -641.53651    71.394539   -570.14197    2166.0086    138693.23    10.472245   0.27430932 
    4800   -653.43562    72.881682   -580.55394    2211.1264     124213.6    10.472245   0.21878739 
    4900   -661.19734    73.534725   -587.66262    2230.9388    114375.76    10.472245   0.18124335 
    5000   -650.02798    78.830944   -571.19703    2391.6185     130096.3    10.472245    0.2579074 
    5100   -645.33316    81.309052   -564.02411    2466.8008    134715.18    10.472245   0.26879648 
    5200   -651.94798    76.246739   -575.70124    2313.2174    127765.07    10.472245   0.25882082 
    5300   -652.38581    74.183612    -578.2022    2250.6251    125037.73    10.472245   0.19314682 
    5400   -647.97298    82.690898   -565.28209     2508.724    132792.38    10.472245   0.24669454 
    5500    -644.5001    75.100706    -569.3994    2278.4484    134397.95    10.472245   0.26797053 
    5600   -653.03712    78.073742   -574.96338    2368.6461    124238.18    10.472245   0.23470685 
    5700   -643.29181    73.525785   -569.76602    2230.6676    136317.02    10.472245   0.25128876 
    5800   -640.21271    85.079833   -555.13288    2581.2009    144256.99    10.472245   0.30406322 
    5900   -642.85497    75.715325   -567.13965    2297.0951    139888.55    10.472245   0.25079293 
    6000   -648.76887    75.588537   -573.18034    2293.2485    130922.46    10.472245   0.30875683 
    6100   -641.29903    79.497969   -561.80106    2411.8551    141182.97    10.472245   0.27973427 
    6200   -652.08824    76.050666   -576.03757    2307.2689    124526.11    10.472245   0.22316674 
    6300    -643.7562    72.291468   -571.46473    2193.2201    138902.23    10.472245   0.32669736 
    6400   -646.24051    82.968949   -563.27156    2517.1597    134692.18    10.472245   0.25918586 
    6500    -648.3026    74.774598     -573.528    2268.5548    130520.76    10.472245   0.25239835 
    6600   -652.20134    82.540298   -569.66104     2504.155    126419.92    10.472245   0.21731369 
    6700   -644.76495    78.930622   -565.83433    2394.6426    136814.68    10.472245   0.22779909 
    6800   -652.31404    74.306584   -578.00745    2254.3559    125066.27    10.472245   0.21663732 
    6900   -647.49323    75.470596   -572.02264    2289.6704    132768.76    10.472245   0.23248066 
    7000   -647.81315    82.022153     -565.791    2488.4352    131248.16    10.472245   0.22843117 
    7100   -645.06894    72.648802   -572.42013    2204.0611    134442.87    10.472245   0.26124177 
    7200   -650.04947    79.573243   -570.47623    2414.1388    129140.33    10.472245   0.25652925 
    7300    -650.1054    80.724968   -569.38044    2449.0805    131257.41    10.472245   0.25183818 
    7400   -650.33089    75.534157   -574.79673    2291.5987    128566.89    10.472245   0.25588374 
    7500   -645.06258    79.456376    -565.6062    2410.5932    136941.48    10.472245   0.27245995 
    7600   -644.13011    80.096481   -564.03363    2430.0131    136641.81    10.472245    0.3033867 
    7700   -650.94147    74.002693   -576.93878    2245.1363     127336.1    10.472245   0.23776836 
    7800   -649.20251    80.458174   -568.74434    2440.9863    130704.25    10.472245   0.25895374 
    7900   -650.06715    83.597165   -566.46999    2536.2189    129741.19    10.472245   0.22912464 
    8000   -650.62371    80.628534   -569.99518    2446.1548    129618.72    10.472245   0.22703225 
    8100   -653.28129    74.397663   -578.88363    2257.1191    124237.23    10.472245   0.22370882 
    8200   -644.39671    79.404204    -564.9925    2409.0104       135967    10.472245   0.26204852 
    8300   -649.02133    80.737323     -568.284    2449.4553    130723.68    10.472245   0.23447898 
    8400   -648.23007    73.569602   -574.66047    2231.9969    129316.08    10.472245   0.24470203 
    8500   -647.04702    76.839668   -570.20735     2331.206    132156.34    10.472245    0.2663477 
    8600   -649.01556    83.030851   -565.98471    2519.0377    132924.42    10.472245     0.203949 
    8700   -650.93015    73.166427   -577.76373    2219.7652    125812.08    10.472245   0.24909426 
    8800   -641.28892    74.942409   -566.34651    2273.6459    139437.86    10.472245   0.27183081 
    8900   -648.92478    74.801034   -574.12375    2269.3568    130482.67    10.472245   0.22678754 
    9000   -649.05494    72.420561   -576.63438    2197.1366    129686.17    10.472245   0.23559454 
    9100   -643.94385    75.388033   -568.55582    2287.1655     136712.2    10.472245   0.32759113 
    9200   -642.86627    76.581149   -566.28512    2323.3629    137237.99    10.472245   0.29466537 
    9300   -650.53519    77.890325   -572.64486    2363.0815    129101.03    10.472245    0.1893447 
    9400   -650.84675    75.229583   -575.61717    2282.3584    126698.25    10.472245   0.26303085 
    9500   -645.35362    78.094925    -567.2587    2369.2888       133600    10.472245    0.2559076 
    9600   -655.35079    80.202163   -575.14863    2433.2194    123349.78    10.472245   0.21925799 
    9700   -655.61497    73.072339   -582.54263    2216.9107    120999.31    10.472245     0.229566 
    9800    -645.5919    76.420449   -569.17145    2318.4875    133582.21    10.472245   0.24649435 
    9900   -648.43902    78.906551   -569.53247    2393.9123    130766.39    10.472245   0.22583331 
   10000    -649.1586     73.69089   -575.46771    2235.6766    129547.78    10.472245   0.23258234 
   10100   -638.98555    71.079381   -567.90617    2156.4471    140858.14    10.472245   0.29220232 
   10200   -642.27617    77.226104   -565.05006      2342.93    139594.12    10.472245    0.2611457 
   10300   -651.05622    79.081806   -571.97441    2399.2293    128037.61    10.472245   0.23977178 
   10400   -645.45862    74.280439   -571.17818    2253.5627    134178.21    10.472245   0.25812288 
   10500   -638.22019    81.861609   -556.35858    2483.5646    145365.55    10.472245    0.2904529 
   10600   -647.14808    79.305855   -567.84223    2406.0266    133956.73    10.472245   0.23837369 
   10700   -650.12637    79.274446   -570.85192    2405.0737    128927.87    10.472245   0.25887491 
   10800   -640.38662    79.705924   -560.68069    2418.1642    142105.83    10.472245    0.3137077 
   10900   -640.60581    79.554276   -561.05153    2413.5634    141883.42    10.472245   0.25510365 
   11000   -652.48964    79.807365   -572.68228    2421.2417    128153.07    10.472245   0.21700706 
   11100   -649.61262    77.313834   -572.29879    2345.5916    128707.42    10.472245   0.26211214 
   11200   -643.65731    83.848189   -559.80912    2543.8346    140954.13    10.472245   0.31044042 
   11300   -645.19313    73.672417   -571.52071    2235.1162    134391.69    10.472245   0.24638003 
   11400   -645.04135    76.169067   -568.87229     2310.861    135283.47    10.472245   0.25804496 
   11500   -648.03293    82.042978   -565.98995    2489.0671    133545.27    10.472245   0.30907068 
   11600    -649.2003    72.151539   -577.04876    2188.9749    131179.35    10.472245   0.28112094 
   11700   -641.12587    75.822892   -565.30298    2300.3585    139847.88    10.472245   0.25956868 
   11800   -649.77621    84.265872   -565.51033    2556.5065    132679.99    10.472245   0.26440162 
   11900   -649.75184    77.892181   -571.85966    2363.1378    129949.54    10.472245   0.25262696 
   12000   -645.04392    72.937261   -572.10666    2212.8126    135146.84    10.472245   0.29891889 
   12100   -644.99184    82.876411   -562.11543    2514.3522    138816.72    10.472245   0.24183974 
   12200   -651.70429    77.328881   -574.37541    2346.0481    127266.39    10.472245   0.22482136 
   12300   -642.67321    71.685389   -570.98782    2174.8326    137271.45    10.472245   0.26940311 
   12400   -641.95825    76.203994   -565.75426    2311.9206    137332.34    10.472245   0.27060734 
   12500   -649.60103    79.680634    -569.9204    2417.3969    132607.33    10.472245   0.22022578 
   12600   -651.05481    79.267395   -571.78742    2404.8598    127504.52    10.472245   0.23551868 
   12700   -642.32993    85.515311   -556.81462    2594.4127    143084.81    10.472245   0.25654075 
   12800    -650.2313    79.658153   -570.57314    2416.7149    128495.98    10.472245   0.26197967 
   12900   -654.95366    85.078803   -569.87486    2581.1697    122780.92    10.472245   0.18854471 
   13000   -655.50894    83.476078   -572.03286    2532.5453    123307.61    10.472245   0.19341227 
   13100    -648.0332     74.22803   -573.80517    2251.9727    129029.61    10.472245   0.20135679 
   13200   -647.18602    84.636747   -562.54927    2567.7583    135454.37    10.472245   0.21620526 
   13300   -647.23663    75.078671   -572.15796    2277.7799     132061.7    10.472245   0.23707027 
   13400   -654.92637    82.285385   -572.64099    2496.4213    124421.72    10.472245   0.21679531 
   13500   -648.45265    85.520084   -562.93257    2594.5575    133989.39    10.472245   0.23295774 
   13600   -645.55264    72.661605   -572.89104    2204.4496    134916.82    10.472245   0.26753835 
   13700   -646.70446    74.027635   -572.67682     2245.893    134289.66    10.472245   0.26004471 
   13800   -649.54315    87.246666   -562.29648    2646.9395    131293.66    10.472245   0.25018942 
   13900   -651.43446    74.927995   -576.50646    2273.2086    126308.97    10.472245   0.23078794 
   14000     -645.682    72.241822   -573.44018     2191.714    133457.87    10.472245    0.2565809 
   14100   -647.98152     81.92525   -566.05627    2485.4954    133407.65    10.472245   0.24681717 
   14200   -654.93139    78.984679   -575.94671    2396.2826    123368.94    10.472245   0.19968768 
   14300    -648.1438    75.813611   -572.33019    2300.0769    132443.99    10.472245   0.23258461 
   14400   -641.10477    77.999908   -563.10486    2366.4061    140757.84    10.472245   0.28658532 
   14500    -649.7803    73.776406    -576.0039     2238.271     128053.5    10.472245   0.24638118 
   14600   -651.75362    79.292512   -572.46111    2405.6218    127144.25    10.472245   0.21364041 
   14700   -647.55904    77.278078   -570.28097    2344.5068    131630.16    10.472245   0.27708015 
   14800   -638.19291    80.661769   -557.53114    2447.1631    146047.85    10.472245   0.24910155 
   14900   -648.96151    76.740256   -572.22126      2328.19    128862.44    10.472245    0.2387613 
   15000   -651.12578     81.42539   -569.70039    2470.3303    130237.65    10.472245   0.24725043 
   15100   -648.20438    85.935192   -562.26919    2607.1513    133112.11    10.472245   0.21819867 
   15200   -651.68295    75.675133   -576.00782    2295.8757    127146.54    10.472245   0.20175762 
   15300   -645.12268    77.320208   -567.80247    2345.7849    136087.42    10.472245   0.22837375 
   15400   -645.07079    82.714345   -562.35644    2509.4354    137162.05    10.472245    0.2817753 
   15500   -647.48393    72.708954   -574.77498    2205.8861    132445.93    10.472245   0.22276156 
   15600   -648.90176    74.656566   -574.24519    2264.9738    131446.12    10.472245   0.23199308 
   15700    -646.5145    82.458576   -564.05593    2501.6757    135581.13    10.472245   0.23744758 
   15800   -646.71909    71.930879   -574.78821    2182.2804    132114.12    10.472245   0.22480205 
   15900   -651.83328    79.295782    -572.5375     2405.721    129418.83    10.472245   0.22414601 
   16000   -646.31775    82.094886   -564.22287    2490.6419    135533.05    10.472245   0.22019677 
   16100   -651.12564    77.753228   -573.37241    2358.9222    127836.19    10.472245   0.27705401 
   16200   -647.74227     73.72549   -574.01678    2236.7263    131727.13    10.472245   0.23802154 
   16300   -644.31596     82.24588   -562.07008    2495.2228    139233.82    10.472245     0.237137 
   16400   -649.45681    73.216919   -576.23989     2221.297    128520.25    10.472245   0.25035129 
   16500   -650.45895    79.038821   -571.42013    2397.9252    128670.37    10.472245   0.23665712 
   16600   -642.94444    82.422356   -560.52208    2500.5768    138772.52    10.472245   0.31894542 
   16700   -638.42939    91.913192   -546.51619    2788.5153    146727.28    10.472245   0.32875915 
   16800   -637.84564     73.98362   -563.86202    2244.5576    144845.09    10.472245   0.32038486 
   16900   -648.62577    75.840355   -572.78541    2300.8883    129628.91    10.472245   0.22637811 
   17000   -654.58643    74.058315   -580.52811    2246.8238    122301.13    10.472245   0.23517225 
   17100   -653.95883    85.134658   -568.82417    2582.8642    125593.73    10.472245   0.20376794 
   17200   -647.95141    80.858672   -567.09273    2453.1369     133717.6    10.472245   0.26046702 
   17300   -641.99163    72.456411   -569.53521    2198.2243     141144.4    10.472245   0.28509025 
   17400   -651.66842    75.588492   -576.07993    2293.2472    127013.83    10.472245   0.22253358 
   17500   -647.54403    76.420499   -571.12353    2318.4891    132849.46    10.472245   0.22844076 
   17600   -644.02281    82.807667   -561.21514    2512.2666    138571.24    10.472245   0.25021576 
   17700   -648.92082    76.018018    -572.9028    2306.2784    130860.15    10.472245    0.2543045 
   17800   -654.67049    82.192701   -572.47779    2493.6094    124784.86    10.472245   0.22003417 
   17900   -645.42045    79.478194   -565.94225    2411.2552    136224.94    10.472245   0.24822735 
   18000   -647.83729    81.899779   -565.93752    2484.7226    133265.99    10.472245   0.21899524 
   18100   -650.64624    73.508715   -577.13752    2230.1497    127776.83    10.472245   0.20773769 
   18200   -645.01368    80.113245   -564.90044    2430.5217    136224.88    10.472245    0.2708219 
   18300   -648.39967    81.972016   -566.42766    2486.9142    134725.49    10.472245   0.27424678 
   18400   -646.55688    76.737358   -569.81952    2328.1021    134156.77    10.472245   0.25921874 
   18500   -656.19996    71.437264   -584.76269    2167.3048    119303.78    10.472245   0.23122682 
   18600    -649.2116    76.389342   -572.82226    2317.5438    129304.49    10.472245   0.21653314 
   18700   -645.40789    76.888735   -568.51916    2332.6947    133835.88    10.472245   0.27907169 
   18800   -642.94535    82.229196   -560.71616    2494.7166     139531.3    10.472245   0.25762573 
   18900   -650.57315    76.123913   -574.44924    2309.4911    127916.97    10.472245   0.25350302 
   19000    -643.6079    75.158535   -568.44936    2280.2029    136184.66    10.472245   0.30203955 
   19100   -641.14998    74.952193   -566.19778    2273.9427    138732.77    10.472245   0.32403305 
   19200   -639.23876    72.700551   -566.53821    2205.6311     142216.2    10.472245   0.27500035 
   19300   -650.96795    74.170022   -576.79793    2250.2128     126281.5    10.472245   0.23289597 
   19400   -645.35782    82.779659   -562.57816    2511.4169    136573.93    10.472245   0.22606832 
   19500   -640.30985    73.372355    -566.9375    2226.0127    141731.01    10.472245   0.23846257 
   19600   -651.59517    81.249455   -570.34571    2464.9927    129162.84    10.472245    0.2242799 
   19700   -656.03904    75.382838    -580.6562    2287.0079    121433.42    10.472245   0.20478463 
   19800   -650.48105    79.856781   -570.62427    2422.7409    129163.35    10.472245   0.20029862 
   19900   -645.14958    78.125106   -567.02448    2370.2044    137190.02    10.472245   0.22951627 
   20000   -656.35565    77.252616   -579.10303    2343.7343    121341.46    10.472245   0.21465865 
   20100   -650.77288    80.488689   -570.28419    2441.9121    129601.81    10.472245   0.23285967 
   20200   -644.87745    76.159868   -568.71758    2310.5819    135730.47    10.472245   0.25312542 
   20300   -653.57421    77.409638   -576.16457    2348.4981    124551.64    10.472245   0.21549715 
   20400   -650.70422    75.285038   -575.41918    2284.0408    127595.21    10.472245   0.24664118 
   20500   -645.84723    79.963498   -565.88373    2425.9786    134168.41    10.472245   0.26589799 
   20600   -654.11374    78.374229   -575.73951    2377.7625    123529.78    10.472245   0.23205402 
   20700   -652.65494    76.158893   -576.49604    2310.5523    124931.36    10.472245   0.20454451 
   20800   -641.85191    71.799307    -570.0526    2178.2887    138859.98    10.472245    0.2780825 
   20900   -649.13582    81.691093   -567.44472    2478.3914    131344.15    10.472245   0.23533453 
   21000   -652.32485    73.792329   -578.53252    2238.7541    125984.85    10.472245   0.19816111 
   21100   -640.97997    75.972282   -565.00768    2304.8908    140204.92    10.472245   0.27832499 
   21200   -649.44088     79.84596   -569.59492    2422.4127    131025.24    10.472245   0.24663377 
   21300   -654.01859    73.358262   -580.66033    2225.5851    123452.02    10.472245   0.19814875 
   21400   -656.78601    73.802152   -582.98386    2239.0521    120500.24    10.472245   0.22040335 
   21500   -645.97469    77.190422   -568.78426    2341.8474    133518.24    10.472245   0.23084203 
   21600   -651.25896    83.296452    -567.9625    2527.0957    129430.86    10.472245   0.22917413 
   21700   -662.45803    83.531339   -578.92669    2534.2218    116407.68    10.472245   0.15855267 
   21800   -648.70698     72.34285   -576.36413     2194.779    130634.53    10.472245   0.22608493 
   21900   -643.03575    76.029374   -567.00638    2306.6229    137459.37    10.472245   0.24067161 
   22000   -649.94656    73.968194   -575.97837    2244.0896    129008.05    10.472245   0.22890371 
   22100   -652.29444    72.026943   -580.26749    2185.1948    124703.01    10.472245   0.26250779 
   22200   -644.75802    81.449884   -563.30814    2471.0734    137818.08    10.472245   0.29606405 
   22300   -646.63292    76.809875   -569.82304    2330.3022    131063.52    10.472245   0.31135617 
   22400   -641.24923    74.593633    -566.6556    2263.0645    141769.86    10.472245   0.29010129 
   22500   -640.53133    78.679042   -561.85228      2387.01    141540.26    10.472245   0.26169986 
   22600   -649.18836    76.683982   -572.50438    2326.4827    130230.24    10.472245   0.23316756 
   22700   -648.34998     80.04869   -568.30129    2428.5632    132899.07    10.472245   0.24254666 
   22800   -642.00327    85.342995   -556.66027    2589.1849    141922.89    10.472245   0.28075521 
   22900   -651.63471    77.913387   -573.72132    2363.7811    128180.64    10.472245   0.20759702 
   23000   -646.71435    76.545534   -570.16882    2322.2825    134526.71    10.472245   0.26370896 
   23100   -641.96206    74.644296   -567.31777    2264.6016    137255.98    10.472245   0.29544376 
   23200   -654.93911    74.698185   -580.24092    2266.2365    121477.23    10.472245    0.2442944 
   23300   -648.43717    75.861622   -572.57555    2301.5335     131950.4    10.472245   0.23971253 
   23400   -645.20968     78.29905   -566.91063    2375.4816    135369.99    10.472245   0.26901843 
   23500    -644.4764    70.580032   -573.89637    2141.2976    134200.16    10.472245   0.28547245 
   23600   -650.47958    74.378368   -576.10121    2256.5337    127392.22    10.472245   0.25600358 
   23700   -644.20609    79.051018   -565.15508    2398.2953    136769.96    10.472245   0.23830544 
   23800   -645.23591    71.715158   -573.52075    2175.7357     134403.2    10.472245   0.24650234 
   23900   -656.49514    73.348724   -583.14642    2225.2958    120462.34    10.472245   0.17715394 
   24000      -650.73     79.59415   -571.13585    2414.7731    129019.24    10.472245   0.24556972 
   24100   -648.69099     78.16103   -570.52996    2371.2943    131745.08    10.472245   0.22679565 
   24200   -652.99777    76.229412   -576.76836    2312.6918    126655.35    10.472245   0.24639129 
   24300   -646.53018    84.265651   -562.26453    2556.4998    137079.21    10.472245   0.26672182 
   24400   -652.21649    81.574928   -570.64156    2474.8671    125564.86    10.472245   0.25315185 
   24500   -651.15269    77.096081   -574.05661    2338.9853    127673.78    10.472245    0.2567746 
   24600   -650.66771    82.903161   -567.76454    2515.1638    128280.97    10.472245   0.28399471 
   24700   -633.58257     81.29004   -552.29252     2466.224    151324.18    10.472245     0.347832 
   24800    -643.3606    77.901974   -565.45862    2363.4349    137626.12    10.472245   0.32784193 
   24900   -649.99358    77.399523   -572.59406    2348.1913    128229.49    10.472245   0.23682143 
   25000   -655.14495    76.077041    -579.0679     2308.069    121924.52    10.472245   0.25312227 
   25100   -638.91593    73.307607   -565.60832    2224.0484    144274.63    10.472245    0.3123946 
   25200   -646.82839    81.157775   -565.67062    2462.2113    134408.21    10.472245   0.25948255 
   25300    -653.9265    76.425574   -577.50092     2318.643    123301.51    10.472245    0.1872917 
   25400   -642.88089    75.432915   -567.44798    2288.5272    137783.47    10.472245   0.27297429 
   25500   -644.66021    75.805071   -568.85514    2299.8178    134640.13    10.472245   0.25291398 
   25600   -650.91145    72.554656   -578.35679    2201.2049    128560.43    10.472245   0.23452528 
   25700   -661.39785    72.587416   -588.81044    2202.1988    112484.46    10.472245   0.23271187 
   25800    -647.0573     75.22682   -571.83048    2282.2745    131199.63    10.472245   0.28957523 
   25900   -635.94557     73.63792   -562.30765    2234.0696    147215.34    10.472245   0.35359083 
   26000   -647.49083     80.52103    -566.9698    2442.8933    133523.37    10.472245   0.24495452 
   26100   -652.25619    77.419838   -574.83635    2348.8076    126909.05    10.472245   0.22651666 
   26200   -643.75257    81.587634   -562.16494    2475.2526    137656.11    10.472245   0.22232133 
   26300   -642.83052    75.611538   -567.21898    2293.9463    138929.62    10.472245   0.30802832 
   26400   -643.90078    69.004313   -574.89647    2093.4925     134784.5    10.472245   0.26934816 
   26500   -646.01898     83.48656   -562.53242    2532.8633     134366.1    10.472245   0.26068436 
   26600   -644.95379    79.012185   -565.94161    2397.1171    137306.64    10.472245   0.27738586 
   26700   -646.66347    76.514765   -570.14871     2321.349    133272.28    10.472245   0.23452543 
   26800   -647.46347    74.819744   -572.64373    2269.9244    132267.23    10.472245   0.23591139 
   26900   -651.80107    79.891052   -571.91002    2423.7807    127600.09    10.472245   0.20908264 
   27000   -648.96131    87.050296   -561.91101    2640.9819    132702.14    10.472245   0.29961691 
   27100   -632.85949    79.318191    -553.5413    2406.4009    152073.89    10.472245   0.38566998 
   27200   -639.75884    73.405779   -566.35306    2227.0267    141713.81    10.472245   0.40610635 
   27300   -645.08106    79.560988   -565.52007     2413.767    135949.12    10.472245   0.39102408 
   27400    -651.2558    79.742333   -571.51347    2419.2688    129674.73    10.472245   0.47915132 
   27500   -641.06333    81.408662   -559.65467    2469.8228    142659.89    10.472245   0.60406603 
   27600   -643.88841    77.655583   -566.23283    2355.9597    136442.17    10.472245   0.54784515 
   27700   -650.57342    79.910477   -570.66295      2424.37    129542.24    10.472245   0.50614053 
   27800   -647.46739      76.8298   -570.63759    2330.9067    133433.79    10.472245   0.50205026 
   27900   -642.77313    82.890209   -559.88292    2514.7708    138428.72    10.472245   0.55400684 
   28000   -651.09022    76.309321   -574.78089    2315.1161    126162.57    10.472245   0.51048044 
   28100   -644.38194    73.467251   -570.91469    2228.8917    135489.71    10.472245   0.48712787 
   28200   -645.23011    88.104897   -557.12521     2672.977    138174.23    10.472245    0.4968472 
   28300   -646.65816    76.592615   -570.06555    2323.7108    131879.13    10.472245   0.49530913 
   28400   -650.83325     78.22529   -572.60796    2373.2438    129489.85    10.472245   0.52268762 
   28500   -637.24655    75.422004   -561.82455    2288.1961    144392.83    10.472245   0.59400378 
   28600   -643.07879    77.527802   -565.55099     2352.083    136436.78    10.472245   0.49777562 
   28700    -645.9515    74.532484   -571.41901    2261.2094    132647.58    10.472245   0.55021264 
   28800   -649.29029    87.127614   -562.16268    2643.3277    132766.58    10.472245   0.47742347 
   28900   -648.16459    82.432247   -565.73235    2500.8769    131930.41    10.472245   0.48682431 
   29000   -654.62042    81.191157   -573.42926     2463.224    126038.32    10.472245   0.47663893 
   29100   -647.85551     78.76042   -569.09509    2389.4789    132488.41    10.472245   0.50586319 
   29200   -638.24627    74.706728   -563.53954    2266.4957    142254.66    10.472245   0.48135067 
   29300    -650.5019    75.230118   -575.27178    2282.3746    129490.81    10.472245   0.44950399 
   29400   -646.29418     77.31737   -568.97681    2345.6988    135144.36    10.472245   0.48095695 
   29500   -642.58918    84.569978    -558.0192    2565.7326    142512.72    10.472245   0.52569906 
   29600   -647.15576     77.57663   -569.57913    2353.5644    133142.16    10.472245   0.52024448 
   29700   -642.24179     72.85864   -569.38315    2210.4273    138466.74    10.472245   0.65646765 
   29800   -643.12516      76.4053   -566.71986    2318.0279    136297.86    10.472245   0.56568586 
   29900   -649.79983    78.024311   -571.77552    2367.1464    130849.41    10.472245   0.49650046 
   30000   -646.46843    77.086203   -569.38223    2338.6856    134005.72    10.472245   0.54819049 
   30100   -649.22077    83.559084   -565.66169    2535.0635    131289.89    10.472245   0.47877902 
   30200   -652.50141    76.663423   -575.83798     2325.859    125744.61    10.472245   0.43969377 
   30300   -654.48644    81.098623   -573.38781    2460.4167    123166.44    10.472245   0.53338391 
   30400   -645.85522    79.340764   -566.51445    2407.0857    134117.75    10.472245   0.44309711 
   30500   -651.14323      75.1021   -576.04113    2278.4907    128777.21    10.472245   0.52907352 
   30600   -647.31408    85.915888   -561.39819    2606.5656    134476.12    10.472245   0.48863625 
   30700   -642.25513    75.482107   -566.77303    2290.0196     137771.2    10.472245   0.50690784 
   30800   -651.56211    74.678694   -576.88341    2265.6452    127041.19    10.472245   0.46556306 
   30900    -647.0872    74.364491   -572.72271    2256.1127    131790.57    10.472245   0.54086301 
   31000   -645.84256    80.652395   -565.19016    2446.8787    136508.04    10.472245   0.52298729 
   31100     -649.763    71.306926   -578.45607    2163.3505     130945.3    10.472245   0.53070078 
   31200   -647.80439    75.292259   -572.51213    2284.2598    131717.49    10.472245   0.49241361 
   31300   -644.21216    79.356016   -564.85615    2407.5485    136560.13    10.472245   0.47715619 
   31400   -652.94993    74.374179   -578.57575    2256.4066     123468.4    10.472245   0.47214025 
   31500   -654.81718    79.990871   -574.82631    2426.8091    123940.54    10.472245   0.47038748 
   31600    -641.6673    75.485415   -566.18188    2290.1199    140204.29    10.472245   0.48811198 
   31700    -646.0603    74.439866   -571.62044    2258.3995    132412.06    10.472245   0.51100833 
   31800   -646.65534    76.930563   -569.72478    2333.9637    131674.74    10.472245   0.51728926 
   31900    -640.6938    80.210209   -560.48359    2433.4635    140799.59    10.472245   0.53611884 
   32000   -650.06915    77.779312   -572.28983    2359.7135    130445.64    10.472245   0.47057105 
   32100   -650.94422    74.407971   -576.53625    2257.4318    128259.06    10.472245   0.51465659 
   32200   -652.97687    82.695765    -570.2811    2508.8717    127155.44    10.472245    0.4558226 
   32300   -645.38909    81.150205   -564.23888    2461.9816    136407.53    10.472245   0.50589464 
   32400   -652.57566    73.379186   -579.19648    2226.2199    125235.26    10.472245   0.54383562 
   32500   -649.46929    79.220129   -570.24916    2403.4258    130109.73    10.472245   0.48229826 
   32600   -643.47814    75.915269   -567.56287    2303.1611    136603.02    10.472245   0.51877255 
   32700   -642.94326    70.750926   -572.19234    2146.4823    139265.08    10.472245   0.49760535 
   32800   -657.10992    79.121137   -577.98878    2400.4226    119574.92    10.472245   0.42770413 
   32900   -647.47463    79.307684   -568.16695    2406.0821    131882.77    10.472245   0.53652727 
   33000   -640.77502    75.959376   -564.81565    2304.4992    140560.63    10.472245   0.51138502 
   33100   -650.58157    70.854935   -579.72664    2149.6378    126028.98    10.472245   0.48205176 
   33200   -648.29534    77.953695   -570.34164     2365.004    132434.67    10.472245   0.50117883 
   33300   -646.07582     77.26236   -568.81346    2344.0299    135496.59    10.472245   0.48834832 
   33400   -647.78553    75.449052   -572.33648    2289.0167    131581.94    10.472245     0.520671 
   33500   -649.15901    77.332913    -571.8261    2346.1704    131817.76    10.472245   0.46327196 
   33600   -648.02292    77.668482   -570.35443    2356.3511    132293.95    10.472245   0.51330294 
   33700   -641.71696    79.565635   -562.15132     2413.908    140329.19    10.472245   0.63884152 
   33800   -643.02225    84.727771   -558.29448    2570.5198    141106.28    10.472245   0.48726242 
   33900   -650.65352    75.764535   -574.88898     2298.588    126715.87    10.472245    0.5028863 
   34000   -648.24748    79.204451   -569.04303    2402.9502    132398.54    10.472245    0.4708513 
   34100   -639.11651    80.627916   -558.48859    2446.1361    143580.62    10.472245   0.59425698 
   34200   -643.41898    69.655677   -573.76331     2113.254    133333.75    10.472245   0.52470775 
   34300    -650.1405    81.305646   -568.83486    2466.6975    131468.55    10.472245   0.47414825 
   34400   -640.13074    79.049164   -561.08158     2398.239    142279.73    10.472245   0.50115297 
   34500   -654.79692    78.621269   -576.17565    2385.2573    122623.35    10.472245   0.46231493 
   34600   -642.22703    76.742053   -565.48498    2328.2445    137957.31    10.472245   0.51019088 
   34700   -646.55688     78.65802   -567.89886    2386.3722    133760.85    10.472245   0.44333448 
   34800   -647.13196    75.515963   -571.61599    2291.0467    132985.28    10.472245   0.48163132 
   34900   -650.64782    88.571906   -562.07592    2687.1454    131994.34    10.472245   0.45309942 
   35000   -645.28998    69.880971   -575.40901    2120.0891    132295.84    10.472245   0.54277103 
   35100    -644.5903    74.572528   -570.01777    2262.4243    133690.17    10.472245   0.53714846 
   35200   -641.09362    85.974355   -555.11927    2608.3394    143370.08    10.472245   0.49204104 
   35300   -652.10889    84.361506   -567.74738    2559.4079    126707.83    10.472245   0.50107978 
   35400   -651.88057    78.084778   -573.79579    2368.9809    126798.54    10.472245   0.55542569 
   35500   -650.10869    83.735769   -566.37292    2540.4239    131650.44    10.472245   0.50492929 
   35600   -644.39031    81.062867   -563.32745    2459.3319    138662.04    10.472245   0.49564998 
   35700   -651.84715    74.721026   -577.12612    2266.9295    127310.01    10.472245   0.47052897 
   35800   -646.98304    79.069602   -567.91344    2398.8591    133345.68    10.472245   0.50230349 
   35900   -644.80597    80.871858   -563.93411    2453.5369    137450.12    10.472245   0.49171277 
   36000   -645.12158    74.619996   -570.50159    2263.8644    135057.92    10.472245   0.49669519 
   36100   -658.69311    81.143912    -577.5492    2461.7907    117722.46    10.472245   0.42973932 
   36200   -651.62833    72.922431   -578.70589    2212.3627    127525.07    10.472245   0.49174895 
   36300   -650.73433    83.330165   -567.40416    2528.1185     126536.6    10.472245   0.48024977 
   36400   -656.08789    81.988082    -574.0998    2487.4016    122900.37    10.472245   0.49219658 
   36500   -659.77996    76.646512   -583.13345     2325.346     116979.5    10.472245   0.42066425 
   36600   -647.91413    80.056605   -567.85752    2428.8033    132933.69    10.472245   0.43630581 
   36700   -651.00163    78.264721   -572.73691    2374.4401    129634.26    10.472245   0.50162644 
   36800    -652.8954    74.892944   -578.00246    2272.1452    124681.26    10.472245   0.45277915 
   36900   -644.18608    79.491438   -564.69465     2411.657    136985.55    10.472245   0.50733571 
   37000   -642.48228     72.02681   -570.45547    2185.1908    138549.84    10.472245   0.58606743 
   37100   -659.95823    77.646255   -582.31198    2355.6767    116401.93    10.472245   0.43907341 
   37200   -652.08961    75.622188   -576.46742    2294.2694     127719.3    10.472245    0.5158711 
   37300   -646.27746    79.591106   -566.68635    2414.6807    134841.21    10.472245   0.43116657 
   37400   -648.03474    75.645236    -572.3895    2294.9687    132990.94    10.472245   0.52134001 
   37500   -649.15277      72.5652   -576.58757    2201.5248    127552.91    10.472245   0.56667682 
   37600   -646.72634    78.011876   -568.71446    2366.7692    132985.43    10.472245   0.51626587 
   37700   -645.84643    76.498481   -569.34794    2320.8549    134059.32    10.472245   0.51042955 
   37800   -652.58294    78.976417   -573.60653     2396.032    124641.46    10.472245   0.49648956 
   37900    -644.3605    80.662073   -563.69842    2447.1724     137183.8    10.472245   0.51617914 
   38000   -651.14737    78.511242   -572.63613    2381.9192    127499.99    10.472245   0.49834062 
   38100   -652.74155    76.963735   -575.77782    2334.9701    124956.26    10.472245   0.49811761 
   38200   -650.18778    87.187463   -563.00031    2645.1434    132451.53    10.472245    0.5259818 
   38300   -653.02111    82.505695   -570.51542    2503.1052    127029.81    10.472245   0.49906402 
   38400     -655.685    78.769822   -576.91518    2389.7642    122843.91    10.472245   0.47063898 
   38500   -655.82055    74.877006   -580.94354    2271.6617    121491.43    10.472245   0.47506105 
   38600   -648.34147    80.334398   -568.00707    2437.2312    132574.26    10.472245   0.48777488 
   38700   -646.75439    75.713022   -571.04137    2297.0252    132021.53    10.472245   0.54195423 
   38800   -655.79277    76.248231   -579.54454    2313.2627    121762.17    10.472245   0.47280907 
   38900   -644.09246    79.658542   -564.43391    2416.7267    139124.31    10.472245   0.45924346 
   39000   -657.19463    84.080767   -573.11387    2550.8907    120142.91    10.472245   0.44778615 
   39100   -651.59117     76.09402   -575.49715    2308.5842    127421.43    10.472245   0.49241864 
   39200   -644.66286    77.462117   -567.20074    2350.0903    137039.13    10.472245   0.52002352 
   39300   -654.69774    81.058431   -573.63931    2459.1973    123980.49    10.472245    0.4955082 
   39400   -654.41781    77.412297   -577.00551    2348.5788    122998.21    10.472245   0.48106677 
   39500   -648.21658    82.110239   -566.10634    2491.1077    133147.11    10.472245   0.53146752 
   39600   -647.66476    80.688668   -566.97609    2447.9792    135405.72    10.472245   0.52732371 
   39700   -653.43896    75.812021   -577.62694    2300.0287    125270.25    10.472245    0.4590465 
   39800   -656.54544    84.485576   -572.05986     2563.172    122293.45    10.472245    0.5056284 
   39900   -649.22313    84.416062   -564.80707     2561.063    131921.12    10.472245   0.55479605 
   40000   -652.07243    76.534419   -575.53801    2321.9452    126218.53    10.472245   0.48309857 
   40100   -652.50307    73.086026   -579.41704    2217.3259    123468.56    10.472245   0.46607824 
   40200   -648.98703    77.235444   -571.75159    2343.2133    132262.01    10.472245    0.5163869 
   40300   -651.80519    82.000846   -569.80434    2487.7888    126968.42    10.472245   0.48623158 
   40400   -649.23024     80.25105   -568.97919    2434.7025    131099.89    10.472245   0.48290647 
   40500   -650.50548    78.209829   -572.29565    2372.7748    127755.61    10.472245   0.50738377 
   40600   -649.09644    73.162552   -575.93389    2219.6476    128129.05    10.472245   0.47683904 
   40700   -646.39493    80.879013   -565.51592     2453.754    134944.95    10.472245   0.50525096 
   40800   -650.87079    85.203965   -565.66682    2584.9669    130184.16    10.472245   0.49135305 
   40900   -652.32356    74.704164    -577.6194    2266.4179    125203.78    10.472245   0.54844149 
   41000   -647.62402    80.885265   -566.73875    2453.9437    134524.35    10.472245   0.46941536 
   41100   -645.69681     72.50802   -573.18879      2199.79    134037.68    10.472245   0.55863363 
   41200   -656.96264    76.329546   -580.63309    2315.7297    120616.13    10.472245   0.47730568 
   41300   -648.15035    82.913695   -565.23665    2515.4834    134069.07    10.472245   0.47618278 
   41400   -651.93585    80.262939   -571.67291    2435.0632    128013.91    10.472245    0.4668863 
   41500   -652.27043    80.232916   -572.03752    2434.1523    128248.84    10.472245   0.47768793 
   41600   -646.76237    83.344672    -563.4177    2528.5586    133200.93    10.472245   0.51205275 
   41700   -641.17649    70.612222   -570.56427    2142.2742    139062.79    10.472245   0.50476847 
   41800   -645.50403    90.996918   -554.50711    2760.7168    140235.03    10.472245   0.53638181 
   41900    -642.5715    78.533793   -564.03771    2382.6034    139707.89    10.472245   0.48949207 
   42000   -650.33517     78.83206   -571.50311    2391.6524    129634.98    10.472245     0.495167 
   42100   -649.41926    72.715247   -576.70402     2206.077    128711.22    10.472245    0.4711713 
   42200   -648.42437    86.335525   -562.08884    2619.2968    135294.11    10.472245   0.47774527 
   42300   -655.36218    82.427207   -572.93497     2500.724    123048.96    10.472245   0.44297514 
   42400   -650.87644    76.041183   -574.83525    2306.9811    126314.66    10.472245   0.50607993 
   42500   -649.51994    80.967706   -568.55223    2456.4448    130560.55    10.472245   0.49141838 
   42600   -645.38452    83.893028   -561.49149    2545.1949    136043.03    10.472245   0.54623004 
   42700   -641.62431    77.820895   -563.80341    2360.9751    141245.73    10.472245   0.47017526 
   42800   -652.29251    78.142865   -574.14964    2370.7432    125261.83    10.472245   0.52881367 
   42900   -645.82855       82.947   -562.88155    2516.4938    136190.64    10.472245   0.45813328 
   43000   -647.94499    73.144359   -574.80063    2219.0956    131252.47    10.472245   0.51928291 
   43100    -652.0518    77.741615   -574.31019    2358.5698    126459.16    10.472245   0.49045207 
   43200   -645.37992    82.188347   -563.19157    2493.4773    137425.13    10.472245   0.50442366 
   43300   -646.31128    74.540296   -571.77099    2261.4464    133143.12    10.472245   0.54890621 
   43400    -650.7697     75.49759   -575.27211    2290.4893    127118.03    10.472245   0.48513806 
   43500   -642.49419    76.289187     -566.205    2314.5052    139835.14    10.472245    0.4931596 
   43600   -654.92854    80.222827   -574.70571    2433.8463    122283.27    10.472245   0.46610887 
   43700    -650.1145    71.448675   -578.66583     2167.651    127124.89    10.472245   0.51371829 
   43800   -638.50128    71.210123   -567.29116    2160.4137     144267.7    10.472245   0.53441615 
   43900   -646.31861    81.268773   -565.04984    2465.5788    133810.61    10.472245    0.5590954 
   44000   -654.15689    76.074161   -578.08272    2307.9817    123533.99    10.472245   0.43723665 
   44100   -645.49762    78.947326    -566.5503    2395.1494    136260.82    10.472245   0.53039034 
   44200   -646.49309     78.48508   -568.00801    2381.1255    133058.79    10.472245   0.48150491 
   44300   -648.09384    77.097261   -570.99658    2339.0211    131607.79    10.472245   0.50669843 
   44400   -647.19195    75.848316   -571.34364    2301.1298    132426.22    10.472245   0.53677007 
   44500   -649.18251    87.001398   -562.18112    2639.4984    131888.61    10.472245   0.51133196 
   44600   -650.20357    79.022768    -571.1808    2397.4382     130951.3    10.472245   0.51491205 
   44700   -652.33846    78.035989   -574.30247    2367.5007    126297.15    10.472245   0.47446717 
   44800   -648.44208    83.349751   -565.09233    2528.7127    131545.41    10.472245   0.50911815 
   44900   -653.34495     75.53793   -577.80702    2291.7132    124463.43    10.472245   0.47305231 
   45000   -655.61432    78.933104   -576.68121    2394.7179     121176.2    10.472245   0.48489629 
   45100   -644.36487    79.008966   -565.35591    2397.0194    135635.36    10.472245   0.50178779 
   45200   -656.53867    79.894583   -576.64408    2423.8878    121513.85    10.472245   0.46502881 
   45300   -648.95776    69.911539   -579.04622    2121.0165     128849.1    10.472245   0.52009091 
   45400    -645.0763    75.249699    -569.8266    2282.9687    135235.18    10.472245   0.46809614 
   45500   -649.20332    81.125802   -568.07752    2461.2412    131336.98    10.472245   0.46577229 
   45600   -648.93567     78.04406   -570.89161    2367.7456    130425.42    10.472245   0.48352066 
   45700   -648.14946    71.642303   -576.50716    2173.5254    127920.66    10.472245   0.51229588 
   45800   -643.94628    79.808173   -564.13811    2421.2663    136338.61    10.472245   0.53222321 
   45900   -644.44925    77.728133   -566.72112    2358.1608    137136.74    10.472245   0.48192562 
   46000   -655.90851    76.629022   -579.27949    2324.8153    121865.14    10.472245   0.42014982 
   46100   -647.00933    74.436285   -572.57305    2258.2908    131832.46    10.472245   0.53371484 
   46200   -647.48984    80.554789   -566.93505    2443.9175    134350.48    10.472245      0.56955 
   46300   -656.45355    74.883601   -581.56995    2271.8618    120880.87    10.472245   0.43722477 
   46400   -655.88762    81.594913    -574.2927    2475.4734    123558.25    10.472245   0.46505194 
   46500   -648.42211    79.832075   -568.59003    2421.9914    131762.24    10.472245   0.41911944 
   46600   -653.72616    84.435781   -569.29038    2561.6613    126700.48    10.472245   0.47947094 
   46700   -653.90207    74.291605   -579.61047    2253.9014    122793.82    10.472245   0.51722932 
   46800   -636.58468    70.608679     -565.976    2142.1667    143188.27    10.472245   0.54216618 
   46900   -636.86238    73.852072   -563.01031    2240.5666    146392.84    10.472245    0.6107239 
   47000   -649.53196      74.3548   -575.17716    2255.8187    129145.54    10.472245   0.53736052 
   47100   -650.30801    75.053837   -575.25418    2277.0265    129394.93    10.472245   0.48343236 
   47200   -645.72688    79.137678    -566.5892    2400.9244    135546.78    10.472245   0.49900812 
   47300   -642.16363    80.237772   -561.92585    2434.2997    141108.93    10.472245   0.55609491 
   47400   -643.59086      77.4591   -566.13176    2349.9987    137649.46    10.472245   0.58798564 
   47500   -651.52495    80.789576   -570.73537    2451.0406     129003.5    10.472245   0.47136767 
   47600   -653.14908    76.292487   -576.85659    2314.6054    124273.06    10.472245   0.46897517 
   47700   -644.12706    80.867693   -563.25936    2453.4106    139577.54    10.472245     0.512503 
   47800   -644.68152     74.73809   -569.94343    2267.4472    137854.82    10.472245   0.49561406 
   47900   -649.77637    76.903221   -572.87315    2333.1342    129492.67    10.472245   0.45132574 
   48000   -642.78927      79.1565   -563.63277    2401.4954    140263.14    10.472245    0.5689132 
   48100    -643.1518    82.557828   -560.59397    2504.6869    141312.61    10.472245   0.55981492 
   48200   -649.44556    80.334144   -569.11141    2437.2235    130962.37    10.472245   0.52757638 
   48300   -651.80013    78.066951   -573.73317    2368.4401    125915.78    10.472245   0.49417572 
   48400   -649.16336    83.973277   -565.19008    2547.6296    132576.22    10.472245      0.50336 
   48500   -645.25602    82.250343   -563.00568    2495.3582    137614.41    10.472245   0.51662185 
   48600   -651.58344     75.91712   -575.66632    2303.2173    127626.94    10.472245   0.45695577 
   48700   -650.02181    83.649141   -566.37266    2537.7958    132991.55    10.472245   0.50345099 
   48800   -653.64943     85.16532   -568.48411    2583.7945    127488.92    10.472245    0.4993145 
   48900   -647.04349    77.637315   -569.40618    2355.4055     133058.6    10.472245   0.46683883 
   49000   -644.02597    66.501055   -577.52492    2017.5472     134465.6    10.472245   0.48987549 
   49100   -644.55449    77.512595    -567.0419    2351.6217    138287.34    10.472245   0.52671767 
   49200   -645.44405     75.58012   -569.86393    2292.9932    133447.64    10.472245   0.46671701 
   49300   -648.35029    72.027521   -576.32277    2185.2124    131953.06    10.472245   0.58170513 
   49400   -642.62726    81.420039   -561.20722     2470.168    139415.41    10.472245   0.53714204 
   49500    -648.0045    75.667954   -572.33655    2295.6579    133242.77    10.472245   0.49757079 
   49600   -649.63255    80.384508   -569.24804    2438.7514    129823.59    10.472245   0.50944865 
   49700   -650.59978    82.510107   -568.08968    2503.2391    130079.76    10.472245   0.50896985 
   49800   -648.54921    78.690175   -569.85903    2387.3478    131421.26    10.472245   0.52069925 
   49900   -639.48279    82.844851   -556.63794    2513.3948    145767.61    10.472245   0.60882209 
   50000   -648.42662    80.771281   -567.65534    2450.4856    132072.02    10.472245   0.49151057 
   50100   -652.68773    81.420479   -571.26725    2470.1813    127122.68    10.472245   0.45521172 
   50200   -644.83983    79.749986   -565.08985    2419.5009    137280.84    10.472245   0.50431335 
   50300   -641.29923    78.181643   -563.11759    2371.9196    142336.18    10.472245   0.48283709 
   50400   -653.12749    77.394822   -575.73267    2348.0486    123959.39    10.472245   0.51692841 
   50500   -649.04014    81.949145   -567.09099    2486.2203    130352.34    10.472245   0.47603005 
   50600   -644.23073    90.959707   -553.27103    2759.5879    140522.62    10.472245   0.47957188 
   50700   -650.48171    79.634442   -570.84727    2415.9955    128739.75    10.472245   0.53869284 
   50800     -644.564    76.440174   -568.12382     2319.086     135105.8    10.472245   0.52844694 
   50900   -641.71787    85.555984   -556.16189    2595.6467    140943.23    10.472245   0.56077544 
   51000   -643.52571    72.041638   -571.48407    2185.6407    135973.26    10.472245   0.54133964 
   51100   -650.45717    79.236979   -571.22019     2403.937    127203.79    10.472245   0.51718338 
   51200   -640.84801    82.444245   -558.40376    2501.2409    144056.39    10.472245   0.57707994 
   51300   -646.49399    78.171469   -568.32253     2371.611    134345.07    10.472245   0.48068529 
   51400   -648.89915    77.053731   -571.84542    2337.7004    130035.59    10.472245   0.51479913 
   51500   -645.49036    85.633837   -559.85653    2598.0086    136241.85    10.472245   0.51449974 
   51600   -648.88969    77.934205   -570.95548    2364.4127    130727.33    10.472245   0.50828612 
   51700   -652.64936    80.818078   -571.83128    2451.9053    128220.18    10.472245   0.49563974 
   51800    -647.0136    81.579448   -565.43415    2475.0042    134956.15    10.472245    0.5072759 
   51900   -649.69339    80.251387     -569.442    2434.7128    130178.88    10.472245   0.45849576 
   52000   -651.17756    75.587046   -575.59052    2293.2033    127975.92    10.472245   0.45749129 
   52100   -642.54368     83.34355   -559.20013    2528.5246    141630.21    10.472245   0.52189402 
   52200   -645.81914    77.419746   -568.39939    2348.8048    135179.58    10.472245   0.53713612 
   52300   -651.25437     77.48206   -573.77231    2350.6953    127456.17    10.472245   0.51617871 
   52400   -649.94445    70.395057   -579.54939    2135.6857    127795.21    10.472245   0.49798091 
   52500   -648.09612    82.058699   -566.03742     2489.544     133688.2    10.472245   0.45806608 
   52600   -648.90233    78.737375   -570.16496    2388.7798    130030.74    10.472245   0.47808993 
   52700   -653.57954    73.390029   -580.18951    2226.5489    123712.22    10.472245   0.44224951 
   52800   -646.37017    76.182288   -570.18789    2311.2621    132455.72    10.472245   0.51516741 
   52900   -651.03467     81.78866   -569.24601    2481.3514     130130.4    10.472245   0.46576291 
   53000     -653.294    68.088622   -585.20538    2065.7118    122282.91    10.472245   0.50469219 
   53100   -650.74257    74.033861   -576.70871    2246.0819    126698.34    10.472245   0.46342313 
   53200    -644.7844    77.284821   -567.49958    2344.7113    136263.92    10.472245   0.49442439 
   53300   -646.99345    77.584008   -569.40945    2353.7882    133828.69    10.472245   0.52954453 
   53400   -661.93733    83.606772   -578.33056    2536.5103    114938.69    10.472245   0.44789673 
   53500   -648.43869     84.44081   -563.99788    2561.8139    135179.13    10.472245   0.46835878 
   53600   -648.67304    79.682207   -568.99083    2417.4446    131500.65    10.472245   0.46339358 
   53700   -655.31626    80.791052   -574.52521    2451.0854    120389.85    10.472245   0.45722809 
   53800   -644.79276    74.918886   -569.87387    2272.9323    134564.69    10.472245   0.52327037 
   53900   -650.20209    80.669373   -569.53271    2447.3938    130842.08    10.472245   0.46268695 
   54000   -650.85647    73.453036   -577.40344    2228.4604    127056.17    10.472245    0.4691726 
   54100   -658.32583    75.259829     -583.066     2283.276    117700.63    10.472245   0.46496677 
   54200   -651.21415    78.533909   -572.68024    2382.6069    129148.99    10.472245   0.45775727 
   54300   -649.20843    83.205921    -566.0025    2524.3491    131891.12    10.472245   0.53349405 
   54400   -637.34348    83.777942   -553.56553    2541.7034    147382.04    10.472245   0.51269886 
   54500   -646.14339    77.413112   -568.73028    2348.6035    131834.71    10.472245    0.4956144 
   54600   -650.57833    78.296436    -572.2819    2375.4023    128089.09    10.472245   0.47893424 
   54700   -650.77957    82.776991   -568.00258     2511.336    128256.26    10.472245   0.46608539 
   54800    -648.0383    84.144803    -563.8935    2552.8334    132080.42    10.472245   0.50782235 
   54900   -656.38184     80.72364    -575.6582    2449.0402    120969.08    10.472245   0.47828368 
   55000   -650.23083    82.019065   -568.21176    2488.3416    129955.76    10.472245   0.48731532 
   55100   -641.17141    86.242095   -554.92931    2616.4623    140806.43    10.472245   0.54566513 
   55200   -646.69603    82.210071   -564.48596    2494.1364    134151.31    10.472245    0.5323317 
   55300   -648.28799    72.191424   -576.09657    2190.1849    129977.37    10.472245   0.52798785 
   55400   -647.14755    83.106284   -564.04127    2521.3262    133120.39    10.472245   0.60499561 
   55500   -637.98544    75.365051   -562.62039    2286.4683    145547.73    10.472245   0.61732253 
   55600   -651.35278    77.648133   -573.70465    2355.7337    128072.65    10.472245   0.51008758 
   55700   -654.90164    70.914599   -583.98704    2151.4479    123363.49    10.472245   0.41645584 
   55800   -647.21235    78.208237   -569.00411    2372.7265    132919.86    10.472245   0.52927257 
   55900   -641.95001    75.190517    -566.7595    2281.1731     136669.3    10.472245   0.56180501 
   56000   -649.37568    78.133994   -571.24168    2370.4741    129758.02    10.472245   0.49400759 
   56100   -656.12002    77.133122    -578.9869     2340.109    121301.46    10.472245   0.44663583 
   56200   -649.00308    85.951093   -563.05198    2607.6337     132340.5    10.472245   0.50102088 
   56300   -651.87419    79.692992   -572.18119    2417.7718    127622.96    10.472245   0.49091599 
   56400   -649.73711    78.150777   -571.58634    2370.9832    130051.39    10.472245   0.45974916 
   56500   -651.28903    90.057023     -561.232    2732.2018    130062.28    10.472245    0.4520539 
   56600   -649.76419    77.226165   -572.53802    2342.9318    129403.28    10.472245   0.52318001 
   56700    -648.8952    78.336562   -570.55864    2376.6197     131159.4    10.472245   0.49413846 
   56800   -648.08113     83.84762   -564.23351    2543.8173    133452.75    10.472245   0.54020438 
   56900    -652.0998    78.679109   -573.42069    2387.0121    126266.56    10.472245    0.5367471 
   57000   -653.08524    79.901684   -573.18356    2424.1033    126186.85    10.472245   0.48935733 
   57100   -642.11396    81.735472   -560.37849    2479.7378    139811.41    10.472245   0.55963913 
   57200   -651.33925    81.588315   -569.75093    2475.2732    127096.02    10.472245    0.5504827 
   57300   -654.41303    85.952627   -568.46041    2607.6802    125845.23    10.472245   0.45769412 
   57400   -649.06922    76.042275   -573.02695    2307.0143    131552.66    10.472245   0.51403297 
   57500   -650.79069    85.731221   -565.05947    2600.9631     129543.1    10.472245   0.52265358 
   57600   -639.65655    74.517301   -565.13925    2260.7487    141934.05    10.472245   0.50846472 
   57700   -650.84934    76.241374   -574.60797    2313.0546    129628.64    10.472245   0.56145442 
   57800   -646.87452    83.391076   -563.48345    2529.9664     135277.2    10.472245   0.52861546 
   57900   -651.46482    76.813738   -574.65108    2330.4194    128524.23    10.472245   0.47538074 
   58000    -653.5576     80.61012   -572.94748    2445.5962    124581.32    10.472245   0.47664729 
   58100   -642.13518      79.8426   -562.29258    2422.3107    139937.63    10.472245   0.50385707 
   58200   -639.74578    81.872779     -557.873    2483.9035    144159.51    10.472245   0.64754054 
   58300   -650.69754    79.173662   -571.52388    2402.0161    130014.56    10.472245   0.53315788 
   58400   -643.20737    79.554112   -563.65326    2413.5584    138035.79    10.472245   0.47877717 
   58500   -639.79443    84.860856   -554.93358    2574.5575    144814.07    10.472245   0.56454177 
   58600   -649.45234    79.617116   -569.83522    2415.4699    130638.75    10.472245   0.53159111 
   58700   -642.45648    82.883339   -559.57314    2514.5624    139301.65    10.472245   0.62435105 
   58800   -643.18812     80.73488   -562.45324    2449.3812    140223.27    10.472245   0.69386376 
   58900   -652.86036    73.464925   -579.39544    2228.8211    124008.72    10.472245   0.70288137 
   59000   -648.43775    81.471182   -566.96657    2471.7196     132971.4    10.472245   0.80267793 
   59100   -644.37779    78.711957   -565.66583    2388.0086    137385.09    10.472245   0.79814924 
   59200   -652.31273    72.268637    -580.0441    2192.5275    126329.25    10.472245   0.76600669 
   59300   -652.03502    82.659296   -569.37573    2507.7653    129640.64    10.472245   0.78097587 
   59400   -647.79438    83.748145   -564.04623    2540.7994    133304.39    10.472245   0.77070313 
   59500   -653.37838    74.794803   -578.58358    2269.1678    124439.65    10.472245   0.71581146 
   59600   -647.77416    76.032834   -571.74133    2306.7278    132872.33    10.472245   0.78370507 
   59700   -646.70653    79.560006   -567.14652    2413.7372     134305.4    10.472245   0.81186381 
   59800   -654.17752    70.881684   -583.29584    2150.4493    121346.86    10.472245   0.73530442 
   59900   -649.98718    75.806792   -574.18039    2299.8701    129308.12    10.472245   0.77490363 
   60000   -640.13238    77.059264   -563.07311    2337.8683     141432.7    10.472245   0.82287002 
   60100   -645.38764    80.219775   -565.16787    2433.7537    135374.63    10.472245   0.78474065 
   60200    -658.0944    84.557463   -573.53694    2565.3529    117423.91    10.472245   0.73767041 
   60300   -640.50966    76.457145   -564.05252    2319.6008    139585.42    10.472245   0.77251739 
   60400    -648.3473    80.938812   -567.40848    2455.5682    132026.45    10.472245    0.7462516 
   60500   -649.62922    76.563193   -573.06603    2322.8182    129057.92    10.472245   0.76512279 
   60600    -643.9867    83.809215   -560.17748    2542.6522    137075.24    10.472245   0.79785231 
   60700   -650.70618    80.060765   -570.64542    2428.9295    127958.92    10.472245   0.78479056 
   60800   -649.53786    77.960922   -571.57694    2365.2233    132332.01    10.472245   0.83293346 
   60900   -644.66252    80.939778   -563.72274    2455.5975    137570.45    10.472245   0.79031723 
   61000   -640.44576    83.405572   -557.04019    2530.4062    142528.73    10.472245   0.82391368 
   61100   -646.20898    74.619639   -571.58934    2263.8535    133794.43    10.472245   0.74014399 
   61200   -650.85957    79.798202   -571.06137    2420.9638    127412.29    10.472245   0.74656081 
   61300   -643.08624    86.464241     -556.622    2623.2019    140895.18    10.472245   0.83358557 
   61400   -644.78859    77.876702   -566.91189    2362.6682    136374.12    10.472245   0.78185282 
   61500   -646.90618    75.574723   -571.33146    2292.8294    132896.66    10.472245     0.788535 
   61600   -647.76179    75.051083    -572.7107    2276.9429    131385.51    10.472245   0.79127032 
   61700   -646.49557    81.661157   -564.83441    2477.4831    137521.41    10.472245   0.78330886 
   61800   -650.51556    78.286596   -572.22897    2375.1038    127688.88    10.472245   0.79687663 
   61900   -655.07137    79.779845   -575.29152    2420.4068    122965.18    10.472245   0.70231684 
   62000   -642.05885    83.527726   -558.53113    2534.1122    139021.34    10.472245   0.78902808 
   62100   -644.40559    79.680965   -564.72462    2417.4069    138165.17    10.472245   0.75095407 
   62200   -649.70847    77.208582   -572.49989    2342.3984    130860.57    10.472245   0.75945959 
   62300   -646.21978    86.583984    -559.6358    2626.8347    136487.61    10.472245   0.70663661 
   62400   -647.10584    82.944167   -564.16167    2516.4078    132960.03    10.472245   0.80988787 
   62500   -644.96836     74.13842   -570.82994     2249.254     135221.2    10.472245   0.85285729 
   62600   -643.77721     76.03345   -567.74376    2306.7465    137448.83    10.472245   0.76440655 
   62700    -647.6107    81.968686   -565.64202    2486.8131    135457.93    10.472245   0.73452265 
   62800    -656.5849    78.535292   -578.04961    2382.6489    120920.03    10.472245   0.74136232 
   62900    -645.3492    79.204422   -566.14478    2402.9493    135854.91    10.472245   0.80088615 
   63000   -650.86753     81.10624   -569.76129    2460.6478    127250.31    10.472245   0.76127557 
   63100   -647.63867    74.632871    -573.0058     2264.255    131437.52    10.472245   0.76369659 
   63200   -645.43825    84.881491   -560.55676    2575.1835       137844    10.472245   0.77130763 
   63300   -645.38192    74.685016   -570.69691     2265.837    134225.82    10.472245   0.79975479 
   63400   -654.97394    82.619434   -572.35451    2506.5559    124051.69    10.472245   0.72876874 
   63500    -654.2424     83.27638   -570.96602    2526.4867    124781.35    10.472245   0.71236449 
   63600   -647.11713    76.221873   -570.89526     2312.463    130578.51    10.472245   0.81496688 
   63700   -648.26312    85.393733   -562.86939    2590.7242     134548.3    10.472245   0.77632329 
   63800   -656.18632    79.632833   -576.55349    2415.9467    122531.68    10.472245   0.74249208 
   63900   -656.85626      84.2363   -572.61996    2555.6093    122251.92    10.472245   0.70037572 
   64000   -652.48894    82.887144    -569.6018    2514.6779    127312.18    10.472245   0.76773307 
   64100   -648.63632    78.850947   -569.78537    2392.2254    131331.35    10.472245   0.75869893 
   64200   -653.40485    84.607576   -568.79728    2566.8733    125925.95    10.472245   0.71655516 
   64300   -652.19159    78.577007   -573.61458    2383.9144    126697.23    10.472245   0.74010878 
   64400   -651.24178    79.799037   -571.44275    2420.9891    128507.83    10.472245   0.75074235 
   64500    -649.2391     85.83462   -563.40448    2604.1001    132970.89    10.472245   0.74460991 
   64600   -649.45211    77.429434   -572.02268    2349.0987    129608.94    10.472245   0.71286298 
   64700   -650.06416    78.193723   -571.87043    2372.2861    131216.08    10.472245   0.72820621 
   64800   -642.64894    87.367945     -555.281     2650.619    140872.01    10.472245   0.82341885 
   64900   -648.86372    83.590889   -565.27283    2536.0285    132212.35    10.472245   0.77937592 
   65000   -651.95534    79.718839    -572.2365     2418.556     126704.5    10.472245   0.72742229 
   65100   -650.55028    74.886216   -575.66407    2271.9411     127305.7    10.472245    0.8221344 
   65200   -645.14604    82.891509   -562.25454    2514.8103    138457.44    10.472245   0.78380022 
   65300   -655.65676    82.531456    -573.1253    2503.8868    123360.82    10.472245    0.7483149 
   65400   -656.65806    68.705407   -587.95265    2084.4241    118441.85    10.472245    0.7264856 
   65500   -658.02326    76.888843   -581.13442    2332.6979    117707.25    10.472245   0.70670456 
   65600   -652.73342     84.76657   -567.96685     2571.697    126909.93    10.472245   0.76660489 
   65700   -650.03644    82.017486   -568.01896    2488.2937     130510.6    10.472245   0.84717364 
   65800   -649.06901    69.364841   -579.70417    2104.4305    128030.95    10.472245   0.76697984 
   65900   -649.92278    80.185408   -569.73737     2432.711    128720.77    10.472245   0.86777356 
   66000   -647.11337    78.677941   -568.43543    2386.9766    134542.27    10.472245     0.716826 
   66100   -648.44478     68.02198    -580.4228      2063.69     128587.9    10.472245   0.76631061 
   66200   -647.20402    77.725803   -569.47821    2358.0901    132850.38    10.472245   0.73880655 
   66300   -651.03627    79.125694   -571.91058    2400.5608    126952.87    10.472245    0.7233195 
   66400   -655.87991    76.406082   -579.47383    2318.0517    122079.64    10.472245   0.69343198 
   66500   -643.86361    74.138604     -569.725    2249.2596    137577.87    10.472245   0.78198089 
   66600   -646.29438    80.296816   -565.99756     2436.091    135413.34    10.472245   0.82852099 
   66700   -653.31194    74.778721   -578.53321    2268.6798    124728.75    10.472245   0.81989189 
   66800    -639.9774    78.213835   -561.76356    2372.8963    143074.03    10.472245   0.79223995 
   66900   -644.62219    77.826063   -566.79613    2361.1319    136838.85    10.472245   0.77064455 
   67000   -647.95332    69.446225   -578.50709    2106.8995    130736.83    10.472245   0.82384584 
   67100   -643.50398    76.447673   -567.05631    2319.3135    138220.05    10.472245   0.67913304 
   67200   -651.53096    82.074473   -569.45649    2490.0226    129771.16    10.472245   0.68267248 
   67300    -653.0773    77.045187   -576.03211    2337.4412    123889.62    10.472245   0.73612823 
   67400   -648.80834    78.483025   -570.32532    2381.0631    131105.43    10.472245   0.76590589 
   67500   -649.33452    80.743216    -568.5913    2449.6341    130302.23    10.472245   0.74753093 
   67600   -653.33665     72.08972   -581.24693    2187.0994    122262.26    10.472245   0.72075811 
   67700   -652.35468    73.102981    -579.2517    2217.8403    123758.85    10.472245   0.72172582 
   67800   -650.44777    79.477322   -570.97045    2411.2287    129532.22    10.472245    0.6662296 
   67900   -646.58263    81.839841   -564.74279    2482.9042     135232.9    10.472245   0.76395147 
   68000    -642.9222     87.51957   -555.40263    2655.2191    142230.76    10.472245   0.87121676 
   68100   -651.62404    80.386071   -571.23797    2438.7988    128339.07    10.472245   0.82533639 
   68200   -645.34814    79.302022   -566.04612    2405.9104    134503.35    10.472245   0.74542493 
   68300   -652.87902    80.013513   -572.86551     2427.496    127525.55    10.472245   0.73365171 
   68400   -652.86209    75.774058   -577.08804     2298.877    125862.92    10.472245   0.73250631 
   68500   -644.11023    77.927133    -566.1831    2364.1982    136606.56    10.472245   0.72583031 
   68600   -642.85201    73.711189   -569.14083    2236.2924    136704.65    10.472245   0.80379599 
   68700   -645.19466    79.517252    -565.6774    2412.4401    135553.42    10.472245   0.74960017 
   68800   -639.86553    73.514411   -566.35112    2230.3225    140158.63    10.472245   0.79154897 
   68900   -647.81353    75.450094   -572.36344    2289.0484    131647.41    10.472245   0.76965132 
   69000   -653.87668    68.870691   -585.00599    2089.4386    123630.61    10.472245   0.78236325 
   69100    -649.7007    80.693224   -569.00748    2448.1174    130922.47    10.472245   0.82069858 
   69200   -646.84708    81.180143   -565.66694    2462.8899    134817.76    10.472245   0.73446672 
   69300   -649.92407    72.599408   -577.32466    2202.5626    129449.57    10.472245   0.76700275 
   69400   -649.83194    84.695322   -565.13662    2569.5354    132406.93    10.472245   0.75134343 
   69500   -648.33429    81.987791    -566.3465    2487.3928     130918.1    10.472245    0.7729329 
   69600   -655.58247    79.686363   -575.89611    2417.5707    123525.21    10.472245   0.77347771 
   69700   -649.17778    88.228048   -560.94973    2676.7133    134336.48    10.472245   0.73175039 
   69800   -644.37068     77.66479   -566.70589    2356.2391     137556.5    10.472245   0.72053614 
   69900   -651.56025    77.766379   -573.79387    2359.3211    126609.18    10.472245   0.75890003 
   70000   -658.15266    73.927193   -584.22547    2242.8457     117462.1    10.472245   0.73189462 
   70100   -649.71989    80.315771   -569.40412    2436.6661    129383.58    10.472245   0.66694002 
   70200   -647.73819    78.963677   -568.77451    2395.6455    130845.69    10.472245   0.74157462 
   70300   -650.85625    69.724442   -581.13181    2115.3402    125934.94    10.472245   0.71898227 
   70400   -648.51387    77.573838   -570.94003    2353.4797    133216.44    10.472245   0.70308597 
   70500   -653.76274     83.48379   -570.27895    2532.7793    125307.51    10.472245   0.78095246 
   70600   -649.33617    77.814446   -571.52172    2360.7794    129869.97    10.472245    0.7717336 
   70700      -646.55    71.800181   -574.74982    2178.3152    131100.98    10.472245    0.7810532 
   70800   -646.95988    85.282899   -561.67698    2587.3617    135500.39    10.472245   0.85047298 
   70900   -647.29545    77.859245   -569.43621    2362.1386    133370.78    10.472245   0.80487917 
   71000   -658.33138    75.233241   -583.09814    2282.4693    117563.17    10.472245   0.70445475 
   71100   -647.28358    80.101125   -567.18245     2430.154    134702.48    10.472245   0.75931799 
   71200   -644.88365    78.690109   -566.19354    2387.3458    137310.15    10.472245   0.77163516 
   71300   -653.13323    74.877601   -578.25563    2271.6797    125961.56    10.472245   0.72341938 
   71400   -653.76866     84.52748   -569.24118    2564.4433    125228.67    10.472245   0.80209072 
   71500    -648.3404    81.931184   -566.40922    2485.6754    133341.69    10.472245   0.83090167 
   71600   -645.20945    72.790369   -572.41908    2208.3561    135095.94    10.472245   0.82693355 
   71700   -656.88535    86.169867   -570.71548     2614.271    121982.62    10.472245   0.72410645 
   71800   -644.24896    78.967479   -565.28148    2395.7608    136627.31    10.472245   0.74382586 
   71900   -649.78047    71.929394   -577.85108    2182.2353    127868.92    10.472245   0.75192211 
   72000   -651.23815    81.058516   -570.17964    2459.1999     129505.8    10.472245   0.72237261 
   72100   -644.20893    78.604422    -565.6045    2384.7462       136361    10.472245   0.89112513 
   72200   -657.19199    80.491367   -576.70062    2441.9934    119781.52    10.472245   0.71565148 
   72300   -653.04273    77.274961   -575.76777    2344.4122    124074.18    10.472245   0.78393483 
   72400   -650.99394    81.611314   -569.38263     2475.971    129891.35    10.472245   0.75035235 
   72500   -645.21811    76.258709    -568.9594    2313.5806     135404.9    10.472245   0.75741163 
   72600   -655.76387    74.516088   -581.24778    2260.7119    121612.94    10.472245   0.74286227 
   72700    -647.2035    80.292288   -566.91121    2435.9536    135771.71    10.472245    0.7239083 
   72800   -653.57798     82.91168    -570.6663    2515.4222    125879.83    10.472245   0.75566723 
   72900   -651.16216    73.590087   -577.57207    2232.6184    126756.97    10.472245     0.772567 
   73000    -646.7665    78.212853   -568.55365    2372.8665    131549.64    10.472245   0.72490196 
   73100   -644.77074    78.509268   -566.26147    2381.8593    134745.78    10.472245   0.82611549 
   73200   -651.24867    70.917988   -580.33069    2151.5507    126791.66    10.472245    0.7175693 
   73300   -650.60583    79.446446   -571.15939     2410.292    129663.58    10.472245   0.72241281 
   73400   -644.46367    76.335146   -568.12853    2315.8996    134820.78    10.472245   0.76043077 
   73500   -652.36832    78.096809   -574.27151    2369.3459    127470.71    10.472245   0.77351635 
   73600   -646.78248    70.177858   -576.60462    2129.0962    132284.61    10.472245   0.77036699 
   73700   -651.64363    85.771532    -565.8721    2602.1861    129570.96    10.472245   0.73545107 
   73800   -647.78006    76.211592   -571.56847    2312.1511    130924.82    10.472245   0.72810251 
   73900    -655.3942    74.596069   -580.79813    2263.1384    121278.92    10.472245   0.75534115 
   74000    -645.8933    77.203531   -568.68977    2342.2451    134670.84    10.472245   0.80712309 
   74100   -653.34533    83.220458   -570.12488    2524.7901    125602.33    10.472245    0.7002711 
   74200   -653.34911     73.19607   -580.15304    2220.6645    123958.93    10.472245   0.76090839 
   74300    -650.3097    79.470622   -570.83908    2411.0254    128556.24    10.472245   0.77840152 
   74400   -646.35876    79.040602   -567.31815    2397.9792    136212.33    10.472245   0.79152452 
   74500    -651.0744    78.639141   -572.43526    2385.7995    126833.68    10.472245   0.77740579 
   74600   -653.56394    74.968334    -578.5956    2274.4324     125291.5    10.472245   0.75727669 
   74700   -648.14948    81.543454   -566.60602    2473.9122    133049.31    10.472245    0.7314154 
   74800   -648.55753    75.022634    -573.5349    2276.0798    128164.52    10.472245   0.75119624 
   74900   -651.95268    77.976417   -573.97626    2365.6934    127278.09    10.472245   0.78422714 
   75000    -649.2516    85.412994   -563.83861    2591.3085    131431.56    10.472245    0.7762205 
   75100   -653.24019    75.782077   -577.45811    2299.1203    124731.89    10.472245   0.77907485 
   75200   -649.78039    74.673615   -575.10678    2265.4911    128764.13    10.472245   0.74532175 
   75300   -646.26609    77.796524   -568.46957    2360.2357    133712.92    10.472245   0.73928031 
   75400   -644.90247    86.294236   -558.60823    2618.0442    136640.12    10.472245   0.83765599 
   75500   -641.05609     83.32636   -557.72973     2528.003    142535.69    10.472245    0.7540484 
   75600   -644.05256    73.371236   -570.68132    2225.9788    136225.45    10.472245   0.76121123 
   75700   -652.94495    78.971786   -573.97317    2395.8915    126969.08    10.472245    0.7244189 
   75800    -638.9728    77.763522   -561.20928    2359.2345     141699.5    10.472245   0.77037265 
   75900    -646.5209    74.781866   -571.73904    2268.7753    133920.34    10.472245   0.77510744 
   76000   -645.61568      73.5981   -572.01758    2232.8615    134593.05    10.472245   0.76805885 
   76100   -645.06515    85.385996   -559.67916    2590.4895    138345.29    10.472245   0.78551295 
   76200   -645.46471    71.392827   -574.07188    2165.9567     132961.3    10.472245   0.76267588 
   76300   -643.12932    71.994798   -571.13452    2184.2196    135464.83    10.472245   0.78050333 
   76400   -645.61638    84.527724   -561.08865    2564.4507     138301.3    10.472245   0.70974327 
   76500   -652.12317    78.040469    -574.0827    2367.6366    127396.28    10.472245   0.74686795 
   76600   -651.24174    79.738653   -571.50308    2419.1571    128441.65    10.472245   0.75989703 
   76700   -649.13242    88.687961   -560.44446    2690.6664    132020.34    10.472245    0.7632599 
   76800   -655.39217    82.178434   -573.21374    2493.1766    124252.21    10.472245   0.77391453 
   76900   -650.32405    75.744291   -574.57976    2297.9739    127472.01    10.472245   0.74734504 
   77000    -644.3758      74.7958      -569.58     2269.198    135802.83    10.472245   0.80161843 
   77100    -651.0107    79.196874   -571.81383    2402.7203    127264.15    10.472245   0.81761741 
   77200   -655.22886    74.300694   -580.92816    2254.1772    122224.16    10.472245   0.73611822 
   77300   -653.80123    81.288476   -572.51275    2466.1765    124200.63    10.472245   0.73795848 
   77400   -647.42807     82.58612   -564.84195    2505.5452     132818.2    10.472245   0.73692807 
   77500   -654.44856    76.985989   -577.46257    2335.6452     123429.8    10.472245   0.77117368 
   77600   -646.91466    72.177805   -574.73686    2189.7718    132188.28    10.472245    0.7343733 
   77700   -642.95875    76.711698   -566.24705    2327.3236    137284.75    10.472245   0.75213826 
   77800   -642.74399    83.638082   -559.10591    2537.4602       139840    10.472245   0.76942093 
   77900   -643.95257    71.256145   -572.69642    2161.8099    137024.11    10.472245   0.78719349 
   78000   -640.03562     66.56011   -573.47551    2019.3389    138907.44    10.472245   0.81264014 
[...]
  481400   -613.39717      77.1459   -536.25127    2340.4967     177872.3    10.472245     4174.171 
  481500   -621.47303    72.952405   -548.52062     2213.272    166478.37    10.472245    4170.2407 
  481600   -616.25852    81.810407   -534.44811    2482.0112    175325.94    10.472245    4170.8165 
  481700   -620.05426    79.061054   -540.99321    2398.5997    170640.49    10.472245    4160.5417 
  481800   -619.77709    81.781716   -537.99537    2481.1407    168671.47    10.472245    4163.5894 
  481900   -608.10743    78.008685   -530.09875    2366.6723    185334.62    10.472245    4165.4695 
  482000   -617.48347    73.092271    -544.3912    2217.5154    176238.23    10.472245    4163.7736 
  482100   -616.72354    78.242627   -538.48092    2373.7698    172367.43    10.472245    4168.7071 
  482200   -617.01782    82.240806   -534.77701    2495.0689    176415.54    10.472245    4178.4528 
  482300   -623.81239     78.71877   -545.09362    2388.2153    167239.41    10.472245    4182.3237 
  482400   -613.23536    77.301984   -535.93338    2345.2321    176582.95    10.472245    4183.7769 
  482500   -617.11465    80.406901   -536.70775    2439.4308    173232.59    10.472245    4192.2892 
  482600   -613.92863    70.525305   -543.40332    2139.6373     173621.7    10.472245    4196.3768 
  482700   -618.59701    87.059857   -531.53715     2641.272    174900.43    10.472245    4203.5803 
  482800   -618.90146    77.849928   -541.05154    2361.8559    172154.69    10.472245    4198.3088 
  482900   -617.19985    76.170512   -541.02934    2310.9048    177128.26    10.472245    4195.0473 
  483000   -611.02108    81.374311   -529.64677    2468.7807    179238.49    10.472245    4197.5378 
  483100   -618.59363    78.289557   -540.30408    2375.1936    168519.67    10.472245     4205.753 
  483200   -614.18702    76.613427   -537.57359    2324.3422    176841.28    10.472245     4202.487 
  483300   -612.20271    81.445652   -530.75706     2470.945    179085.15    10.472245    4199.5579 
  483400   -624.49818    81.649613   -542.84856    2477.1329    163428.75    10.472245    4202.9586 
  483500   -618.22383    76.169426    -542.0544    2310.8719    171809.54    10.472245    4201.5219 
  483600   -613.66149    82.604039   -531.05745    2506.0888    183332.71    10.472245    4202.2571 
  483700   -618.04349    84.161955   -533.88153    2553.3538    174223.16    10.472245    4200.2864 
  483800   -619.29138    79.141369   -540.15001    2401.0364    170629.59    10.472245    4199.7991 
  483900   -622.16591    79.032993   -543.13292    2397.7484    166309.16    10.472245    4198.9967 
  484000   -619.83928      88.2999   -531.53938    2678.8932    169803.58    10.472245    4195.3215 
  484100   -615.73046    74.914724   -540.81574     2272.806    171737.62    10.472245    4194.5592 
  484200   -619.76354    80.789518   -538.97402    2451.0389    172244.67    10.472245    4201.8834 
  484300   -615.31085    89.517167   -525.79368    2715.8233    178085.58    10.472245    4203.3785 
  484400   -615.42444    76.266015   -539.15843    2313.8022    172571.71    10.472245    4192.9539 
  484500   -615.92711    74.355466   -541.57164    2255.8389    174599.93    10.472245    4200.8162 
  484600   -614.13766    83.630509   -530.50715    2537.2305    179945.61    10.472245    4201.4278 
  484700   -622.30667    79.386785   -542.91988    2408.4819    167387.93    10.472245    4201.5024 
  484800   -619.95004    82.607148   -537.34289    2506.1832    169349.27    10.472245    4204.1526 
  484900    -614.6316    87.006286   -527.62532    2639.6468    178899.47    10.472245    4203.3197 
  485000   -619.83447     77.34821   -542.48626    2346.6345    169211.11    10.472245    4202.7177 
  485100    -619.2718    78.507577   -540.76422     2381.808    171120.19    10.472245    4199.9995 
  485200   -612.12511    82.447424   -529.67769    2501.3374    178905.58    10.472245    4211.6149 
  485300   -618.24435    73.835298   -544.40905    2240.0577    175387.45    10.472245     4200.884 
  485400    -612.4428    76.039611   -536.40319    2306.9334     178147.1    10.472245    4203.9355 
  485500   -611.30915    79.026944    -532.2822    2397.5649    179388.35    10.472245    4205.0446 
  485600    -618.1059    73.267047   -544.83886    2222.8178    171283.69    10.472245    4207.1917 
  485700   -614.63554    81.427644    -533.2079    2470.3987    178734.53    10.472245     4213.807 
  485800   -608.66181    73.099791   -535.56202    2217.7435    181656.53    10.472245    4213.8965 
  485900   -616.22241    77.997319   -538.22509    2366.3275    172480.62    10.472245    4212.1785 
  486000   -617.06145    82.205278   -534.85617     2493.991    174790.42    10.472245    4214.2631 
  486100   -624.32594    75.565191   -548.76074    2292.5402    163617.69    10.472245    4219.1542 
  486200    -624.5347     82.33954   -542.19516    2498.0643    166746.17    10.472245    4215.2285 
  486300   -618.53063    81.307103   -537.22353    2466.7417    172207.14    10.472245    4226.2535 
  486400   -618.25912    77.834931   -540.42419    2361.4009    171393.34    10.472245    4221.0411 
  486500   -626.16018    73.828693   -552.33149    2239.8573    161150.43    10.472245    4220.9233 
  486600    -621.5546    82.030382   -539.52422    2488.6849    168795.28    10.472245    4219.8218 
  486700   -614.76961     80.81756   -533.95205    2451.8896    175923.68    10.472245    4220.6952 
  486800   -609.78752    74.063353   -535.72417    2246.9766    179728.03    10.472245    4225.4511 
  486900   -621.58098       75.549   -546.03198     2292.049    168130.13    10.472245    4222.5511 
  487000    -614.4366    79.608682   -534.82792     2415.214    176275.39    10.472245    4224.3493 
  487100   -615.47069    80.105212   -535.36548     2430.278    177430.28    10.472245    4217.4951 
  487200   -622.07704    74.704351   -547.37269    2266.4236    163800.02    10.472245     4218.235 
  487300   -610.95871    75.733544   -535.22516    2297.6478    179282.17    10.472245    4216.6816 
  487400   -616.06285     78.27794   -537.78491    2374.8412    173348.58    10.472245    4211.9904 
  487500   -616.83493    78.232707   -538.60223    2373.4689    172267.61    10.472245    4208.1594 
  487600   -620.19402    75.027525    -545.1665    2276.2282    171821.59    10.472245    4200.3034 
  487700     -623.544     79.03685   -544.50715    2397.8654       162057    10.472245     4197.274 
  487800   -618.11116    80.391293   -537.71986    2438.9573    172524.24    10.472245     4200.981 
  487900   -630.96432    76.083714   -554.88061    2308.2715    155172.33    10.472245    4205.6249 
  488000   -618.25102    73.309743   -544.94128    2224.1132     170585.1    10.472245    4192.1282 
  488100   -620.31242    85.009396   -535.30302    2579.0639    171135.41    10.472245      4203.36 
  488200   -623.98135    83.074261   -540.90709    2520.3547    164921.85    10.472245    4206.1038 
  488300   -622.95762    78.352363   -544.60526    2377.0991     165022.6    10.472245    4208.3699 
  488400   -615.40727    80.293965   -535.11331    2436.0045    174230.18    10.472245    4207.7132 
  488500    -621.4236    76.168969   -545.25463     2310.858    168671.92    10.472245    4211.7545 
  488600   -624.34896    78.795708   -545.55325    2390.5495    165184.91    10.472245    4202.7581 
  488700    -614.3569    81.692312   -532.66459    2478.4284    176782.81    10.472245    4201.7704 
  488800   -618.85677    79.694932   -539.16183    2417.8307    171492.39    10.472245    4210.2938 
  488900   -618.78325    76.871572   -541.91168     2332.174    171115.49    10.472245    4219.2983 
  489000   -613.61517    81.212214   -532.40296    2463.8629    178274.42    10.472245    4207.0621 
  489100   -620.49653    79.252004   -541.24452    2404.3929     170772.2    10.472245    4199.8671 
  489200     -617.162    83.588816   -533.57318    2535.9656    174698.08    10.472245    4200.3743 
  489300   -622.23571    85.677253   -536.55846    2599.3258    168129.85    10.472245    4198.3419 
  489400   -619.12927    77.119718   -542.00955    2339.7023    169427.85    10.472245    4196.2986 
  489500   -618.47114    85.975044    -532.4961    2608.3603    175124.12    10.472245    4195.0683 
  489600   -621.08469    74.717119   -546.36757    2266.8109    166034.05    10.472245    4203.1941 
  489700   -620.70464     81.83464      -538.87    2482.7464    169438.71    10.472245    4208.9229 
  489800    -619.7814    83.480717   -536.30068     2532.686     172414.5    10.472245    4215.6063 
  489900   -626.87213    74.850774   -552.02136    2270.8658    160419.87    10.472245    4225.2797 
  490000    -622.8342      74.7025    -548.1317    2266.3674    165199.18    10.472245    4222.6857 
  490100   -614.57732    77.068558   -537.50877    2338.1503     178268.5    10.472245    4221.9947 
  490200   -613.67112    78.481373   -535.18975     2381.013    179352.49    10.472245    4227.0341 
  490300   -617.62658    71.378438   -546.24814    2165.5201    171700.33    10.472245    4227.4972 
  490400   -617.23959     84.08044   -533.15915    2550.8807    173806.68    10.472245    4231.0817 
  490500   -607.29764    70.506543    -536.7911    2139.0681    186111.96    10.472245    4239.1566 
  490600     -613.094    73.579032   -539.51496     2232.283    178958.92    10.472245    4250.9469 
  490700   -620.78466    78.487831   -542.29683     2381.209    167550.63    10.472245    4260.3927 
  490800   -618.24704    86.784552   -531.46249    2632.9196    172843.81    10.472245    4259.8768 
  490900   -618.67834    74.609695   -544.06865    2263.5518    170374.47    10.472245    4261.1072 
  491000   -618.63083    73.273901   -545.35693    2223.0257    170318.49    10.472245    4262.9124 
  491100    -612.0253    75.710042   -536.31526    2296.9348    177477.36    10.472245     4264.146 
  491200   -615.70686    74.553993   -541.15287    2261.8619    174148.87    10.472245    4264.2785 
  491300   -620.76856    76.457973   -544.31059     2319.626    168343.25    10.472245    4265.5025 
  491400   -616.12541    83.856816   -532.26859    2544.0963    176084.87    10.472245    4265.0509 
  491500   -619.33329    75.442244   -543.89105    2288.8102     170185.9    10.472245     4267.923 
  491600   -619.19823    83.025447   -536.17278    2518.8738     172816.7    10.472245    4268.9719 
  491700    -616.9714    83.775778   -533.19562    2541.6377    177198.16    10.472245    4266.9372 
  491800   -622.63712     79.67693   -542.96019    2417.2845    165802.72    10.472245    4261.7327 
  491900   -619.23564    78.520991   -540.71465     2382.215    169948.53    10.472245    4266.8462 
  492000   -606.87518    72.451004   -534.42418    2198.0602     184943.4    10.472245    4272.4571 
  492100   -604.15062    83.654489   -520.49613     2537.958    190550.17    10.472245    4270.8804 
  492200   -615.83433    78.653562   -537.18077     2386.237    175944.03    10.472245    4277.7979 
  492300   -619.03413    76.623374   -542.41076     2324.644    169737.58    10.472245    4279.2384 
  492400   -621.87292    86.048462   -535.82445    2610.5877     169572.1    10.472245    4278.1916 
  492500   -618.90454    86.204644    -532.6999    2615.3261    171494.94    10.472245    4284.3865 
  492600   -615.86001    71.004931   -544.85508    2154.1884    173941.59    10.472245    4287.7384 
  492700   -618.13461    81.481443   -536.65317    2472.0309     173159.7    10.472245    4284.8293 
  492800   -610.20929    82.946644   -527.26265     2516.483    182448.56    10.472245    4286.7914 
  492900   -622.39807    83.767791   -538.63028    2541.3954    170401.74    10.472245     4288.882 
  493000   -615.68118    76.181016   -539.50017    2311.2235    172482.82    10.472245     4285.712 
  493100   -619.11162    84.386903   -534.72471    2560.1784    173361.14    10.472245    4283.0809 
  493200   -614.00614    74.424675   -539.58147    2257.9386     173504.5    10.472245    4283.0366 
  493300   -621.69972    69.860686   -551.83903    2119.4737    163634.54    10.472245    4282.6935 
  493400   -612.32968    72.917507   -539.41218    2212.2133    175796.74    10.472245    4283.2646 
  493500   -616.30992    82.811575   -533.49834    2512.3852    177483.65    10.472245    4277.8644 
  493600   -613.06931    73.380212    -539.6891    2226.2511    180534.63    10.472245    4279.5494 
  493700   -617.27855    80.053211   -537.22534    2428.7003    174219.76    10.472245    4276.4348 
  493800   -616.31789     73.25625   -543.06164    2222.4902     175315.7    10.472245     4278.194 
  493900   -618.10081    85.376668   -532.72414    2590.2065    172277.06    10.472245     4283.475 
  494000   -618.82823    76.210964   -542.61727    2312.1321    170102.18    10.472245    4290.1674 
  494100   -619.42882    70.398934   -549.02988    2135.8034    168611.34    10.472245    4287.7838 
  494200     -612.484    71.699009   -540.78499    2175.2458    175756.76    10.472245    4289.5258 
  494300   -619.69298    81.553105   -538.13987     2474.205    170279.01    10.472245    4290.9188 
  494400   -618.52044    71.566175   -546.95426    2171.2158    170389.66    10.472245    4288.8658 
  494500   -612.42535    78.622466   -533.80288    2385.2936    178263.72    10.472245    4286.4582 
  494600   -615.79957     76.86188   -538.93769    2331.8799    176112.36    10.472245     4283.226 
  494700    -617.7302     64.01725   -553.71295    1942.1922       170585    10.472245    4282.0117 
  494800   -616.69817    75.845258   -540.85292    2301.0371    175697.65    10.472245    4291.6347 
  494900   -619.59192    85.152963   -534.43896    2583.4196    171881.85    10.472245    4290.3219 
  495000   -619.16876    72.502847   -546.66591    2199.6331    168529.69    10.472245    4291.1385 
  495100   -613.54462    73.665782   -539.87884    2234.9149    178357.89    10.472245     4301.681 
  495200   -616.04256    81.050275   -534.99229    2458.9499    175381.88    10.472245    4300.4374 
  495300   -614.35556     74.75349   -539.60207    2267.9144    173393.55    10.472245     4293.274 
  495400   -616.97093    72.990062   -543.98086    2214.4145    171785.11    10.472245     4284.076 
  495500     -615.745    83.008671   -532.73633    2518.3648    174779.69    10.472245    4291.1916 
  495600     -618.446    81.492073   -536.95392    2472.3534    171709.91    10.472245    4302.4304 
  495700    -614.4834    75.467147   -539.01626    2289.5657    177822.21    10.472245    4298.1681 
  495800   -609.79392    81.965186   -527.82873     2486.707    185065.61    10.472245      4295.23 
  495900   -622.09195    83.886932   -538.20501      2545.01    168750.21    10.472245    4293.3525 
  496000   -616.80698    77.877537   -538.92944    2362.6935    174574.56    10.472245    4300.0704 
  496100   -606.59751    81.274995   -525.32251    2465.7675    185633.53    10.472245     4301.406 
  496200   -616.98138    76.596363   -540.38501    2323.8245    172441.15    10.472245    4305.5573 
  496300   -614.63606    78.713563   -535.92249    2388.0573    176178.63    10.472245    4308.9681 
  496400   -617.05144    80.389776   -536.66166    2438.9113    173992.41    10.472245    4299.1148 
  496500   -623.78321    77.430527   -546.35268    2349.1319    166491.72    10.472245    4305.4757 
  496600   -619.91216    83.410718   -536.50144    2530.5623    170569.64    10.472245    4310.8838 
  496700   -609.59975     71.13715    -538.4626    2158.1998    180695.72    10.472245    4315.9444 
  496800    -617.9612    72.687543   -545.27366    2205.2365    171082.37    10.472245    4312.5953 
  496900   -614.52725    81.789975   -532.73727    2481.3913    174333.53    10.472245    4313.9838 
  497000   -615.75639    79.388253   -536.36814    2408.5265    178844.04    10.472245    4325.2164 
  497100   -621.12055    72.026971   -549.09358    2185.1957    165631.45    10.472245    4324.6067 
  497200   -616.88269    79.109461   -537.77323    2400.0683    174029.48    10.472245    4326.0764 
  497300   -617.98445    81.691133   -536.29331    2478.3926    175985.48    10.472245    4338.0692 
  497400   -627.36475    80.127067   -547.23769    2430.9411    160373.21    10.472245    4340.4805 
  497500   -622.91671    80.765391   -542.15132    2450.3069    167107.77    10.472245    4338.2565 
  497600   -619.76806    80.312422   -539.45564    2436.5645    171353.67    10.472245    4336.7803 
  497700   -620.84252     78.56021   -542.28231    2383.4048    167613.57    10.472245    4343.9601 
  497800   -623.22933    75.873839    -547.3555    2301.9042    166025.46    10.472245    4338.5617 
  497900    -619.2736    85.001653   -534.27194     2578.829    170501.77    10.472245     4343.357 
  498000   -616.63588    74.427936   -542.20794    2258.0375    173136.37    10.472245    4353.5761 
  498100   -612.75608    80.143387    -532.6127    2431.4362    178825.37    10.472245     4347.348 
  498200   -618.66382    83.849757   -534.81406    2543.8821    171387.37    10.472245    4342.5349 
  498300   -618.27013    75.688586   -542.58154    2296.2838    171128.54    10.472245    4339.3949 
  498400   -608.84378    77.971321   -530.87246    2365.5388    184701.29    10.472245    4346.8197 
  498500   -609.31275    79.634848    -529.6779    2416.0078       185036    10.472245    4339.4406 
  498600   -614.95605    75.797471   -539.15858    2299.5873    175059.07    10.472245    4348.4129 
  498700   -614.03785    73.484022   -540.55383    2229.4005    175717.45    10.472245    4334.1393 
  498800   -613.72943    90.035684   -523.69375    2731.5544    183553.21    10.472245    4341.2371 
  498900   -618.26025    84.410093   -533.85016     2560.882    174470.59    10.472245    4339.1628 
  499000   -615.35817    71.598313   -543.75985    2172.1908    175882.55    10.472245    4333.2776 
  499100   -610.50597    80.334244   -530.17173    2437.2265    180920.39    10.472245    4336.1105 
  499200   -619.98446     83.75352   -536.23094    2540.9625    170629.76    10.472245    4332.6347 
  499300   -621.88609    79.738318   -542.14777    2419.1469    168749.84    10.472245    4336.5221 
  499400   -616.88886    90.791555   -526.09731    2754.4864    174740.18    10.472245    4340.8433 
  499500   -616.64891    79.740491   -536.90842    2419.2129    173994.36    10.472245    4332.8015 
  499600   -616.76123    76.428344   -540.33289    2318.7271    172053.75    10.472245     4337.395 
  499700   -610.48784    84.506611   -525.98123    2563.8102    181217.69    10.472245    4330.8963 
  499800   -615.20486    80.610841   -534.59402    2445.6181    177415.54    10.472245    4332.6477 
  499900   -612.77876    74.417475   -538.36128    2257.7202    175914.99    10.472245      4343.52 
  500000   -611.17446    85.758139   -525.41632    2601.7798    182782.83    10.472245    4347.6173 
Loop time of 371.913 on 1 procs for 500000 steps with 256 atoms

Performance: 580.782 ns/day, 0.041 hours/ns, 1344.402 timesteps/s
100.0% CPU use with 1 MPI tasks x no OpenMP threads

MPI task timing breakdown:
Section |  min time  |  avg time  |  max time  |%varavg| %total
---------------------------------------------------------------
Pair    | 221.43     | 221.43     | 221.43     |   0.0 | 59.54
Neigh   | 18.529     | 18.529     | 18.529     |   0.0 |  4.98
Comm    | 4.2988     | 4.2988     | 4.2988     |   0.0 |  1.16
Output  | 0.13538    | 0.13538    | 0.13538    |   0.0 |  0.04
Modify  | 126.79     | 126.79     | 126.79     |   0.0 | 34.09
Other   |            | 0.7219     |            |       |  0.19

Nlocal:    256 ave 256 max 256 min
Histogram: 1 0 0 0 0 0 0 0 0 0
Nghost:    1571 ave 1571 max 1571 min
Histogram: 1 0 0 0 0 0 0 0 0 0
Neighs:    13463 ave 13463 max 13463 min
Histogram: 1 0 0 0 0 0 0 0 0 0

Total # of neighbors = 13463
Ave neighs/atom = 52.5898
Neighbor list builds = 33647
Dangerous builds = 114
Total wall time: 0:06:11
