LAMMPS (3 Mar 2020)

# ---------- 1. Initialize simulation ----------
units metal
atom_style atomic
dimension 3
boundary p p p
read_data /home/modeler/RemLabs/Project/arrhenius_4/T1400.0/n3_T1400.0_timestep3.000000e-03_eqsteps3200_time600_rseed3336/20201205-111508/lammps.data
  orthogonal box = (0 0 0) to (17.469 17.469 17.469)
  1 by 1 by 1 MPI processor grid
  reading atoms ...
  217 atoms
  read_data CPU = 0.00107827 secs

pair_style meam/c
pair_coeff * * library.meam Li Si LiSi.meam Li Si
Reading potential file library.meam with DATE: 2012-06-29
Reading potential file LiSi.meam with DATE: 2020-11-07

group Li type 1
1 atoms in group Li
group Si type 2
216 atoms in group Si

velocity all create 1400.0 3336 dist gaussian

# ---------- 2. Specify equilibration ensemble  ----------
fix 1 all npt temp 1400.0 1400.0 0.15 tchain 2 iso 1.0 1.0 1.0 pchain 2
# fix 1 all nvt temp 1400.0 1400.0 0.15

# ---------- 3. Run equilibration -------------
timestep 0.003
run 3200
Neighbor list info ...
  update every 1 steps, delay 10 steps, check yes
  max neighbors/atom: 2000, page size: 100000
  master list distance cutoff = 6
  ghost atom cutoff = 6
  binsize = 3, bins = 6 6 6
  2 neighbor lists, perpetual/occasional/extra = 2 0 0
  (1) pair meam/c, perpetual
      attributes: full, newton on
      pair build: full/bin/atomonly
      stencil: full/bin/3d
      bin: standard
  (2) pair meam/c, perpetual, half/full from (1)
      attributes: half, newton on
      pair build: halffull/newton
      stencil: none
      bin: none
Per MPI rank memory allocation (min/avg/max) = 8.895 | 8.895 | 8.895 Mbytes
Step Temp E_pair E_mol TotEng Press Volume 
       0         1400   -951.04357            0    -911.9553   -116399.41    5330.9442 
    3200    1389.7183   -952.43901            0   -913.63781     9366.723      4556.38 
Loop time of 2.32717 on 1 procs for 3200 steps with 217 atoms

Performance: 356.416 ns/day, 0.067 hours/ns, 1375.063 timesteps/s
100.0% CPU use with 1 MPI tasks x no OpenMP threads

MPI task timing breakdown:
Section |  min time  |  avg time  |  max time  |%varavg| %total
---------------------------------------------------------------
Pair    | 2.2753     | 2.2753     | 2.2753     |   0.0 | 97.77
Neigh   | 0.0047016  | 0.0047016  | 0.0047016  |   0.0 |  0.20
Comm    | 0.013442   | 0.013442   | 0.013442   |   0.0 |  0.58
Output  | 2.7126e-05 | 2.7126e-05 | 2.7126e-05 |   0.0 |  0.00
Modify  | 0.029091   | 0.029091   | 0.029091   |   0.0 |  1.25
Other   |            | 0.004654   |            |       |  0.20

Nlocal:    217 ave 217 max 217 min
Histogram: 1 0 0 0 0 0 0 0 0 0
Nghost:    957 ave 957 max 957 min
Histogram: 1 0 0 0 0 0 0 0 0 0
Neighs:    4207 ave 4207 max 4207 min
Histogram: 1 0 0 0 0 0 0 0 0 0
FullNghs:  8414 ave 8414 max 8414 min
Histogram: 1 0 0 0 0 0 0 0 0 0

Total # of neighbors = 8414
Ave neighs/atom = 38.7742
Neighbor list builds = 8
Dangerous builds = 0

# ---------- 4. Describe computed properties----------
compute msdli Li msd
compute msdsi Si msd
thermo_style custom step pe ke etotal temp press density c_msdli[4] c_msdsi[4]
thermo 100

# ---------- 3. Run production -------------
timestep 0.003
run 200000
Per MPI rank memory allocation (min/avg/max) = 9.666 | 9.666 | 9.666 Mbytes
Step PotEng KinEng TotEng Temp Press Density c_msdli[4] c_msdsi[4] 
    3200   -952.43901    38.801199   -913.63781    1389.7183     9366.723    2.2134476            0 2.9045877e-32 
    3300   -952.33575    35.481385   -916.85437    1270.8145    2783.9434    2.1989899   0.14192253  0.083662227 
    3400   -958.57313    36.946906   -921.62622    1323.3042   -7350.5028     2.186659    0.1579813  0.089120395 
    3500   -955.04227    40.147104   -914.89516    1437.9237   -6659.2648    2.1791695  0.074904655   0.10496991 
    3600   -953.56125    38.868642   -914.69261    1392.1338    2769.6795    2.2013164   0.14571895   0.10768298 
    3700   -958.08412    37.323244   -920.76088    1336.7833    7586.0422     2.222117   0.24628994  0.082393528 
    3800   -956.92595    40.662392   -916.26356    1456.3794    923.59393    2.1999069   0.18105833  0.096210528 
    3900    -952.7056    38.587016   -914.11859     1382.047   -3959.2971    2.1799185  0.091962008   0.11313726 
    4000   -955.42744    38.793733   -916.63371    1389.4508   -6738.3258    2.1801223   0.30296622   0.10415746 
    4100    -958.6999    39.870401    -918.8295    1428.0132    -313.8261    2.2034289  0.060827871  0.083806225 
    4200   -949.55416    39.601229   -909.95294    1418.3724    7049.1377     2.198696   0.16077192  0.089297448 
    4300   -953.02838    39.673604   -913.35478    1420.9646    3441.6216    2.1996039   0.21005786  0.094151922 
    4400    -954.7464    37.970002    -916.7764    1359.9478   -1348.9017    2.1871621   0.33083911  0.089746381 
    4500   -956.03215    41.299546    -914.7326       1479.2   -5550.7993     2.179929   0.12416207  0.090741351 
    4600   -952.37597    42.835351   -909.54062    1534.2069   -1103.4591     2.183619  0.089701455   0.09719265 
    4700   -952.23431    36.564675   -915.66963    1309.6141    6300.7344    2.2066157   0.23276237   0.10286649 
    4800    -952.7888    36.767484   -916.02132    1316.8779    5439.5939    2.2053758   0.17197399   0.10606971 
    4900   -950.10628    41.400567   -908.70571    1482.8182   -1602.7067    2.1778406   0.19389988   0.10976095 
    5000   -952.29377    37.200361   -915.09341     1332.382   -2124.7767      2.18492   0.38278678   0.10732567 
    5100   -954.03907    37.409477   -916.62959    1339.8718   -647.61651    2.1922575   0.24969066  0.080637313 
    5200   -953.31853    40.791128    -912.5274    1460.9903    3920.8454    2.2002513  0.025212371  0.097017733 
    5300   -950.91418    40.902895   -910.01128    1464.9934    4527.4411    2.1955678   0.25991082   0.10174167 
    5400    -956.7951    38.681267   -918.11384    1385.4227    -8.241482    2.2020583   0.20131824  0.088152306 
    5500   -955.57487     39.89764   -915.67723    1428.9888   -2756.9194    2.1905753   0.36328127  0.095634451 
    5600   -951.96455    38.807607   -913.15694    1389.9477   -1168.1816    2.1896333   0.11068939   0.10554277 
    5700   -959.29291    38.350331   -920.94258    1373.5698   -1677.1059    2.2083646   0.33029475   0.11821076 
    5800   -953.37866    35.031717   -918.34694    1254.7091   -153.49801    2.1995718   0.20373659   0.11879937 
    5900   -955.27489    41.002037   -914.27285    1468.5443      -1856.4    2.1935731   0.27253937   0.10543816 
    6000   -954.95207    39.516876    -915.4352    1415.3512   -1349.3539    2.1972511   0.18200083  0.096962312 
    6100   -959.51796    37.779734   -921.73823    1353.1331     2224.603    2.2137136   0.34441604  0.098028429 
    6200   -952.17028    37.826539   -914.34374    1354.8094    1618.7235    2.1947703   0.22894203   0.11170747 
    6300   -951.22868    36.627659   -914.60102    1311.8699   -609.34153    2.1901187   0.11954017   0.11902361 
    6400   -955.72383    35.161999   -920.56183    1259.3753   -2285.2799    2.1978583  0.086668675   0.10250903 
    6500   -955.64046    39.076358    -916.5641    1399.5734     1559.378    2.2009687   0.44114548  0.091294439 
    6600   -953.95303    40.447314   -913.50572    1448.6761    4462.3617    2.2060044  0.046003474  0.098533367 
    6700   -957.29351    40.049243   -917.24427    1434.4186   -252.83299    2.2007584  0.067134608   0.10476766 
    6800   -957.41077    38.269673    -919.1411    1370.6809   -6928.3825    2.1888429   0.10084662   0.10752951 
    6900   -949.95064    39.109978   -910.84066    1400.7776   -4226.0405    2.1722131   0.27660863  0.098983405 
    7000   -953.89195    38.851388   -915.04057    1391.5158     2950.587    2.2027009   0.27154097  0.097802084 
    7100   -954.49411    37.757379   -916.73673    1352.3324    8930.3221    2.2195383    0.2026521  0.098702027 
    7200   -952.80565    43.634755    -909.1709    1562.8387    1172.8826    2.1922127   0.32464537    0.1065837 
    7300   -951.47281    38.116347   -913.35646    1365.1893   -3052.6222     2.181422   0.29616776  0.095593656 
    7400   -955.45112    38.235094   -917.21603    1369.4424   -6458.1438    2.1828893   0.27583458  0.099977106 
    7500   -954.47282    41.706894   -912.76593    1493.7897    1036.1242    2.1970938  0.070556401   0.11293903 
    7600   -954.02381    44.190355   -909.83345    1582.7383    6137.0214     2.207454  0.073445922   0.10788944 
    7700   -955.68887    38.622082   -917.06679    1383.3029    2271.9442    2.2084941  0.016364876   0.10837159 
    7800   -954.58452    39.481257   -915.10326    1414.0755   -6280.3477     2.182463 0.0018388158   0.10320379 
    7900   -949.10647    37.618113   -911.48835    1347.3444   -8304.8613     2.167209  0.011094792   0.10758681 
    8000   -957.47599     36.90531   -920.57068    1321.8144    4950.1884    2.2172303   0.13263742   0.10326761 
    8100   -958.25378    41.719209   -916.53457    1494.2308    11181.681    2.2299253   0.18425037  0.086518363 
    8200   -953.77275    40.274929   -913.49782    1442.5019    1194.2357    2.1997428   0.22448515  0.099942171 
    8300   -954.22032    38.622396   -915.59792    1383.3142   -14083.882    2.1606098   0.12044514  0.090079249 
    8400   -955.76732    34.814898   -920.95243    1246.9434   -9848.9728    2.1793061   0.49024471  0.097965471 
    8500   -952.11862    37.963315   -914.15531    1359.7083    6707.3496    2.2094027   0.14957542   0.10217351 
    8600   -949.16276    34.951208   -914.21156    1251.8255    12562.623    2.2210127  0.071328205  0.097949141 
    8700    -958.0173    37.164249   -920.85305    1331.0886   -145.22937    2.2063339   0.03811141  0.090658732 
    8800   -953.42311     38.52303   -914.90008    1379.7552   -5180.6339    2.1821948  0.010778918   0.09470829 
    8900   -950.78211    36.984518   -913.79759    1324.6513   -26.087885    2.1868378  0.019819386   0.11006971 
    9000   -957.42237     40.53085   -916.89152    1451.6681    1563.9156      2.20441   0.06596916  0.095609654 
    9100   -958.12945     38.05856   -920.07089    1363.1196    1904.7507     2.212251   0.32513619   0.10188444 
    9200   -953.63989    42.539556   -911.10034    1523.6126    -4807.674    2.1820162   0.28356728  0.091591521 
    9300    -955.9297    41.865445   -914.06426    1499.4684   -3118.4405    2.1871141   0.16925546  0.090095378 
    9400   -954.58614    37.877986   -916.70815    1356.6521    2697.0192    2.2023182  0.028088591  0.086061445 
    9500   -955.53332    38.734634   -916.79869    1387.3341    5697.4345    2.2128115   0.17405774  0.090794613 
    9600   -950.38213    40.964537   -909.41759    1467.2012   -1997.2892    2.1818533   0.12802319   0.10499715 
    9700   -954.02957    38.574955   -915.45462     1381.615   -9407.7002    2.1737732   0.22395768    0.1029399 
    9800    -952.6605    36.010031   -916.65047    1289.7487   -2404.6879    2.1920469  0.047530983  0.098406955 
    9900   -957.75328    47.771777    -909.9815    1711.0118    7767.2973    2.2171426  0.060582387  0.093515595 
   10000   -950.95815     38.53036   -912.42779    1380.0178    12952.888    2.2212919   0.15773981   0.10435252 
   10100   -956.01527    38.818896   -917.19638    1390.3521   -7174.0856    2.1817379    0.2277483   0.10249811 
   10200   -953.75078    39.081329   -914.66946    1399.7515   -11723.019     2.162344   0.53001171   0.11264043 
   10300   -948.80451    39.228257   -909.57625    1405.0139   -888.42607    2.1816301    0.1512585   0.11497106 
   10400   -956.09792    38.023795   -918.07412    1361.8745    9780.0194    2.2233464  0.096920063  0.099564486 
   10500   -957.24687    40.818734   -916.42814     1461.979    622.91919    2.2031211   0.13639035  0.098940999 
   10600   -954.68122    41.359812   -913.32141    1481.3585   -4561.7245    2.1817461  0.069316972   0.10313736 
   10700   -955.65421      39.2963   -916.35791    1407.4509   -7610.3097    2.1835055  0.063624977   0.10099027 
   10800   -956.94848    37.303248   -919.64523    1336.0671     411.7641    2.2054626  0.098561229   0.10435215 
   10900   -956.12805    42.068006   -914.06004    1506.7234    4242.3211    2.2104005  0.094928812   0.11216548 
   11000   -954.35376    39.198948   -915.15481    1403.9641    842.15884    2.2020444   0.15756639   0.10953025 
   11100   -957.10287    35.123551   -921.97932    1257.9982   -2984.2661    2.1976151  0.098877447   0.10442148 
   11200   -951.47337     36.69903   -914.77434    1314.4262   -3648.3429    2.1802558   0.17604911   0.12052814 
   11300   -953.41025    39.045012   -914.36524    1398.4507    974.80668    2.1978298   0.08464755    0.1036723 
   11400     -956.699    37.184369   -919.51463    1331.8093    7245.1474    2.2212839   0.12164527   0.10358534 
   11500   -958.88106      41.9293   -916.95176    1501.7555    3269.8154    2.2104045  0.027292959  0.092243023 
   11600   -951.81811     38.49208   -913.32603    1378.6467    -4716.202    2.1783425   0.18274958   0.10666033 
   11700   -952.56615    35.688904   -916.87724    1278.2471   -9769.9851     2.169459    0.2933748   0.10631033 
   11800   -957.70308    41.096445   -916.60664    1471.9256   -1839.7147    2.1968374  0.062361937   0.10005496 
   11900   -949.32573    40.335526   -908.99021    1444.6723    15145.058    2.2222052  0.055142545   0.10600269 
   12000   -950.02036    35.734452    -914.2859    1279.8785    11462.432    2.2176411  0.052116529   0.11267178 
   12100   -955.48582     38.24196   -917.24386    1369.6883   -9724.4074    2.1762737   0.38526907   0.10988778 
   12200   -949.10084    38.478294   -910.62255     1378.153    -12570.24    2.1554319   0.34051675   0.12284143 
   12300   -950.52197    38.670666    -911.8513     1385.043    1231.1525    2.1923504   0.13602855   0.11490915 
   12400   -956.68002    40.786455   -915.89356    1460.8229    7000.5505     2.217456    0.1004913   0.10123272 
   12500   -955.14124    40.122233     -915.019    1437.0329    -111.6507    2.2038707   0.14789633   0.10605313 
   12600   -947.51902    39.279631   -908.23939    1406.8539   -2683.5106    2.1782546    0.1751525   0.12184313 
   12700   -955.36546     39.16549   -916.19997    1402.7658   -3410.0536    2.1920403   0.15236599   0.10414742 
   12800   -955.80891    39.503115   -916.30579    1414.8583   -1549.8217    2.1941099  0.063715495  0.099784322 
   12900   -954.71806    40.803897   -913.91416    1461.4476   -323.48239    2.1976032   0.25786368   0.10562127 
   13000   -952.78159    43.254498   -909.52709    1549.2192    884.32139    2.1931554   0.23817318   0.10627733 
   13100   -948.62861    42.187534   -906.44107    1511.0045   -2211.8324    2.1762358   0.14932452   0.12310195 
   13200   -954.12468    39.434542   -914.69014    1412.4023   -1634.4483    2.1919868   0.11967272   0.10056833 
   13300   -952.29951    37.097885   -915.20163    1328.7117    6326.3081    2.2073121  0.063091195   0.10593769 
   13400   -956.33835    40.768982   -915.56937    1460.1971    3589.6884    2.2076623   0.16615948  0.098792176 
   13500   -952.91002    44.502338   -908.40768    1593.9123   -4687.7761    2.1786584   0.16776441   0.10436428 
   13600   -947.61693    36.541012   -911.07591    1308.7665   -4997.6458     2.170496  0.074836157    0.1048424 
   13700   -956.12009    40.480762   -915.63933    1449.8741   -4276.8052    2.1885625   0.13941973  0.096070848 
   13800   -955.51885    40.122343   -915.39651    1437.0368    7124.4247     2.218115   0.12720918  0.097707624 
   13900   -952.57584    43.719218   -908.85662    1565.8639    10682.581    2.2167482   0.24568243   0.10247008 
   14000   -950.37988    38.634573   -911.74531    1383.7503   -1331.1422    2.1855829   0.19696982    0.1066555 
   14100   -954.10543    37.596851   -916.50858    1346.5829   -12808.312    2.1644335   0.54131687  0.098474302 
   14200   -950.63848    36.027479     -914.611    1290.3737   -4482.5671    2.1835287   0.44421947   0.11099182 
   14300   -953.20514    45.621205   -907.58394    1633.9861    7423.8829    2.2062788   0.27880785  0.098983613 
   14400   -952.86401    37.485061   -915.37895     1342.579    10487.761    2.2184176   0.14862508  0.094644361 
   14500   -956.12336    39.728272   -916.39509    1422.9226   -3898.7098    2.1895621  0.069765894  0.093940501 
   14600   -952.93015    39.534027   -913.39612    1415.9655   -5839.6246    2.1768484   0.17959408  0.089575685 
   14700   -951.70878    43.347808   -908.36097    1552.5613    -1660.765    2.1838558   0.14884851  0.097591677 
   14800   -954.93863    40.888859   -914.04977    1464.4907    2189.3946    2.2026917   0.31048218   0.09706276 
   14900   -956.15404    40.302395   -915.85165    1443.4856    -146.3023    2.1992314   0.17583364  0.089353822 
   15000   -953.03798    37.640454   -915.39753    1348.1446   -179.41237    2.1958528   0.21147178  0.098024352 
   15100   -954.08541    39.553458   -914.53195    1416.6614   -777.58052    2.1956698   0.14346483    0.1061934 
   15200    -954.7319    40.516073   -914.21583    1451.1388   -1756.9464    2.1933155    0.1992288  0.091031015 
   15300   -956.28548    33.952024   -922.33346    1216.0384    6199.9376    2.2204927   0.11546309  0.097284919 
   15400   -957.69213     39.26439   -918.42774     1406.308     969.1143    2.2097064    0.1435842   0.10051545 
   15500   -953.74181    38.580463   -915.16135    1381.8123   -4018.0167    2.1825527   0.24280347  0.089851444 
   15600   -952.95969    38.923194   -914.03649    1394.0876   -9117.7602    2.1713826   0.24110337   0.10953289 
   15700   -956.05526    33.731013   -922.32425    1208.1225    6130.2806     2.217179  0.028884463   0.10026157 
   15800   -953.48179    36.411922   -917.06987     1304.143    13217.458    2.2306687   0.33528342  0.096595271 
   15900   -953.62021    39.645557   -913.97465    1419.9601    4613.7315    2.2053312   0.27282312   0.10420314 
   16000   -952.43239    35.774627   -916.65776    1281.3174   -8092.3126    2.1767032   0.24522291   0.10726929 
   16100   -957.93207    35.678747   -922.25332    1277.8833   -8895.8858    2.1854988   0.29358994   0.10523792 
   16200   -954.64973    40.041812   -914.60792    1434.1525    161.29228    2.2002735   0.15028382  0.095963586 
   16300   -952.92312    38.502599   -914.42052    1379.0235    9587.9821    2.2191074   0.10806686   0.09434936 
   16400    -953.0219    34.505045   -918.51686    1235.8456    5762.0724    2.2108878   0.22741596  0.098021121 
   16500   -958.40556    35.757239   -922.64832    1280.6946    -5800.473     2.192878  0.035432034  0.093133069 
   16600     -953.351    39.467288   -913.88371    1413.5751   -8683.3273    2.1737274  0.029654483   0.11040605 
   16700   -955.91885    40.972903   -914.94595    1467.5008   -896.70901    2.1985034  0.033172518  0.094400647 
   16800   -955.21895    39.713143   -915.50581    1422.3807    4897.6797    2.2110722   0.21587984  0.094218283 
   16900   -957.90424    41.077827   -916.82641    1471.2588   -846.32761    2.2017578   0.13188944  0.092627629 
   17000   -961.35169    36.826658   -924.52504    1318.9973   -1791.4646     2.209146   0.20205091  0.096572287 
   17100    -955.2082    36.782461   -918.42574    1317.4144   -2786.9171    2.1918036   0.17630108  0.094793515 
   17200    -955.2933    39.759143   -915.53416    1424.0283   -1522.1338    2.1911367   0.15896942   0.10031333 
   17300   -957.79594    44.347581   -913.44836    1588.3695    383.21241    2.1971374   0.11779566  0.091773057 
   17400   -956.48452    37.022766   -919.46175    1326.0212    2700.2156    2.2068437   0.15180177  0.085782784 
   17500   -957.13708    37.533141   -919.60394     1344.301   -1481.2702    2.1971186   0.28850227   0.10102633 
   17600   -956.12293    40.928799   -915.19413    1465.9212   -4611.6017    2.1881698  0.030912113   0.09986106 
   17700   -953.08362    39.065693   -914.01792    1399.1915    502.10542    2.1922542  0.089557993   0.10719139 
   17800   -960.47184    38.488731   -921.98311    1378.5268    4428.4704    2.2197435   0.11494207   0.10186596 
   17900    -955.2041    38.379598    -916.8245     1374.618    2224.1308     2.203045  0.084305948   0.10702227 
   18000   -955.49195    41.148521   -914.34343    1473.7908    -7001.337    2.1777866   0.29571853   0.10715946 
   18100   -956.32612    39.635279   -916.69084     1419.592   -7650.0227    2.1803566   0.25925414  0.098464386 
   18200    -954.0639    32.575424   -921.48847    1166.7336    8260.7611    2.2178886   0.22301493   0.10737023 
   18300   -951.44449    38.082709   -913.36178    1363.9845    9129.9122     2.214061    0.1911004   0.11276728 
   18400   -953.49424    38.670454   -914.82378    1385.0354    205.68984    2.1961591   0.10569918    0.1041521 
   18500   -956.10852    37.303008   -918.80551    1336.0585   -8844.0562     2.180612  0.067867584  0.097687157 
   18600   -958.75467    39.262697   -919.49198    1406.2474   -5586.4215    2.1908361  0.036274592   0.09159668 
   18700   -952.03461    39.475478   -912.55913    1413.8685    5871.8704    2.2049651  0.051240468   0.10731471 
   18800   -954.65894    39.982747   -914.67619     1432.037    6524.3448    2.2140606   0.11763847   0.11096941 
   18900   -959.61446    41.843261    -917.7712    1498.6739   -3465.4236    2.1974929   0.28828188   0.10685551 
   19000   -950.56826    39.636479   -910.93178     1419.635   -6603.3942    2.1728816   0.11207026   0.12167295 
   19100   -953.23316    41.574517   -911.65864    1489.0484   -1405.0432    2.1861554   0.24122507   0.12050797 
   19200   -957.39739    41.709998   -915.68739    1493.9009    5852.9024    2.2149033  0.091982456     0.107119 
   19300    -951.7098    35.665884   -916.04392    1277.4226    10823.817    2.2185859   0.19997411   0.10327886 
   19400    -951.3475     43.32997   -908.01753    1551.9224   -7660.6375    2.1675201   0.19475509   0.10974567 
   19500    -952.7224    37.696055   -915.02634     1350.136   -13616.802      2.16082   0.16057051  0.094563178 
   19600   -952.77399    36.411328   -916.36266    1304.1217    -934.6374    2.1930892  0.022058759   0.10057291 
   19700   -955.59387    43.287403   -912.30647    1550.3978    14227.055    2.2316116   0.15657079   0.10127045 
   19800   -953.05004     44.50013   -908.54991    1593.8333    6637.9653    2.2068058   0.41836252   0.10095805 
   19900   -958.31009    40.983229   -917.32686    1467.8706   -7248.7501    2.1857137   0.16605625   0.10654196 
   20000   -955.68031    39.505001   -916.17531    1414.9259   -8578.0723    2.1759764   0.17842205  0.098166811 
   20100   -956.42339    42.749376   -913.67401    1531.1276   -2849.8769    2.1910699   0.13500767   0.11172581 
   20200   -956.29809    37.656943   -918.64114    1348.7351    4898.1817    2.2107354   0.20038559   0.11300628 
   20300   -957.61943    37.923853   -919.69558    1358.2949    3281.4351    2.2112546   0.19059479   0.10306146 
   20400    -957.3576    42.565744   -914.79186    1524.5506   -3286.0677    2.1950259   0.16003193   0.10166996 
   20500   -955.53219    40.932795    -914.5994    1466.0643    -3641.337    2.1880492  0.080094364   0.09248772 
   20600   -959.01706     36.82706   -922.18999    1319.0118      -1381.1    2.2069301   0.14733927  0.096257655 
   20700   -954.06204    38.402645   -915.65939    1375.4435    762.97574    2.1976789   0.06114094  0.093482536 
   20800    -955.8278    41.633436   -914.19436    1491.1587    129.75727    2.2000016   0.16393583   0.10257875 
   20900   -954.30131    35.493508    -918.8078    1271.2487    2655.8983    2.2062153   0.35326431   0.10991759 
   21000   -958.47915    38.214949    -920.2642    1368.7209   -2599.9528    2.2011713   0.15707699   0.10909409 
   21100   -955.66851    42.199402   -913.46911    1511.4295   -6009.8492    2.1831293   0.12527634   0.11539368 
   21200   -954.99235    39.156295   -915.83605    1402.4365    -2746.875    2.1914997    0.3430021   0.10090265 
   21300   -955.31316    37.347174   -917.96599    1337.6404    7009.5111    2.2166284    0.1657126  0.095828279 
   21400   -949.74851    39.930515   -909.81799    1430.1663    8061.4957    2.2065314   0.23757553   0.12079854 
   21500   -954.38777     41.75293   -912.63484    1495.4385   -1140.8675    2.1940675   0.12527291   0.10061549 
   21600   -952.20164    35.734249   -916.46739    1279.8712   -6260.2655    2.1771353  0.022679033   0.10427989 
   21700    -953.2788    38.088544   -915.19026    1364.1935   -4732.2666    2.1823263   0.29676819   0.10011036 
   21800   -950.20723    41.918213   -908.28902    1501.3584    1564.7252    2.1940065   0.11703172   0.10497173 
   21900   -955.11552    39.964985   -915.15054    1431.4008    8332.0055    2.2201909   0.03164103  0.099995337 
   22000   -955.14554    38.883136    -916.2624    1392.6529    3040.2714    2.2018678  0.087674767   0.10789941 
   22100   -951.75013    42.067367   -909.68276    1506.7005   -8682.5685    2.1668713    0.1578254   0.11822563 
   22200   -953.07471    39.345252   -913.72946    1409.2043   -5943.2908    2.1772497   0.25830148   0.10918069 
   22300   -954.11107    37.502819   -916.60825     1343.215    3358.2179    2.2036345  0.072479083   0.11469418 
   22400     -954.688    41.184405   -913.50359     1475.076    8080.8874    2.2150238   0.12245406   0.10505122 
   22500   -949.65283     39.81589   -909.83694    1426.0608    6028.4286    2.1949443  0.034901669   0.12109477 
   22600   -955.00427    36.622296   -918.38198    1311.6778   -4556.4147    2.1869597    0.2860001  0.092767864 
   22700   -955.88983    39.323308   -916.56653    1408.4183   -10502.393    2.1710701  0.045131133   0.09615746 
   22800   -954.48971    40.400708     -914.089    1447.0068   -1568.1453    2.1907838  0.011402418   0.11365532 
   22900   -956.43613    38.920601   -917.51553    1393.9948    13421.947    2.2343061   0.08737315   0.10168015 
   23000   -954.32766    34.179369   -920.14829     1224.181    13222.163    2.2324411   0.04346137   0.10820903 
   23100   -952.16189    37.268055   -914.89384    1334.8066    -9597.797    2.1715192   0.24014309   0.10301141 
   23200    -951.4002    36.657166   -914.74303    1312.9268   -17443.774    2.1480623     0.196102   0.11324232 
   23300   -957.52621    37.454849   -920.07136    1341.4969   -1242.7674    2.2001186  0.085892743  0.098997834 
   23400   -956.51348    37.796367   -918.71711    1353.7288    11372.503     2.233621   0.18728711    0.1055951 
   23500   -951.43475    37.717954    -913.7168    1350.9203    6066.4272    2.2075872   0.10683566    0.1096108 
   23600     -955.481     38.81079   -916.67021    1390.0618   -4990.9928    2.1878637  0.075649311    0.1062077 
   23700   -956.71158    35.434781    -921.2768    1269.1453   -6893.4179    2.1908844  0.085935292   0.11312157 
   23800   -954.72733    40.418319   -914.30901    1447.6376   -289.49496    2.1976192  0.052315783   0.10671083 
   23900   -955.93641     42.15243   -913.78398    1509.7472    6946.9615    2.2169473   0.11706057   0.10510938 
   24000   -955.31572    39.126101   -916.18962     1401.355    3029.7983    2.2086607   0.34936623   0.10297282 
   24100   -955.85194    38.886499   -916.96544    1392.7734    -7500.078    2.1832365   0.16618487   0.10541303 
   24200   -946.71301    38.620034   -908.09297    1383.2296    -8115.964    2.1599109   0.31633991   0.12122819 
   24300   -954.00144    39.758014   -914.24342    1423.9879    4266.6865    2.2059425   0.17316781   0.10359612 
   24400   -957.84025    42.104287   -915.73597    1508.0229     7820.337    2.2244811   0.13510214  0.097654066 
   24500   -955.52202    41.005147   -914.51687    1468.6556    1726.0839    2.2017342   0.14541688  0.092335616 
   24600    -949.0512     41.19253   -907.85867     1475.367   -8521.6222    2.1623946   0.14200388  0.098992082 
   24700   -953.17203     36.83137   -916.34066    1319.1661   -3272.4077     2.185375   0.16572415   0.10690519 
   24800    -956.0166    40.351655   -915.66495      1445.25    3451.6096    2.2081972   0.11380258   0.10944772 
   24900   -955.98681    44.131351   -911.85546    1580.6249    3191.0698     2.207967   0.11265672   0.10936439 
   25000   -949.87404    40.637514   -909.23653    1455.4884   -1666.8123    2.1807262  0.065215596   0.11308483 
   25100    -953.1152    36.106682   -917.00852    1293.2104   -3918.5311    2.1854698   0.37242963  0.096954305 
   25200   -956.57149    41.047371   -915.52412     1470.168   -185.28505     2.198009   0.18217929  0.095787596 
   25300   -952.39349    39.744877   -912.64861    1423.5174    5796.3016    2.2030265   0.33063185   0.10493169 
   25400   -949.68261    44.016281   -905.66633    1576.5036    1305.5995    2.1868462   0.19777358   0.10762208 
   25500   -953.23642    38.958142   -914.27827    1395.3393    1373.3946    2.1943202   0.32399628   0.10476951 
   25600   -950.91836    35.622064   -915.29629    1275.8532    -2293.995    2.1841053   0.50294821   0.10510111 
   25700   -956.05698     40.22704   -915.82994    1440.7867    -3457.445    2.1881294   0.07339298  0.098603012 
   25800   -953.00964    37.120956   -915.88868     1329.538    4984.8691    2.2038027  0.078922496    0.1050155 
   25900   -949.46195    42.328818   -907.13313    1516.0648    704.61591    2.1838559    0.2900906   0.11963356 
   26000   -955.44746    42.325139   -913.12232     1515.933   -1358.7124    2.1909614   0.12951436   0.11243044 
   26100   -951.95382    35.897854   -916.05597     1285.731    1937.8212     2.195445   0.27281616   0.10314254 
   26200   -954.11365     37.72008   -916.39357    1350.9965    1046.6125    2.1988157   0.26441644   0.10847978 
   26300   -949.04649    41.210883   -907.83561    1476.0244   -1156.7184     2.179913  0.087724709   0.10101499 
   26400   -953.41127    38.745114   -914.66616    1387.7095     2902.966    2.1991523  0.095433764  0.088982655 
   26500   -955.41196    39.136585   -916.27538    1401.7305    1328.7345    2.1993285   0.11670129  0.092588678 
   26600   -954.03167    41.821617   -912.21005    1497.8987   -1351.0364    2.1902728   0.22651051  0.085278366 
   26700   -953.28147    43.057148   -910.22432    1542.1509   -5098.6284    2.1799597   0.14669617  0.098746859 
   26800   -955.30351    38.586067   -916.71744     1382.013   -2633.1813    2.1927414   0.23053106   0.10898524 
   26900   -956.15071    41.194994   -914.95571    1475.4553    803.42508    2.2018462   0.30039149  0.099331522 
   27000   -950.90033    42.198965   -908.70137    1511.4139    3319.0379    2.1961567   0.20036759   0.11819579 
   27100   -950.67803    35.930522   -914.74751     1286.901    2351.8225    2.1967154   0.25350702   0.11325316 
   27200   -952.19489    35.660473   -916.53441    1277.2288   -7812.0205    2.1749582   0.34176212   0.10950893 
   27300   -953.92847     39.53896   -914.38951    1416.1422   -5358.0797    2.1788882   0.18165219   0.10170883 
   27400   -952.77639    43.007356   -909.76903    1540.3675    9509.4119     2.213951   0.17135215   0.10899898 
   27500   -953.37519    47.781656   -905.59353    1711.3656    8414.9814    2.2099359   0.13065696  0.094638526 
   27600   -954.55029    40.471739   -914.07855    1449.5509   -2122.2867    2.1877736   0.28176683   0.09129117 
   27700   -954.52555    39.418451    -915.1071    1411.8259    -9675.674     2.171952   0.11189253   0.10311643 
   27800   -954.82363    38.925928    -915.8977    1394.1856   -3148.2096    2.1899754   0.23657975  0.094742522 
   27900   -954.87461    33.091839   -921.78277    1185.2297    9591.4727    2.2246392  0.098396077   0.10168646 
   28000    -957.3315     37.57841   -919.75309    1345.9224    6975.2009    2.2238356   0.36440779   0.10487499 
   28100   -953.26676    37.706981   -915.55978    1350.5273    292.47336     2.195931   0.28962834   0.10226906 
   28200    -952.1584    36.916188   -915.24221     1322.204   -7597.7529    2.1774145  0.067563748   0.10841055 
   28300   -954.21078    41.335612   -912.87517    1480.4917   -3793.1541    2.1878422   0.23132746   0.10116984 
   28400   -949.26602    43.291703   -905.97431    1550.5518    2137.1453    2.1885386   0.12390976   0.11404474 
   28500   -953.73638    39.988849   -913.74753    1432.2556    2976.3032    2.2045273  0.043574564   0.11673046 
   28600    -953.1433    37.546444   -915.59686    1344.7775    1383.4062    2.1987204    0.1215183   0.11400998 
   28700   -956.52771    40.477411    -916.0503    1449.7541   -2635.5483    2.1935338    0.1600868   0.10054506 
   28800   -946.84698    39.966745   -906.88024    1431.4639   -2.9330996    2.1796662   0.20117024   0.11558325 
   28900   -953.84596     40.84414   -913.00182     1462.889    4485.9819    2.2044163   0.32851637   0.11450302 
   29000   -954.81924    39.013484   -915.80576    1397.3215    2357.0674    2.2051068  0.078755591   0.11012947 
   29100   -953.70615    37.662032   -916.04412    1348.9174   -1374.1159    2.1939418   0.28372513   0.10217178 
   29200   -951.43937     43.95935   -907.48002    1574.4645   -7672.2296    2.1724044   0.27631064   0.11205804 
   29300   -954.15621     39.45057   -914.70564    1412.9763    2859.1334    2.2033707   0.29651748   0.11549725 
   29400   -955.26887    39.318171    -915.9507    1408.2343    5679.9812    2.2147014  0.097745017   0.10798942 
   29500   -952.32627    38.829331   -913.49693    1390.7258    4224.8476     2.201965    0.1061138   0.11021924 
   29600   -947.78352    39.543635   -908.23988    1416.3096   -6500.3395    2.1683434   0.24197729    0.1175361 
   29700   -954.44529    37.600028   -916.84526    1346.6967    -4499.845    2.1877673    0.3892757   0.10883968 
   29800   -956.27948    40.887625   -915.39185    1464.4465    5563.1329    2.2180569   0.08503566   0.11735705 
   29900   -951.73195    40.183374   -911.54857    1439.2227    13303.496    2.2259893   0.16782788   0.11835277 
   30000   -951.24208    41.473345   -909.76873    1485.4248   -3228.5405    2.1800913   0.17743194   0.11256743 
   30100   -953.39901    35.896484   -917.50253    1285.6819   -11118.189     2.170703  0.049016254  0.096629261 
   30200   -953.11863    37.065427    -916.0532    1327.5492   -1845.4911    2.1930083   0.35002158   0.10179504 
   30300   -956.14075    43.838785   -912.30197    1570.1463    6676.5444    2.2140518   0.26389452   0.10476952 
   30400   -947.22639    40.025832   -907.20056    1433.5802    8509.9616    2.2000965   0.24929262    0.1231597 
   30500   -954.57461    38.737936   -915.83667    1387.4524   -518.40251    2.1968013   0.52139334   0.11806408 
   30600   -955.07613    40.361704   -914.71442    1445.6099   -6952.0788    2.1808536   0.19968677   0.12729767 
   30700   -952.50012    40.710043   -911.79008    1458.0861   -3103.0342    2.1858906    2.6949225   0.13736073 
   30800   -955.56029    37.606488   -917.95381     1346.928    337.06616    2.2054909    3.6581767   0.13217993 
   30900   -957.85127    40.247249   -917.60402    1441.5105   -232.05271    2.2025924    4.1330414   0.12565539 
   31000   -954.00877    40.749645   -913.25912    1459.5045   -357.71118    2.1965597    4.5198588   0.12860066 
   31100   -952.39842    38.081267   -914.31715    1363.9329   -1223.4881    2.1906532     4.946169   0.14160829 
   31200   -955.70815    35.509766   -920.19838     1271.831     161.4992    2.2008791    5.6144183   0.13967167 
   31300    -953.0697    39.543306   -913.52639    1416.2978   -973.20803    2.1916629    5.1913971   0.14548414 
   31400   -954.27667    40.594012   -913.68265    1453.9303     -1475.71    2.1927438    4.5493125   0.13029578 
   31500   -955.14195    35.399465   -919.74249    1267.8805    4198.9967    2.2123499    6.5282647   0.13491642 
   31600   -951.69221    38.894716   -912.79749    1393.0677      5493.36    2.2070034    11.753435   0.12891405 
   31700   -954.82977    41.445377    -913.3844    1484.4231    1671.4898    2.2049311    12.247108   0.12041293 
   31800   -955.37797    36.873484   -918.50448    1320.6745   -4692.3866    2.1857037    14.787617   0.10858415 
   31900   -952.51068    39.529668   -912.98101    1415.8094   -7964.3076    2.1732853    14.676863   0.11130071 
   32000   -953.97268    41.868003   -912.10468      1499.56    2378.2185    2.2005589    14.187579   0.11903176 
   32100   -958.74186    42.214975   -916.52688    1511.9873    9134.2549    2.2266248    14.968855   0.10479483 
   32200   -958.02662    43.433996   -914.59262    1555.6482    2012.8718    2.2061845    14.062483   0.10874801 
   32300   -949.63359    39.160776   -910.47281     1402.597   -8807.9365    2.1663036    13.346224   0.11127227 
   32400   -955.87633    37.422809   -918.45352    1340.3493   -7436.3606    2.1837389    12.883988   0.10752245 
   32500   -955.56133    40.440241   -915.12109    1448.4228    3507.5891    2.2069375    14.203492   0.10656524 
   32600   -952.28966    42.019611   -910.27004    1504.9901    9182.5395    2.2118448    13.993661   0.11255318 
   32700   -955.84446    37.559498   -918.28497     1345.245    1627.1488    2.2051217    13.227902   0.10632817 
   32800   -956.33259    39.708565   -916.62403    1422.2168   -8299.2956    2.1779066    14.167382  0.093926447 
   32900   -955.35024     42.61146   -912.73878     1526.188   -7049.1561    2.1809419    15.783482   0.10823227 
   33000   -954.70196    34.972447   -919.72952    1252.5862    5334.0132    2.2136583    14.820467    0.1209523 
   33100   -957.82465    40.453563   -917.37108    1448.8999    3101.0638     2.213016    15.412364    0.1076795 
   33200   -952.96725    39.670016   -913.29724    1420.8361    342.92175    2.1939771    13.198566   0.10449591 
   33300    -954.5872    36.224439   -918.36276     1297.428   -3242.9534    2.1928905    14.063875   0.10172584 
   33400    -953.0574    34.172567   -918.88483    1223.9374    14.120783     2.199194    14.331073   0.11573946 
   33500   -952.44847    39.673515   -912.77496    1420.9614    1479.0422     2.196435    13.684372   0.11063525 
   33600   -954.93306    38.273277   -916.65978      1370.81   -473.92991    2.2020438    15.261563   0.10134674 
   33700   -956.07482    36.280934   -919.79389    1299.4515   -577.95694    2.2026096    13.947349   0.10436779 
   33800    -952.3064    40.967599   -911.33881    1467.3108   -2655.8371    2.1821916    13.305655  0.099125904 
   33900   -954.37674    39.046654   -915.33008    1398.5096    753.72531    2.1970173    14.942649   0.10454389 
   34000   -955.42843    37.729967   -917.69846    1351.3506     4159.381    2.2091716    14.767461   0.10311846 
   34100   -949.14428    39.691871   -909.45241    1421.6189    3191.0927     2.192844    12.523212   0.10091153 
   34200   -950.96883    36.508222   -914.46061    1307.5921    1243.9479    2.1934274    11.751951   0.12060104 
   34300   -952.69794      35.1472   -917.55074    1258.8452   -3835.0305    2.1848167    11.620063   0.10995182 
   34400   -951.62969    40.489845   -911.13984    1450.1994   -3228.3529    2.1833755    14.971144   0.11373929 
   34500   -954.07574     40.05466   -914.02108    1434.6127    6377.8246    2.2133362    15.346006   0.10601267 
   34600   -953.83168     36.62031   -917.21137    1311.6067    7782.7526    2.2150239    12.982546   0.09082082 
   34700    -952.9923    39.460949   -913.53135    1413.3481   -2457.4736    2.1871372    14.831307    0.1077543 
   34800   -951.52331    39.090266   -912.43305    1400.0716   -7537.4285    2.1700635    14.441261  0.099974609 
   34900   -956.68986    37.010391   -919.67947     1325.578   -2153.3343    2.1988325    14.894882   0.10079066 
   35000   -954.20122    40.047006   -914.15421    1434.3385    7833.5612    2.2165828    13.064483  0.099661204 
   35100    -954.1854    40.635126   -913.55027    1455.4029    6725.1917    2.2102872     13.13482   0.09801085 
   35200   -958.91906    37.982101   -920.93696    1360.3811   -2455.7809     2.198835    11.688493  0.099600861 
   35300   -954.40372    39.473261   -914.93046    1413.7891   -10450.135    2.1695449    15.529111   0.10549456 
   35400   -952.72647    39.041346   -913.68512    1398.3194   -2562.0901    2.1849979    12.308975    0.1058555 
   35500   -955.98783    36.424589   -919.56324    1304.5967    7101.8704    2.2197977     13.83751  0.091483315 
   35600   -953.93279    39.001677   -914.93111    1396.8986    7100.9407    2.2152711    14.078263    0.1122563 
   35700   -952.64024    39.701654   -912.93858    1421.9693   -338.02725    2.1913124    13.935221  0.097173948 
   35800   -954.91377    36.862072    -918.0517    1320.2657   -6651.7365    2.1822967    15.916095   0.11009052 
   35900   -956.08808    40.832357   -915.25572     1462.467   -2823.6627    2.1925377    11.459177   0.10421694 
   36000   -953.60648    42.632852   -910.97362    1526.9542    2445.6966    2.1974007    13.381319   0.08488681 
   36100   -954.64093    37.692179   -916.94875    1349.9972    2436.4904    2.2055497    14.158305    0.1073457 
   36200   -955.54928     39.70683   -915.84245    1422.1547   -42.870778    2.1974766    13.927832  0.099371453 
   36300   -948.96366    39.271524   -909.69214    1406.5636   -2162.5162    2.1817246    14.168536   0.12148236 
   36400   -953.44015    36.107132   -917.33302    1293.2265    3002.9432    2.2009711    12.704257   0.10549703 
   36500    -955.6681     39.90481   -915.76328    1429.2456    1808.2847    2.2030814    11.889007  0.099495882 
   36600   -949.37989    39.388128   -909.99176    1410.7399    1737.0027    2.1892749     14.41046   0.10100812 
   36700   -956.01928    38.231323   -917.78796    1369.3073   -496.27811    2.1975751    13.646184  0.097712876 
   36800   -955.60582    39.174157   -916.43166    1403.0763   -410.83279    2.1926567    13.554017   0.10445167 
   36900   -951.29563    39.415205   -911.88043    1411.7097    1037.1447    2.1936142    13.537509   0.10719819 
   37000   -959.98064    40.901896   -919.07875    1464.9576    1668.1127    2.2123568    13.039464   0.10119898 
   37100   -957.61383    40.187226    -917.4266    1439.3607   -2401.4498    2.1970776    13.635657  0.097340159 
   37200   -954.04973    40.877692   -913.17204    1464.0907   -6118.6034    2.1784453    13.697608   0.10285565 
   37300   -953.77758    35.662553   -918.11503    1277.3033   -2078.3993    2.1923524    12.972571   0.11196237 
   37400   -959.37695    40.967311   -918.40964    1467.3005    2581.3071    2.2141717    12.231394   0.09740675 
   37500   -950.11828    37.917274     -912.201    1358.0592    10993.578    2.2129211    12.807782   0.11324176 
   37600   -957.86912    40.748729    -917.1204    1459.4717     -3151.38    2.1958277    11.612078   0.10719064 
   37700   -954.04425    34.410536   -919.63372    1232.4606   -7908.0265    2.1777012    12.426466  0.098214005 
   37800   -948.85053     36.96212   -911.88841    1323.8491   -4587.4972    2.1732473    15.510841   0.10747202 
   37900   -955.23148    39.860004   -915.37148    1427.6408    5883.3521    2.2130529    13.492131  0.085762385 
   38000   -955.55231    38.042771   -917.50954    1362.5541    12256.994    2.2282524    11.805833   0.10148477 
   38100   -951.12173    41.598771   -909.52296    1489.9171   -334.46702    2.1868262    14.404915   0.10719984 
   38200   -953.05824    38.040614   -915.01763    1362.4768   -7923.0311    2.1745953     14.37089   0.10947738 
   38300     -955.292    38.156053   -917.13595    1366.6114   -3844.7976    2.1884893     12.41446   0.10363643 
   38400   -949.62928    39.113465   -910.51581    1400.9025    4956.9826    2.2002715    11.784019  0.099388274 
   38500   -955.39206    40.908773   -914.48328    1465.2039    4175.9814    2.2105522    14.151705   0.10848492 
   38600   -957.61318    40.197205   -917.41598    1439.7181   -2566.2221    2.1969374    12.802135   0.10972346 
   38700   -952.31501     39.26939   -913.04562    1406.4871    -5083.805    2.1779778    15.002619   0.11409658 
   38800   -953.02497    40.374413   -912.65056     1446.065   -2578.7584    2.1863242    12.297282  0.095322383 
   38900   -955.55771    36.473128   -919.08458    1306.3352    4508.9568    2.2123208    14.387924   0.10106252 
   39000   -953.76273    39.943333   -913.81939    1430.6253    5228.3688    2.2067294    12.783539   0.09783516 
   39100   -953.19297    39.070442   -914.12252    1399.3616   -598.77724    2.1925217    12.518998   0.10698317 
   39200   -957.79462    36.829962   -920.96466    1319.1157   -2644.2392    2.1984546    12.683306   0.11023399 
   39300   -954.77351    40.448725   -914.32478    1448.7266   -1820.3511    2.1912992    13.300816   0.10147457 
   39400   -954.74407    40.916233   -913.82784    1465.4711   -164.35817     2.196444    13.171012   0.11491962 
   39500   -958.82381    38.244759   -920.57905    1369.7886    1411.8113     2.210195    13.770107   0.11591508 
   39600   -953.21216    39.108179   -914.10398    1400.7131    552.75051    2.1932397    14.489713   0.10438608 
   39700   -957.20209    43.410914   -913.79117    1554.8215   -2908.9143    2.1924347    13.717973   0.10019902 
   39800   -955.75335    36.919101   -918.83425    1322.3083   -700.31944    2.1995364    12.857997   0.10372931 
   39900   -952.58808    38.668202   -913.91987    1384.9548     1916.592    2.1950047    12.242633  0.097336559 
   40000   -952.24227    39.803224   -912.43905    1425.6071    1526.9421    2.1950416    14.541295   0.10331551 
   40100   -958.11144    40.525399   -917.58604    1451.4728   -1188.4219    2.2000108    12.602677  0.098612294 
   40200   -951.85187    37.339152   -914.51272     1337.353    -991.8519    2.1894364    14.581347   0.10159418 
   40300   -947.72413    36.993831    -910.7303    1324.9849   -102.20618    2.1816848    14.801597   0.10654155 
   40400   -956.52269    38.991692     -917.531     1396.541    101.26772    2.2027411    12.825312   0.10042615 
   40500   -954.70211    39.776819   -914.92529    1424.6614    4843.5856    2.2091922    13.960487  0.093876309 
   40600   -948.81625    39.080871   -909.73538    1399.7351    2440.3268    2.1885808    12.744327    0.1044826 
   40700   -954.18048      36.2682   -917.91228    1298.9954   -2527.7798    2.1883784    14.011479   0.09887377 
   40800   -956.23375    40.382013   -915.85174    1446.3373   -6364.0138    2.1819522    12.109187  0.088670962 
   40900   -954.06182    42.667955   -911.39386    1528.2114    -1292.992     2.189541     13.56466   0.10306239 
   41000   -958.80788    39.404214   -919.40367     1411.316     6391.351    2.2189271    13.475593  0.083258858 
   41100   -957.11181    40.723077   -916.38873    1458.5529    1755.7784    2.2007359    12.886233  0.096757824 
   41200   -954.29304     41.13574    -913.1573     1473.333   -6791.2344    2.1761924    15.824622  0.096008887 
   41300   -955.52659    35.950172   -919.57642    1287.6048   -5732.4438    2.1879194    13.639369  0.095727802 
   41400   -956.55926    39.080334   -917.47893    1399.7158    1594.5384    2.2054278    13.297438  0.098510273 
   41500   -951.86852    39.578161   -912.29036    1417.5462    7807.3033    2.2095581    14.318552   0.11387676 
   41600   -955.59295    37.665631   -917.92732    1349.0463     1170.184    2.2053952    15.788994   0.10928627 
   41700   -955.13467    36.661735   -918.47294    1313.0904   -4694.4447     2.184314    14.699386  0.097515774 
   41800   -953.47746    41.076999   -912.40046    1471.2291    -8695.286    2.1709328    15.242384   0.11196589 
   41900   -953.72507    37.003796   -916.72127    1325.3418    3238.6807    2.2058722    13.873534   0.11827708 
   42000   -956.79101     39.47894   -917.31207    1413.9925    12095.616    2.2318083     14.91386     0.109904 
   42100   -952.40944    42.586784   -909.82266    1525.3042    2312.3611    2.1984104    16.142775   0.10851733 
   42200   -954.34131     38.41547   -915.92584    1375.9028   -10351.759    2.1718613    13.330428   0.11187816 
   42300   -953.50705    36.533351    -916.9737    1308.4921   -9170.2139    2.1725111    15.022363   0.11704613 
   42400   -948.92136    39.087856    -909.8335    1399.9852    3907.3085    2.1973616    13.743477   0.12727398 
   42500   -954.17537    38.647866   -915.52751    1384.2264    11275.119    2.2267975    16.272535   0.11187969 
   42600   -954.19288    36.917312   -917.27557    1322.2442    3117.8256    2.2048736    14.288228   0.10940338 
   42700   -952.08796    39.872852   -912.21511     1428.101   -5169.4373    2.1801645    14.930476   0.11532239 
   42800   -953.51596     37.91628   -915.59968    1358.0237   -3684.2335     2.188221    13.971279    0.1247676 
   42900   -955.00795    36.546473   -918.46148    1308.9621    2450.3662     2.205343    14.243303   0.11673232 
   43000   -951.01931    38.093715    -912.9256    1364.3787     5029.233    2.2055894    14.713749   0.11682425 
   43100    -954.8763    39.053132   -915.82317    1398.7416    1573.2058    2.2019566    13.500181   0.10991581 
   43200    -956.6588    36.406572   -920.25223    1303.9514   -4199.9414    2.1963351    16.194174   0.11323687 
   43300   -952.70984    39.028582   -913.68126    1397.8623   -3839.6343    2.1861174    13.360705   0.11725212 
   43400   -954.14636     38.70638   -915.43998    1386.3222    1237.3011    2.2006884    13.701834   0.11288859 
   43500   -956.75982     36.49559   -920.26423    1307.1397    7038.4674    2.2210679    12.243456   0.09661216 
   43600   -955.13046     42.73183   -912.39863    1530.4992   -1514.4049    2.1954243    15.394766   0.11792918 
   43700   -957.15193    42.123682   -915.02825    1508.7175   -7816.3728    2.1835082    15.818523   0.10492447 
   43800   -957.59347    38.231241   -919.36223    1369.3044   -6470.9668    2.1880595      13.4068  0.098581092 
   43900   -956.08802    43.692533   -912.39549    1564.9081    3298.8249    2.2023271    15.662114   0.11021028 
   44000   -957.58476    44.807141   -912.77762    1604.8293     10008.58    2.2238164     14.32759    0.1114777 
   44100   -955.86935    38.311205   -917.55814    1372.1684    3003.9232    2.2046118    15.454755   0.11357762 
   44200    -951.8641     39.55083   -912.31327    1416.5673   -11756.224    2.1604355    15.281647    0.1097177 
   44300   -949.73681    37.763143   -911.97367    1352.5388   -8837.8808      2.16726    13.310869   0.12823484 
   44400   -954.03898    36.917297   -917.12169    1322.2437    7089.7143    2.2132131    14.203134   0.11392239 
   44500    -953.8525    39.958503     -913.894    1431.1687    12359.586    2.2252759      14.3044   0.10437205 
   44600   -954.73763    44.148722    -910.5889    1581.2471    -2222.694    2.1907919     13.06608   0.10839401 
   44700   -957.01475    38.490362   -918.52439    1378.5852   -6082.8229    2.1869522    13.694003  0.089559466 
   44800   -952.53303    36.967006   -915.56602    1324.0241   -2573.8617    2.1883826    15.073109   0.10827385 
   44900   -950.03368    38.803325   -911.23035    1389.7944    3527.4392    2.1958173    15.846271   0.11260273 
   45000   -955.56608    36.126963   -919.43912    1293.9368    5699.8346    2.2169909    15.360245  0.098835388 
   45100   -956.01421    39.368549   -916.64566    1410.0386   -3220.1262    2.1951462    13.830683   0.10337036 
   45200   -949.93151    36.831348   -913.10016    1319.1653   -3099.3406    2.1788873    14.316648   0.11929147 
   45300    -956.1025    36.969983   -919.13252    1324.1307   -1718.3712    2.1950808    14.080797   0.10587483 
   45400   -956.13028    38.123815   -918.00646    1365.4568    3438.4087    2.2082533    12.114493   0.10584882 
   45500   -953.22373    40.357641   -912.86609    1445.4644    3015.7434    2.2040802     12.69406   0.11147347 
   45600   -955.61551    37.940719   -917.67479     1358.899     887.6601    2.1980504    13.954671  0.094852315 
   45700    -954.7361    35.420428   -919.31567    1268.6313   -5719.7626     2.185185    12.768275   0.10684568 
   45800   -952.38368    39.654952   -912.72873    1420.2966   -5704.5302    2.1789432    15.468671   0.10128949 
   45900   -955.84228    39.535364   -916.30692    1416.0134     5867.616    2.2126862    15.601054   0.09225628 
   46000   -957.11076    39.656081   -917.45468     1420.337    11590.716    2.2298148    13.937745  0.090449234 
   46100   -951.02477    41.131127   -909.89364    1473.1678   -3608.6035    2.1795176    12.261408      0.11777 
   46200   -951.81207    36.108026   -915.70404    1293.2586   -10784.701     2.161709    13.173699   0.11256999 
   46300   -955.02616    38.167539   -916.85862    1367.0228   -7359.3741    2.1825732    13.871716   0.10836655 
   46400   -952.72172    42.750368   -909.97135    1531.1632    7911.6005     2.212553    12.957746   0.11874175 
   46500   -955.89292    40.602303   -915.29062    1454.2272     8371.005     2.223162    13.427584    0.1074628 
   46600   -953.71954    35.910101   -917.80943    1286.1696    -2206.523    2.1957403    13.670249   0.11920267 
   46700   -952.46931    39.798218    -912.6711    1425.4278   -7860.6834    2.1733484    13.990476   0.10948937 
   46800   -956.58899     42.17351   -914.41548    1510.5022   -5430.9373    2.1872114    13.192109  0.087527625 
   46900   -956.14363    37.311324    -918.8323    1336.3563    5811.5593    2.2165243     14.24037   0.10171242 
   47000   -953.81782    40.607849   -913.20998    1454.4259    4619.2894    2.2088374    15.479205   0.10578506 
   47100   -954.41784    39.391761   -915.02608      1410.87    -3998.177    2.1907569    15.174693   0.11556892 
   47200   -956.59171    35.825206    -920.7665     1283.129   -6846.2756    2.1902118    13.197326   0.10633143 
   47300   -953.92996    39.922302   -914.00766    1429.8721    -1752.184    2.1899254      14.6076   0.11590371 
   47400   -954.03616    39.744837   -914.29132    1423.5159    3978.7563    2.2077387    14.386931   0.11547016 
   47500   -957.89253    37.502424   -920.39011    1343.2008    5662.3106    2.2188334    11.611309    0.1072589 
   47600   -953.88507    41.016651   -912.86841    1469.0677    -2733.462     2.189435    14.135209   0.12515846 
   47700   -953.32088     38.72854   -914.59234    1387.1158   -7305.7395    2.1808936    14.229987   0.12121442 
   47800   -957.11312    37.689314   -919.42381    1349.8945   -2919.0652    2.1975082    14.226938   0.10812079 
   47900   -955.87592    42.856041   -913.01988     1534.948    6979.1946    2.2129479    16.545417  0.098463485 
   48000   -953.13531    40.720039   -912.41527    1458.4441    11716.183    2.2215138    14.692846   0.10438804 
   48100   -957.98738    39.940858   -918.04652    1430.5367   -5494.7314    2.1871967    14.630336  0.093679909 
   48200   -952.14312     38.86596   -913.27716    1392.0377   -18272.153    2.1476865    15.098812   0.11620891 
   48300    -949.9208     38.58163   -911.33917    1381.8541   -4846.6948     2.178641    14.476387     0.107891 
   48400   -959.90123    43.494855   -916.40637     1557.828    9018.6545    2.2277407    14.587179   0.09437845 
   48500   -958.48491    43.018111   -915.46679    1540.7527    6453.2685    2.2210912    12.481265   0.10839048 
   48600   -950.84581    40.996879   -909.84893    1468.3595   -4535.0734    2.1769298    11.446348   0.12242332 
   48700   -955.16406    37.317861    -917.8462    1336.5904   -5957.5497    2.1842658    13.693807   0.11845664 
   48800    -954.1048    38.025253   -916.07955    1361.9267   -1273.8308    2.1934813    16.209669   0.11296502 
   48900   -949.79729    38.819254   -910.97804    1390.3649    6509.0422    2.2031539    13.457942   0.11743806 
   49000   -958.74041    40.138904    -918.6015      1437.63    3272.1518    2.2137929    14.796072   0.10151527 
   49100   -955.25027    38.121528   -917.12874    1365.3749   -3258.8504    2.1903622    13.805505    0.1128235 
   49200   -952.92865    39.849102   -913.07955    1427.2503   -7211.3729    2.1758434    14.665341   0.11153751 
   49300   -955.95629     37.11813   -918.83816    1329.4368   -19.249879    2.2008733    13.342438   0.10644208 
   49400   -956.13178    37.814485   -918.31729    1354.3777    5045.6654    2.2155569    15.347698   0.11823561 
   49500   -954.49345    41.677746    -912.8157    1492.7457    3019.8329    2.2060544    13.974723    0.1036305 
   49600   -953.29047    35.694602   -917.59586    1278.4512   -2005.0616    2.1921763    14.828566   0.11301268 
   49700   -957.52449    38.081402   -919.44309    1363.9377   -8587.2574    2.1822651    14.714105   0.11466789 
   49800   -952.19403    39.406559   -912.78747    1411.4001    -2502.993    2.1895338    13.709537   0.12678993 
   49900   -953.64035    38.026975   -915.61337    1361.9884    12188.146    2.2297581    13.818698   0.13813844 
   50000   -955.12103    36.715203   -918.40582    1315.0054    12362.932    2.2308535    15.184956   0.11334809 
   50100   -948.20829    38.168427   -910.03987    1367.0546   -9148.0787    2.1616335      13.4416   0.12538828 
   50200   -954.53599    39.517141   -915.01885    1415.3607   -16653.756    2.1581702    13.249043    0.1113934 
   50300   -955.79368    38.942566   -916.85111    1394.7815   -1264.1513    2.1971161    13.889152   0.10206808 
   50400   -952.02948    41.036027   -910.99346    1469.7617     10181.74    2.2174613    14.823149   0.11352417 
   50500   -951.13797    38.450613   -912.68735    1377.1615    5353.0744    2.2051037     14.60711   0.11399156 
   50600   -956.00192    38.227075   -917.77485    1369.1552   -4725.0237    2.1895143    14.668154   0.11618259 
   50700   -951.42868    37.602609   -913.82607    1346.7891   -3775.8401    2.1827693    13.686272   0.10781032 
   50800   -951.09295    40.564687   -910.52827      1452.88    1082.8829    2.1928698    13.594391   0.11387517 
   50900    -958.3987    39.640614   -918.75809     1419.783    6609.5082    2.2223902    16.016585   0.11176443 
   51000   -952.76428    37.769081   -914.99519    1352.7515    3756.9616    2.2062673    15.223125   0.12648636 
   51100   -952.13736    39.058263    -913.0791    1398.9253    -5216.288    2.1806568    14.477492   0.13346431 
   51200   -958.24317    37.184336   -921.05883    1331.8081   -6345.0334    2.1921904    13.300871   0.10883114 
   51300    -953.8327    37.839566   -915.99314     1355.276    659.42645    2.1985104    14.806856   0.10411123 
   51400   -953.82523    40.942328    -912.8829    1466.4057    7165.4631    2.2117545    14.532046   0.10731951 
   51500   -953.84538    34.303988   -919.54139    1228.6444    5992.1861    2.2118119    13.998257   0.10400001 
   51600   -952.25814    35.728378   -916.52976    1279.6609    -4949.511    2.1828003    14.191346    0.1117613 
   51700   -949.70564    36.272243   -913.43339    1299.1402   -6494.8299    2.1747328    13.853591   0.12253565 
   51800   -954.36642    36.942023    -917.4244    1323.1293    1544.4013    2.2032578    12.957707   0.10108329 
   51900   -957.83763    40.558597   -917.27904    1452.6619    13489.967     2.237197    14.053655   0.10279177 
   52000   -950.87525    40.574975   -910.30028    1453.2484    5545.5262     2.204245     14.69063   0.12415907 
   52100   -954.17572    38.155275   -916.02044    1366.5836   -12861.077    2.1657548    12.437394   0.12722013 
   52200   -954.20683     37.30695   -916.89988    1336.1997   -10700.407    2.1693036    15.662027    0.1275229 
   52300   -954.53387    44.969782   -909.56408    1610.6545     19.60751    2.1972041    13.805739   0.12462971 
   52400   -953.50126    38.788707   -914.71255    1389.2708    10228.796    2.2203644     13.69956  0.096542898 
   52500   -955.39262    38.185996   -917.20662    1367.6839    2387.4339    2.2035334    15.195868    0.1040142 
   52600   -955.19517    42.921618   -912.27356    1537.2967   -7714.8723    2.1779925    14.614111   0.11580307 
   52700   -951.42094    38.158566   -913.26238    1366.7015   -4721.0198    2.1794248     12.92966   0.11485098 
   52800   -956.80613    38.373798   -918.43234    1374.4103    774.18005    2.2055326    15.685314   0.10679161 
   52900    -954.3047    40.909956   -913.39475    1465.2463    6541.7521    2.2119525    14.210928   0.10044879 
   53000   -956.19923    41.924957   -914.27427    1501.5999   -652.13486    2.1993894    13.702112   0.10470444 
   53100    -954.9635    34.499086   -920.46441    1235.6322   -1917.9902    2.1955836    14.621053   0.11411085 
   53200   -952.74269    38.211976   -914.53071    1368.6144   -3421.3103    2.1854536    12.845631   0.13129863 
   53300   -953.41413    39.337943   -914.07619    1408.9424    1182.9284     2.198329    14.272556   0.12238847 
   53400   -957.19355    36.370068   -920.82348    1302.6439    8111.8135    2.2243883    13.646766    0.1153044 
   53500   -953.84307    40.031745   -913.81132    1433.7919    2554.9745    2.2005124    14.471527   0.10836748 
   53600   -954.07803    39.781439   -914.29659    1424.8269   -6743.4493    2.1780195    14.446079   0.10996616 
   53700   -954.72384    35.446978   -919.27686    1269.5822   -7154.4714    2.1799258    13.474176   0.10640317 
   53800   -952.67701    37.263548   -915.41346    1334.6452    4618.2258     2.205567    13.777002   0.11105251 
   53900   -950.39918     38.83617   -911.56301    1390.9708    17465.167    2.2307633     14.35958   0.10180242 
   54000   -955.79008    39.049208   -916.74087     1398.601    3120.3112    2.2074921    15.124719   0.10930253 
   54100   -953.00544    37.084379   -915.92107     1328.228    -12098.83    2.1661044    12.309228   0.10541133 
   54200    -950.7134    41.200709   -909.51269      1475.66   -10892.566    2.1602923    14.246665   0.10745234 
   54300   -956.59225     39.88548   -916.70677    1428.5533     3481.274    2.2102659    12.496504   0.10732604 
   54400   -953.73413    37.810496   -915.92363    1354.2348    10528.319    2.2219515    12.914844   0.11872963 
   54500   -954.07976    43.930277   -910.14948    1573.4232    -1111.361    2.1930078    14.699178   0.12520488 
   54600   -953.22394    36.381939     -916.842    1303.0691   -4199.3685    2.1855705    14.518239   0.10771581 
   54700   -955.23126    38.087722   -917.14353    1364.1641   -5532.3676    2.1845411    12.058819   0.10068315 
   54800    -953.8139    41.710975   -912.10293    1493.9358    2009.1546    2.1949205    15.471545  0.097977598 
   54900   -957.44991    39.720088   -917.72982    1422.6295    4714.8757    2.2127999    15.122684  0.099882007 
   55000   -954.05412    35.490883   -918.56324    1271.1547    1216.2916    2.2038308    13.576284    0.1057439 
   55100   -952.89266    39.318505   -913.57415    1408.2463   -4003.0659    2.1848376    16.071659   0.10197491 
   55200   -954.44613    38.840405   -915.60572    1391.1225   -4636.1621    2.1854904    15.667717   0.10126613 
   55300   -956.72726    36.200406   -920.52685    1296.5673    2908.9742    2.2088852    13.794043   0.10395954 
   55400   -955.87302    42.636809   -913.23621    1527.0959    4388.1879     2.209698    12.434091   0.10143478 
   55500   -955.53383    40.299028    -915.2348     1443.365    1682.9974    2.2037604    13.609478   0.10681418 
   55600   -956.56373    35.681734     -920.882    1277.9903   -8094.4639    2.1848365    14.944111   0.11162488 
   55700   -951.29632     38.27502    -913.0213    1370.8724    -12005.16    2.1619517    13.482532   0.12657353 
   55800    -952.6754     38.52898   -914.14642    1379.9683    5561.0942    2.2088236    12.908618   0.11866909 
   55900   -956.78243    39.873651   -916.90878    1428.1296    15953.961    2.2394488    14.549359  0.099520782 
   56000   -950.60872     39.75197   -910.85675    1423.7714    5521.5033    2.2006859    13.490546   0.10768259 
   56100    -953.3956    40.666017   -912.72959    1456.5093   -10045.182    2.1688546    13.671006   0.11124925 
   56200   -955.12604     37.56049   -917.56555    1345.2805   -7774.5477    2.1799546    16.816281   0.10024376 
   56300   -951.30178    37.749822   -913.55196    1352.0617    3779.8828    2.2012414    15.610123   0.10656933 
   56400    -952.2639    42.199734   -910.06416    1511.4414    5274.7089    2.2016775    12.376044   0.10767947 
   56500   -956.10626    38.688302   -917.41796    1385.6747    1282.5321    2.2030835    14.667066  0.099308573 
   56600   -954.29261    39.277139   -915.01547    1406.7647   -4286.0471    2.1864204    11.918804   0.10060287 
   56700   -953.66193    43.096688   -910.56525    1543.5671   -5488.1546    2.1791259    12.562458   0.10745678 
   56800   -959.18882    39.927496   -919.26132    1430.0581    1399.7137    2.2097896    12.766452  0.095129647 
   56900   -956.70032    40.486753   -916.21357    1450.0887    2822.5248    2.2082741    13.921234   0.10446048 
   57000   -954.12353    41.402662   -912.72087    1482.8932   -1787.2741    2.1918833    16.924347   0.10809857 
   57100   -957.88164    39.363612   -918.51803    1409.8618   -7306.6578    2.1869046    15.760953  0.094305058 
   57200   -954.17431    35.589983   -918.58433    1274.7041   -2842.6824    2.1888584    14.889408  0.088676754 
   57300   -954.95349    41.612519   -913.34097    1490.4095    3901.3127    2.2039275    14.443841  0.094883583 
   57400   -954.41646    38.280412   -916.13604    1371.0655    11843.007    2.2262273    15.149199  0.095424626 
   57500   -956.89516    36.136661    -920.7585    1294.2842     1844.282    2.2075132    12.432333  0.097043151 
   57600   -953.82424    40.263752   -913.56048    1442.1016   -16445.086    2.1543282    13.947996   0.11069289 
   57700   -951.85062    36.759172   -915.09145    1316.5802   -7854.7491    2.1712436    13.250421  0.098024991 
   57800   -958.50083    39.520388   -918.98045     1415.477    7910.3242    2.2249106    12.643929  0.095324253 
   57900   -953.87946    42.777416   -911.10204    1532.1319     9720.775    2.2176567    13.889114   0.10252232 
   58000   -953.94753    40.147404   -913.80012    1437.9344   -77.073918    2.1964391    14.732563  0.097350795 
   58100   -957.73693    39.428929     -918.308    1412.2012   -9033.4952    2.1844389    13.850324  0.099342259 
   58200   -951.98431    39.403827   -912.58048    1411.3022   -2383.0382     2.184014    16.152358  0.093762862 
   58300   -952.04126    39.989942   -912.05132    1432.2947    2818.8568    2.2002151    12.532835   0.10354573 
   58400   -955.72599    38.621634   -917.10435    1383.2869     3459.063    2.2091344    13.615905  0.089009625 
   58500   -952.00587    38.083826   -913.92205    1364.0246    691.24475    2.1946406    13.116236  0.097634702 
   58600   -952.04827    41.546165    -910.5021     1488.033   -5421.2079     2.174745    13.260983    0.1041141 
   58700    -954.5883    36.631155   -917.95714    1311.9951     794.2949    2.1961355    13.978269  0.094954403 
   58800   -956.67751    42.006053   -914.67146    1504.5045    2457.4987    2.2077131    13.758081  0.097785424 
   58900   -951.46477    40.877494   -910.58727    1464.0836    4040.0185    2.1997506    15.840623   0.10648539 
   59000    -958.4273     39.39804   -919.02926    1411.0949   -3050.2103     2.197334    12.244523   0.10332008 
   59100   -952.69873    36.368383   -916.33035    1302.5836   -7813.0609    2.1722589    13.839765   0.10518287 
   59200   -954.00492    41.019747   -912.98517    1469.1786   -5195.1531    2.1801271      12.1475   0.11869316 
   59300   -958.85956     39.54617   -919.31339    1416.4004    10716.106    2.2323831    14.314252  0.098606467 
   59400   -956.24709    38.282644   -917.96445    1371.1455    14822.626     2.234599    14.169563   0.10142115 
   59500   -953.06788    39.086905   -913.98097    1399.9512   -6346.1279    2.1806069    13.812072     0.111272 
   59600   -953.60021    38.019309    -915.5809    1361.7138   -14833.846    2.1574308    13.390556   0.10422997 
   59700   -958.27966    37.032944   -921.24672    1326.3858   -2991.6411    2.1980517    12.947004  0.095341196 
   59800   -952.56207    39.135316   -913.42675    1401.6851    7431.6623    2.2117247    14.104742  0.097095288 
   59900   -954.41211    40.132658   -914.27945    1437.4063    7155.7863    2.2129529     12.99409   0.11032463 
   60000   -952.99687    34.181011   -918.81586    1224.2399    420.17475    2.1983179    14.236214    0.1045884 
   60100   -952.46686     39.22971   -913.23715    1405.0659    -5037.632    2.1799941    12.654935   0.11215026 
   60200   -955.30095    42.785992   -912.51496    1532.4391   -2846.8056     2.189643    15.386902   0.10889211 
   60300   -954.98937    38.507313   -916.48206    1379.1923    4050.4907    2.2074651    14.534824   0.10625175 
   60400    -955.8826    39.190203    -916.6924    1403.6509    3818.5869    2.2063098    12.610917   0.10211317 
   60500   -951.63335    42.458297   -909.17505    1520.7022   -4857.9521    2.1753357    13.819867   0.10602778 
   60600   -955.90331    39.667468   -916.23584    1420.7448   -3997.1625    2.1878047    11.842418  0.095560797 
   60700   -953.02193    36.905257   -916.11668    1321.8125    2512.2066    2.2016581    15.466966  0.096408513 
   60800   -951.07307    41.956248   -909.11682    1502.7206    6757.4427    2.2036708    13.517743   0.10048613 
   60900    -955.1756    39.713713   -915.46189    1422.4012    3298.3681    2.2041417    12.993829  0.088250507 
   61000   -953.89631    36.820011    -917.0763    1318.7593   -9751.2124    2.1729484    13.749643   0.10563153 
   61100   -953.70515    40.860181   -912.84497    1463.4635   -9829.5789    2.1659388    12.588906  0.097917364 
   61200   -958.02872    42.916934   -915.11179    1537.1289    5127.2824     2.213959    13.311129   0.09318384 
   61300   -957.18069     38.62747   -918.55322    1383.4959    15664.387    2.2410793    15.002346  0.098136713 
   61400   -954.55535    40.242405   -914.31294     1441.337    1899.5804    2.2007645    13.065303   0.11072115 
   61500   -954.84749    40.141346   -914.70615    1437.7174   -10966.247    2.1671577    14.408409   0.10659509 
   61600   -957.39328    35.394353   -921.99893    1267.6974   -5718.3393    2.1904256    15.888537  0.099437435 
   61700   -956.04975    40.500297   -915.54945    1450.5738    2751.8294    2.2035626    13.070921   0.10519534 
   61800   -955.10167    41.262027   -913.83965    1477.8562    4355.2436    2.2093486     13.01971   0.10078446 
   61900   -955.62382     36.33464   -919.28918     1301.375    944.77151    2.2035684    13.849544   0.10364991 
   62000   -954.84827    36.538024   -918.31025    1308.6595   -2702.2939    2.1907387    15.025409   0.10556174 
   62100   -952.31728    39.044041   -913.27324     1398.416   -2789.4675    2.1837302    14.765335   0.10604634 
   62200   -954.89303    38.716466   -916.17657    1386.6834    62.396633    2.1959025    13.183056   0.10057902 
   62300   -954.44383    35.635138   -918.80869    1276.3214    4525.3799    2.2095273    13.491857  0.096691755 
   62400   -949.21484    39.225633   -909.98921    1404.9199    3428.5476    2.1899632    13.049185   0.10900739 
   62500   -951.72525    37.926986   -913.79826    1358.4071    1201.4735    2.1929918     14.92365   0.10762963 
   62600   -956.06253    38.988894   -917.07363    1396.4408   -1620.9052    2.1950379    13.977415   0.10847902 
   62700   -954.89567    41.103164   -913.79251    1472.1663   -1002.3711    2.1944445    14.072214   0.10784781 
   62800   -954.40894     44.23177   -910.17717    1584.2216   -1067.6263    2.1916837    14.612375   0.10723944 
   62900   -955.86816    39.575297   -916.29287    1417.4436   -1254.5097    2.1939252    12.090207   0.10349981 
   63000   -955.76582    39.956364   -915.80946     1431.092   -2552.9072     2.190475    12.976593   0.10486637 
   63100   -949.63071    41.332259   -908.29845    1480.3716   -145.52645     2.181062    14.727458   0.10922289 
   63200   -952.50546    36.381619   -916.12384    1303.0577     6640.248    2.2095702     12.74501   0.10758531 
   63300   -956.73233    40.467895   -916.26444    1449.4132    164.54698     2.200055    15.141947  0.099982465 
   63400   -952.62978    40.350341   -912.27944    1445.2029   -5161.2856    2.1795741    14.009312  0.097547081 
   63500   -952.50574    40.742963   -911.76278    1459.2652    -4633.385    2.1768435    14.874196   0.10630586 
   63600   -955.38512    37.197499   -918.18762    1332.2795    3979.7783     2.208999    15.271073   0.10255895 
   63700   -951.77043    37.317117   -914.45332    1336.5638    11643.656    2.2185583    14.531382   0.10451172 
   63800   -953.99657    40.212447   -913.78412     1440.264    1951.9657    2.1949304    14.033871   0.10561684 
   63900   -960.70859    38.825096    -921.8835    1390.5741   -9396.8546    2.1880035    14.685344  0.095001824 
   64000   -955.70344    38.852875   -916.85056    1391.5691   -8318.3495    2.1779914    13.579116   0.10951893 
   64100   -952.26657    38.729184   -913.53738    1387.1389    4955.4203    2.2013734    13.273542  0.094043849 
   64200   -955.79624    38.069687   -917.72655    1363.5181    11883.251    2.2265286    13.643559  0.096572964 
   64300   -957.06521    36.466048   -920.59916    1306.0816    3414.1741    2.2135915    12.574136  0.092421503 
   64400   -954.43176    40.491798   -913.93996    1450.2693   -8589.3297    2.1730531    12.222906  0.098850966 
   64500   -953.10353    37.224734    -915.8788     1333.255   -6980.3288    2.1762053    13.669651   0.11083932 
   64600   -957.78551    37.678018   -920.10749      1349.49    2703.0383    2.2119958    14.279736  0.085840981 
   64700   -955.03076    42.817844   -912.21291    1533.5799    4932.1586    2.2096021    13.770024   0.11063379 
   64800    -953.8415    40.141496   -913.70001    1437.7228    2982.8985    2.2013119    14.047835   0.10945672 
   64900   -953.41609    36.155046   -917.26104    1294.9426   -1951.6946    2.1942667    13.125453   0.12051136 
   65000   -953.48701    38.650096   -914.83692    1384.3063    -301.0244    2.1923344    14.662074   0.11573956 
   65100   -952.92712    42.500552   -910.42657    1522.2156   -2629.2987    2.1886227    13.213776   0.12087653 
   65200   -955.06997     39.01536   -916.05461    1397.3887    252.81562    2.1990195    14.522221   0.11590378 
   65300   -956.46325    40.089691   -916.37356    1435.8674   -44.614198    2.1997149    15.880773    0.1029686 
   65400   -949.14434    40.734758   -908.40958    1458.9713   -1242.3521    2.1820558    14.558759   0.11820504 
   65500   -953.88319    38.240909   -915.64228    1369.6507    1681.3345    2.2014911    15.605266   0.10590473 
   65600   -952.86658    36.391292   -916.47529    1303.4041    417.55553    2.1984779    13.283867   0.12197965 
   65700   -951.45826     39.83987   -911.61839    1426.9197   -1778.2031    2.1855273    15.368452   0.12421226 
   65800   -950.94485    39.443032   -911.50182    1412.7064    -900.6686    2.1848258    12.999674   0.10776334 
   65900   -954.86511    37.483123   -917.38199    1342.5095    2402.7722    2.2059295     13.47807   0.11081229 
   66000   -952.79621    38.550512    -914.2457    1380.7395     7396.154    2.2130268    13.066452   0.11685172 
   66100   -954.45883    42.066746   -912.39208    1506.6783   -474.56041    2.1973864     14.87434   0.12469962 
   66200   -957.09901    36.493024   -920.60599    1307.0478   -5123.5312    2.1898236     14.84516   0.11349067 
   66300   -956.96189     39.51493   -917.44696    1415.2815   -11086.348    2.1764046     13.40615   0.10888914 
   66400   -956.38963    42.403696   -913.98593    1518.7466   -24.677187    2.1983442    13.664004   0.11378337 
   66500   -956.22782    39.491625    -916.7362    1414.4468    9506.5216    2.2250888    14.502679  0.098041746 
   66600   -959.66853    38.656808   -921.01172    1384.5467    4874.8366    2.2215037    13.053629  0.096119347 
   66700   -950.15854    35.653739    -914.5048    1276.9876   -5435.3422    2.1779253    13.589307   0.11189166 
   66800   -955.51628    40.301345   -915.21494     1443.448   -10689.514    2.1727767    12.743539   0.10705362 
   66900    -957.0689    36.123863   -920.94504    1293.8258    892.23661    2.2101404    13.498201   0.10332601 
   67000   -952.49157    37.042241   -915.44933    1326.7187    13340.615    2.2234599    14.264454    0.1061008 
   67100   -952.53848    38.987979    -913.5505     1396.408    6183.4494    2.2093161    13.261632   0.11057709 
   67200   -954.04457    36.963175    -917.0814    1323.8869   -4378.6901    2.1875761    13.978929   0.10740185 
   67300   -956.80482    37.767721    -919.0371    1352.7028   -5847.5234    2.1905816    13.254836   0.11015554 
   67400   -948.28897     37.90118   -910.38779    1357.4828   -60.080146    2.1857967    14.377377   0.11361656 
   67500   -952.09753    38.064073   -914.03345    1363.3171    4609.1873    2.2058512     11.72936   0.11875249 
   67600   -957.44316    40.637708   -916.80545    1455.4953    1874.2697    2.2079126    12.912862  0.095587437 
   67700    -952.8958    40.560683   -912.33512    1452.7366    1541.4564    2.1915767    10.753305   0.10087082 
   67800    -951.1828    40.365031   -910.81777     1445.729   -3131.8853    2.1807382    14.042759   0.11764224 
   67900   -954.47098    37.786818   -916.68417    1353.3868   -1320.8966    2.1914037    13.249571   0.10193546 
   68000   -956.81419    41.837335   -914.97685    1498.4616    576.53069    2.2013687    15.165209   0.10169208 
   68100   -950.58268    42.595084    -907.9876    1525.6015    3188.1028    2.1930877    15.181193    0.1075666 
   68200   -956.08787    39.863821   -916.22405    1427.7775    1305.6096    2.2028531    13.876111   0.10524675 
   68300   -953.96283    37.805903   -916.15692    1354.0703   -3895.8178    2.1848113    12.000034   0.11074465 
   68400   -952.10802    39.787117    -912.3209    1425.0302   -6548.8379    2.1743853    15.500289   0.11169894 
   68500   -951.98454    41.216827   -910.76772    1476.2373    1726.7538    2.1958417     13.37063   0.11768921 
   68600   -952.79596    34.746585   -918.04938    1244.4967    18620.043    2.2381425    10.648505   0.10779432 
   68700   -953.16252     38.23478   -914.92774    1369.4312    7661.2058     2.212054    15.900868   0.11664999 
   68800   -950.81139    36.352986    -914.4584    1302.0321   -8855.5601    2.1635495     13.63501  0.098374469 
   68900    -957.8915    37.086081   -920.80541    1328.2889   -13837.831    2.1701184    14.716183  0.092182819 
   69000   -958.05448    39.527277   -918.52721    1415.7237    569.98104    2.2045346    13.381772  0.099091257 
   69100   -954.29858    40.966976    -913.3316    1467.2885    8135.6292    2.2156695    14.660879    0.1020287 
   69200   -952.58161    36.039837   -916.54178    1290.8163    5739.6441    2.2026282    15.532924   0.10674951 
   69300   -957.78718    35.610641   -922.17654     1275.444   -4746.3481    2.1925043    15.927027  0.091820336 
   69400   -954.08605    40.210128   -913.87592    1440.1809    -6359.083    2.1760086    12.882496   0.09884747 
   69500    -955.6416    41.098123   -914.54348    1471.9857     2705.072    2.1996499    13.718116   0.10434838 
   69600   -957.69486    40.104399   -917.59046    1436.3941    4938.2572    2.2157047    12.981028  0.098434369 
   69700   -956.59155    34.681874   -921.90967     1242.179    2942.2637    2.2099169    12.080245    0.1047304 
   69800   -952.09612    38.696495   -913.39962    1385.9681   -6000.9688    2.1736898    13.731562   0.11528057 
   69900   -952.71857     38.43117   -914.28741    1376.4651   -569.38345    2.1889167    11.939839   0.11100868 
   70000   -955.65817    40.301222   -915.35695    1443.4436    5391.3693    2.2115088    14.762962  0.095452272 
   70100    -955.5048    37.259563   -918.24524    1334.5024    5581.2982    2.2130514    14.238488  0.092176509 
   70200   -958.37665    34.115774   -924.26087    1221.9033   -2833.2622     2.198562    14.464934  0.095887215 
   70300   -957.27483    37.122061   -920.15277    1329.5776    -8223.809    2.1825044    13.861057  0.097555545 
[...]
  186800   -952.54628    37.375877    -915.1704    1338.6684     1207.121    2.1969482    45.443462  0.091396271 
  186900   -952.10041    39.240742   -912.85967    1405.4611   -1077.4624    2.1881363    42.912773   0.11290764 
  187000   -955.56823    37.885377   -917.68285    1356.9168   -2929.9938    2.1948199    49.495559    0.1066635 
  187100   -951.05265    35.275779   -915.77687    1263.4505    2451.7522    2.1961647    42.828143   0.10144521 
  187200   -953.19207    42.347753   -910.84431    1516.7429   -50.208708    2.1929218    47.206509  0.098267879 
  187300   -956.78333    39.954395   -916.82893    1431.0215    1488.8358    2.2012389    43.627616  0.096454905 
  187400   -954.30552    38.334224    -915.9713    1372.9929   -2743.4043    2.1927412    47.700169   0.10621139 
  187500   -949.27602    39.517827   -909.75819    1415.3852   -5235.1233    2.1729063    46.742081   0.11294931 
  187600   -954.80888    37.240467   -917.56841    1333.8185    1895.5303    2.2022262    40.991035   0.10432772 
  187700   -954.67359    39.163136   -915.51045    1402.6815    6838.0582    2.2127387    46.356233  0.099891208 
  187800   -953.11298    42.376428   -910.73655      1517.77    1607.0342    2.1936429    41.290883   0.11080027 
  187900   -953.90549    36.030616   -917.87488     1290.486   -3611.4005    2.1847977    44.431632   0.11685659 
  188000   -956.75955    39.499488   -917.26006    1414.7284    -9499.853    2.1781791    46.126878   0.10567877 
  188100   -952.93576    40.404835   -912.53092    1447.1547    1241.2641    2.1919733    43.275785  0.098326535 
  188200   -958.24271    39.977698   -918.26501    1431.8562    7605.8966    2.2217762    44.720685   0.09800574 
  188300   -955.92198    37.215297   -918.70668     1332.917    3001.3092    2.2094522    43.744245   0.11228093 
  188400   -951.27109    37.594056   -913.67703    1346.4827   -5584.8029    2.1782568    47.643403   0.11137541 
  188500   -954.44312    38.591407   -915.85171    1382.2042   -7579.5933    2.1750569    43.583207  0.096896469 
  188600    -955.5447    35.163404    -920.3813    1259.4256    4268.9325    2.2090841    43.536341  0.091586862 
  188700    -955.3958    42.794336   -912.60146    1532.7379     7081.177    2.2124004    44.758807   0.10853136 
  188800   -953.92276    38.877138   -915.04563    1392.4381     3936.994    2.2028579     46.60868   0.11357953 
  188900   -956.68012    36.628698   -920.05142    1311.9071   -5341.3278    2.1890452    45.113356   0.12338223 
  189000   -949.25286    37.085991   -912.16687    1328.2857   -4752.5001    2.1742573    42.175729    0.1104602 
  189100   -955.23282    41.268994   -913.96382    1478.1057     2338.775    2.2040827    42.086758   0.11276546 
  189200   -957.59172    40.344051   -917.24767    1444.9776    8385.7426    2.2257693    45.926683   0.11380241 
  189300    -952.5666    41.017424   -911.54918    1469.0954    2688.4319    2.1973128    45.534923   0.11693723 
  189400   -953.45978    41.040489   -912.41929    1469.9215   -16441.727    2.1554775    45.936848   0.12105596 
  189500   -954.53616    36.557354    -917.9788    1309.3518   -14977.555     2.160251    42.926944  0.096586879 
  189600    -956.5036    42.558274   -913.94533     1524.283    8266.4902    2.2178917    45.706329   0.10969986 
  189700   -953.97542    45.000753   -908.97466    1611.7638    16205.027    2.2312213    44.789499   0.10991875 
  189800   -956.14308    38.641059   -917.50202    1383.9826    2690.7619    2.2053514    46.303317   0.11204796 
  189900   -953.67145    37.318055   -916.35339    1336.5974   -9337.4714    2.1754886    43.053503   0.11386248 
  190000   -952.49516    40.668105   -911.82706     1456.584   -7324.3114    2.1741227    39.711067   0.11666386 
  190100   -955.45119    35.806973   -919.64422    1282.4759    4334.9617    2.2124012    43.679099    0.1234463 
  190200   -955.52837    38.399595   -917.12878    1375.3342    6130.4401    2.2139795    42.758954   0.12904785 
  190300   -951.96105    38.972024   -912.98902    1395.8366    1097.9381    2.1923685     44.73056   0.11552126 
  190400   -952.25261    34.824889   -917.42773    1247.3012   -4164.6838    2.1844969    47.106165   0.11756436 
  190500   -955.05734    35.813964   -919.24337    1282.7263   -1937.4345    2.1937082    43.550515   0.10820507 
  190600   -953.65266    40.633589   -913.01907    1455.3478    2783.2695    2.2016265    44.975662   0.11153157 
  190700   -953.68755    37.361438   -916.32612    1338.1512    5986.8157    2.2114363    48.137259   0.10889338 
  190800   -959.37335    38.764257   -920.60909    1388.3951    -2167.223    2.2018681    45.881255  0.096206028 
  190900   -954.66838    42.004714   -912.66366    1504.4565   -11024.129    2.1703282    43.045457   0.11373229 
  191000   -953.80487    37.965101   -915.83977    1359.7722   -3797.6843     2.187438    44.447383   0.12142483 
  191100   -958.00066    39.839604   -918.16106    1426.9101    6613.6518    2.2199361    47.850405   0.11997853 
  191200   -952.53013    42.714818   -909.81532    1529.8899    7485.2059    2.2082305    44.110998   0.10825079 
  191300   -953.91842    39.298468   -914.61995    1407.5286   -2604.1989    2.1874203    43.638919    0.1121207 
  191400   -953.89838    35.906607   -917.99177    1286.0444   -9225.0741    2.1724608    41.626057   0.10280288 
  191500   -952.64707    40.968941   -911.67813    1467.3589   -3057.2658    2.1831235     45.96452   0.12013298 
  191600   -952.61157    40.824452   -911.78712    1462.1838    10672.745    2.2188548    43.694642   0.11769573 
  191700   -954.74277    38.500975   -916.24179    1378.9653    9028.0228    2.2178168    43.875708   0.11070569 
  191800   -955.01293    40.047379   -914.96555    1434.3519   -5618.4471    2.1810279    43.486238   0.10816441 
  191900   -950.20685    41.257094   -908.94975    1477.6795   -11000.678    2.1573014     43.76052   0.11441354 
  192000   -957.23626    39.262004   -917.97426    1406.2226    183.88066    2.2032311    44.210289   0.11190069 
  192100   -955.51127    39.887701   -915.62357    1428.6328    6253.5402    2.2124249    44.628758   0.12035849 
  192200   -952.84507    40.359772    -912.4853    1445.5407     2419.106    2.1970828    44.631424   0.11365468 
  192300   -956.79652    39.666135   -917.13038    1420.6971   -4776.5604    2.1912756    42.447752   0.10493359 
  192400   -957.23107    38.305672    -918.9254    1371.9702   -4390.2506    2.1946572    43.888667   0.11592932 
  192500   -954.05417    39.392124   -914.66205     1410.883      2179.02    2.2007348    41.767334   0.11933252 
  192600   -951.48084    38.002044    -913.4788    1361.0954    5521.9202    2.2069931    46.748288   0.12813889 
  192700   -957.49248    35.875378    -921.6171    1284.9259    3893.9993    2.2142394    44.679661   0.11540443 
  192800   -953.21977    37.139268    -916.0805    1330.1939   -4701.6026    2.1857976    43.105074    0.1229532 
  192900   -952.79713    38.631412   -914.16572    1383.6371   -4878.5005    2.1829331    41.356644    0.1252156 
  193000   -956.77467     38.17417    -918.6005    1367.2603    1035.4609    2.2073791    44.054973   0.11841948 
  193100   -958.41335    38.516877   -919.89647    1379.5348    7005.0629    2.2252203    45.585648   0.10481015 
  193200   -951.15383    37.806298   -913.34753    1354.0845    2983.7022    2.2012356     42.76847   0.11277013 
  193300   -952.61473     36.30748   -916.30725    1300.4023   -7507.0649    2.1759258     44.01892   0.11410128 
  193400   -955.56063    35.608802   -919.95182    1275.3782    -7922.639    2.1824775    42.974203   0.12129316 
  193500   -950.98673     37.19114   -913.79559    1332.0518    7543.3004    2.2105457    44.591648   0.12581805 
  193600   -956.06809    43.450722   -912.61736    1556.2473    12978.718    2.2303275    44.302316   0.10131181 
  193700   -955.73925    39.648298   -916.09095    1420.0582    1267.4015    2.2006708    41.128651   0.10640489 
  193800   -953.85851    37.565015    -916.2935    1345.4426   -8940.8796     2.175331    43.968482   0.11746546 
  193900   -951.28576    43.629997   -907.65576    1562.6683   -6436.2943    2.1709971    46.553402   0.13015557 
  194000   -954.03748    39.690851   -914.34663    1421.5823    5431.3402    2.2091676    44.186535   0.12017711 
  194100   -955.85628    39.671969   -916.18431    1420.9061    4529.2311    2.2112574    45.235163   0.10760463 
  194200   -953.89867    41.138428   -912.76024    1473.4293    655.96659    2.1941633    42.818145   0.11731802 
  194300   -948.82501     39.43716   -909.38785    1412.4961   -5620.1128    2.1712718    47.873424   0.13174956 
  194400   -955.06135    38.150468   -916.91088    1366.4114   -950.20701    2.1949713     44.55058   0.11705611 
  194500   -955.71461    40.934037   -914.78058    1466.1088    4564.6737    2.2106006    51.596843   0.11726992 
  194600   -952.91723    42.866685   -910.05054    1535.3292     4540.774    2.2010548    46.204553   0.11058582 
  194700   -951.52479    37.662004   -913.86279    1348.9164   -3304.6115    2.1815856     49.72504    0.1180025 
  194800   -956.28364    39.219137   -917.06451    1404.6872   -10035.805    2.1762675    39.378021   0.12200784 
  194900   -955.71281     41.08951    -914.6233    1471.6772   -318.09925     2.197792    47.523509   0.11917675 
  195000   -953.06921    39.838459   -913.23075    1426.8691     9295.323    2.2182663    40.670015   0.11240308 
  195100     -955.833    34.296316   -921.53669    1228.3697    4196.6448    2.2143337     42.92588   0.11352948 
  195200   -955.80708    36.808523   -918.99856    1318.3478   -8443.5122    2.1787838    44.348168    0.1228689 
  195300   -954.88371    39.312544   -915.57117    1408.0328   -6482.6328    2.1821621    43.813411   0.11237158 
  195400   -955.98163    42.639631     -913.342    1527.1969    1981.1519    2.2038883    47.949205   0.12058172 
  195500   -958.76204    37.837269   -920.92477    1355.1938    4190.1741    2.2174941     47.54885   0.11169111 
  195600   -955.16576    37.283826   -917.88193    1335.3714    -736.0641     2.198556    47.101181   0.10775876 
  195700   -954.85975    40.628018   -914.23173    1455.1483   -3790.5808    2.1901216    42.154853   0.12281717 
  195800   -954.62503    37.929785   -916.69525    1358.5074   -1381.5851    2.1954999    44.044956   0.10830282 
  195900   -960.90517    39.219113   -921.68605    1404.6864    26.081415    2.2118729    42.588298   0.10983573 
  196000   -953.96947    40.108395   -913.86107    1436.5373    565.67299    2.1965558    45.531799   0.11817158 
  196100   -955.14787    40.005581   -915.14229    1432.8548   -816.51826    2.1954984    44.213135   0.10695102 
  196200   -956.14352    36.116502   -920.02702    1293.5621   -1094.4895    2.2014826    42.503929   0.11409297 
  196300    -956.6194    38.867104   -917.75229    1392.0787    981.27644    2.2053724    48.211771   0.10594207 
  196400   -952.52399    39.024097    -913.4999    1397.7016     2718.227    2.2045533    43.697637   0.12740333 
  196500   -955.00175      39.1454   -915.85635    1402.0463   -2602.9164    2.1956398    46.345636   0.11078451 
  196600   -958.39779    39.994266   -918.40353    1432.4496   -7607.6479    2.1867886    45.257296   0.10136863 
  196700   -960.67048    35.037484   -925.63299    1254.9156    -3911.589    2.2054831     41.10476   0.11563145 
  196800   -957.61977     37.49601   -920.12376    1342.9711    4592.0324     2.219281    45.619503   0.10588555 
  196900   -953.77647    37.316447   -916.46002    1336.5398    10953.226    2.2238738     38.88519   0.10466207 
  197000      -954.35    39.595997   -914.75401     1418.185   -516.46082    2.1964133    39.178105    0.1029502 
  197100   -951.77196     37.62457   -914.14739    1347.5757   -10679.078    2.1685091    42.499375   0.11555936 
  197200   -958.29662    35.730171   -922.56644    1279.7251   -3988.8915    2.1981647    44.710048   0.10549136 
  197300   -954.55079    37.817318   -916.73347    1354.4792    6314.4607    2.2154744    45.998772   0.10715458 
  197400   -953.15087    39.532357   -913.61852    1415.9057    7015.9599    2.2150426    42.921861    0.1090987 
  197500   -953.29099    36.733675   -916.55732     1315.667   -527.28172    2.1958371     41.91524   0.10516988 
  197600   -957.15433    35.773675   -921.38066    1281.2833   -6427.0409    2.1912319    43.871083   0.11468501 
  197700   -954.87461    40.087329   -914.78728    1435.7828   -3987.6106    2.1913019    47.488482   0.11942241 
  197800   -955.23127    40.721499   -914.50977    1458.4964    2661.1774    2.2080605    41.110957   0.11000862 
  197900    -960.7673     39.54956   -921.21774    1416.5218    1827.6008    2.2194381    43.038652   0.11206077 
  198000   -954.96001    39.525597   -915.43441    1415.6635   -2542.0414    2.1937471    42.918573   0.10775713 
  198100   -951.97418    37.936251   -914.03793    1358.7389   -3929.5127    2.1852163    45.263025   0.11298323 
  198200    -953.2007    36.179169   -917.02153    1295.8066   -2406.6153    2.1930682    46.920205    0.1107208 
  198300   -959.25121    38.882695   -920.36851    1392.6371     4784.946    2.2201138    42.582247   0.10605431 
  198400   -950.32617    38.599961   -911.72621    1382.5106    8949.5462    2.2119013      44.2325   0.10858848 
  198500   -952.19287    38.372113   -913.82076    1374.3499    775.47691    2.1930989    46.876771  0.097290866 
  198600   -950.17059     33.27582   -916.89477    1191.8192   -6038.2602    2.1768482    45.431153   0.10588471 
  198700     -952.359    38.265662   -914.09334    1370.5372   -2205.1229    2.1847445    51.595311  0.098466525 
  198800   -949.73078    40.317535   -909.41324    1444.0279     8044.161    2.2038097    44.430988   0.11921015 
  198900   -956.19173     40.94824   -915.24349    1466.6174    5977.2764    2.2125687    40.218924   0.11619818 
  199000   -954.80269    38.301196   -916.50149    1371.8099   -2529.0179    2.1913936    43.193256   0.11199708 
  199100   -950.31135    41.404183   -908.90716    1482.9477    -8861.446    2.1655052    40.007811   0.11776225 
  199200   -954.97421    40.972475   -914.00173    1467.4855   -954.09433    2.1927412    44.069108  0.096955125 
  199300   -955.09484    39.019528   -916.07531     1397.538    6849.8454    2.2136694    43.745843   0.10434433 
  199400   -954.24713    39.920921   -914.32621    1429.8226    3811.3743    2.2076364    44.095166   0.10747534 
  199500   -950.30652    42.220622    -908.0859    1512.1896   -4734.4947    2.1746183    45.713261   0.12036637 
  199600   -953.04131     37.38417   -915.65714    1338.9654   -4870.9701    2.1825866    48.114761   0.10806297 
  199700   -953.55118    37.310411   -916.24077    1336.3236   -1607.5686    2.1955065    44.069702  0.098789271 
  199800   -956.68445    42.426608   -914.25784    1519.5673    6208.3443    2.2171373    44.149036   0.10998445 
  199900   -952.93597     36.99421   -915.94176    1324.9984    9317.3447    2.2199042    40.368014     0.109083 
  200000   -957.44054    35.590068   -921.85047    1274.7072   -3758.9889    2.1998626    41.439742   0.12020339 
  200100   -954.94697    38.418282   -916.52869    1376.0035   -13006.208    2.1698905    44.376765   0.11970037 
  200200   -952.79956    38.337124   -914.46244    1373.0967   -2283.7757    2.1888101    44.639175   0.11123572 
  200300   -959.46949    43.129731   -916.33976    1544.7506    9348.2264     2.232412    41.012319   0.10229722 
  200400    -958.6879    37.114083   -921.57382    1329.2919    13721.362    2.2444528    44.794271  0.095335846 
  200500   -954.80138    40.317243   -914.48413    1444.0174   -5378.1372    2.1857974    43.739991   0.11518586 
  200600    -954.8875    39.724963   -915.16254    1422.8041   -10963.625     2.171366    46.879932   0.10201752 
  200700   -952.37687     33.40161   -918.97526    1196.3246    1256.4232    2.1964731     42.98394   0.10534926 
  200800    -957.8229    36.249721   -921.57318    1298.3336    7598.0293    2.2225152    42.994395  0.094249218 
  200900   -954.15089    40.218308   -913.93259    1440.4739    3380.7616     2.203144    45.161322  0.093048251 
  201000   -952.04222    36.856298   -915.18592    1320.0589   -2477.7394    2.1860152    43.156936   0.12053812 
  201100   -955.33057    38.152815   -917.17775    1366.4955   -6533.8986    2.1861816    44.496799    0.1091786 
  201200    -962.9101    38.306876   -924.60323    1372.0134   -942.25212    2.2134338    41.797721  0.097649171 
  201300   -956.90302    39.492131   -917.41089    1414.4649    1004.8814     2.206908    40.245953   0.10780609 
  201400    -954.5576    39.093252   -915.46435    1400.1785    2641.9182    2.2043853    45.606224   0.10564146 
  201500   -952.69365    37.607999   -915.08565    1346.9821   -83.944375    2.1937382    45.518471   0.10769762 
  201600    -955.7147    38.964487   -916.75021    1395.5666   -4327.3459    2.1864823    42.111564   0.09143446 
  201700   -958.50253    35.863983   -922.63854    1284.5178     1325.445    2.2092182    45.755815   0.10199701 
  201800   -956.30967     39.87788   -916.43179     1428.281     9936.622    2.2223498    44.993224  0.096450586 
  201900   -954.67045    40.355386   -914.31507    1445.3836    3935.5351    2.2069062    44.008345    0.1026663 
  202000   -953.25555    37.349405   -915.90615    1337.7202   -10717.001    2.1702966    45.964621   0.11746142 
  202100   -958.14844    35.446955   -922.70149    1269.5814   -10390.331     2.182537    42.699799   0.10891332 
  202200   -955.91639    39.799824   -916.11656    1425.4853    3328.9217    2.2114641    43.303881   0.11933522 
  202300   -954.20647    40.340029   -913.86644    1444.8335    12392.825    2.2283494    40.682339     0.116015 
  202400   -955.08702    36.565669   -918.52135    1309.6497     3357.626    2.2081651    46.140112   0.11975256 
  202500   -954.97042    33.080375   -921.89004    1184.8191   -4878.6951    2.1884142    44.583334   0.10794983 
  202600   -954.01315    39.030023   -914.98312    1397.9139   -6980.6157    2.1803258    46.354615   0.10940378 
  202700   -954.90195    39.890416   -915.01153      1428.73    1108.3372    2.2012476    43.998389   0.10827462 
  202800   -958.77501     39.79071    -918.9843    1425.1589     3324.659    2.2147189    47.895174  0.099285882 
  202900   -958.32219    35.519275   -922.80291    1272.1716    1446.1117    2.2135518     44.59749    0.1022721 
  203000   -952.25483    37.393905   -914.86092    1339.3141   -1196.8925    2.1850646    43.587977   0.10819695 
  203100   -954.94405     39.51859   -915.42546    1415.4126   -4807.0907     2.186745    41.329591    0.1127483 
  203200   -956.58479    39.904183    -916.6806    1429.2231   -1090.2896    2.2011636    45.631363   0.12923636 
Loop time of 144.427 on 1 procs for 200000 steps with 217 atoms

Performance: 358.937 ns/day, 0.067 hours/ns, 1384.787 timesteps/s
100.0% CPU use with 1 MPI tasks x no OpenMP threads

MPI task timing breakdown:
Section |  min time  |  avg time  |  max time  |%varavg| %total
---------------------------------------------------------------
Pair    | 141.14     | 141.14     | 141.14     |   0.0 | 97.73
Neigh   | 0.23866    | 0.23866    | 0.23866    |   0.0 |  0.17
Comm    | 0.84628    | 0.84628    | 0.84628    |   0.0 |  0.59
Output  | 0.070896   | 0.070896   | 0.070896   |   0.0 |  0.05
Modify  | 1.8324     | 1.8324     | 1.8324     |   0.0 |  1.27
Other   |            | 0.2941     |            |       |  0.20

Nlocal:    217 ave 217 max 217 min
Histogram: 1 0 0 0 0 0 0 0 0 0
Nghost:    953 ave 953 max 953 min
Histogram: 1 0 0 0 0 0 0 0 0 0
Neighs:    4249 ave 4249 max 4249 min
Histogram: 1 0 0 0 0 0 0 0 0 0
FullNghs:  8498 ave 8498 max 8498 min
Histogram: 1 0 0 0 0 0 0 0 0 0

Total # of neighbors = 8498
Ave neighs/atom = 39.1613
Neighbor list builds = 403
Dangerous builds = 1
Total wall time: 0:02:26
