LAMMPS (3 Mar 2020)

    # ---------- Initialize simulation ---------------------
    units metal
    atom_style atomic
    dimension  3
    boundary   p p p
    read_data /home/modeler/RemLabs/Lab4/Problem2A_size_7/temp_1600/lammps.data
  orthogonal box = (0 0 0) to (28.63 28.63 28.63)
  1 by 1 by 1 MPI processor grid
  reading atoms ...
  1372 atoms
  read_data CPU = 0.00186925 secs

    pair_style eam
    pair_coeff * * /usr/share/lammps-stable/potentials/Ag_u3.eam
Reading potential file /usr/share/lammps-stable/potentials/Ag_u3.eam with DATE: 2007-06-11

    velocity  all create 1600 87287 dist gaussian

    # ---------- Describe computed properties------------------
    compute msdall all msd
    thermo_style custom step pe ke etotal temp press density c_msdall[4]
    thermo 100

    # ---------- Specify ensemble  ---------------------
    #fix  1 all nve
    fix  1 all nvt temp 1600 1600 0.05

    # --------- Compute RDF ---------------
    compute rdfall all rdf 100 1 1
    fix 2 all ave/time 1 2500 2500 c_rdfall[*] file /home/modeler/RemLabs/Lab4/Problem2A_size_7/temp_1600/lammps.rdf mode vector

    # --------- Run -------------
    timestep 0.001
    run 10000
Neighbor list info ...
  update every 1 steps, delay 10 steps, check yes
  max neighbors/atom: 2000, page size: 100000
  master list distance cutoff = 7.55
  ghost atom cutoff = 7.55
  binsize = 3.775, bins = 8 8 8
  2 neighbor lists, perpetual/occasional/extra = 1 1 0
  (1) pair eam, perpetual
      attributes: half, newton on
      pair build: half/bin/atomonly/newton
      stencil: half/bin/3d/newton
      bin: standard
  (2) compute rdf, occasional, copy from (1)
      attributes: half, newton on
      pair build: copy
      stencil: none
      bin: none
Per MPI rank memory allocation (min/avg/max) = 3.83 | 3.83 | 3.83 Mbytes
Step PotEng KinEng TotEng Temp Press Density c_msdall[4] 
       0      -3910.2    283.54505   -3626.6549         1600     12905.51    10.472245            0 
     100   -3738.3348    157.78822   -3580.5466    890.37403    53129.045    10.472245  0.093634883 
     200   -3707.1608    231.05171   -3476.1091    1303.7883    64604.624    10.472245    0.1148461 
     300   -3645.6247    280.31139   -3365.3134    1581.7529    83009.527    10.472245   0.14872537 
     400   -3603.0919    298.78453   -3304.3074     1685.994     94738.77    10.472245   0.17597246 
     500   -3613.6771    282.75956   -3330.9175    1595.5676    91168.634    10.472245   0.17911967 
     600   -3639.6714    278.22356   -3361.4478    1569.9716    84363.542    10.472245   0.16295179 
     700   -3634.9855    290.85182   -3344.1336    1641.2309    86277.986    10.472245   0.15290969 
     800   -3619.8052    284.09625   -3335.7089    1603.1103    89803.751    10.472245   0.14980789 
     900   -3629.3833    274.36927    -3355.014    1548.2225    87482.859    10.472245   0.14846523 
    1000   -3622.8797    282.84805   -3340.0317    1596.0669    89021.978    10.472245   0.14784073 
    1100   -3617.9245     293.9095    -3324.015    1658.4849    91104.508    10.472245   0.14456968 
    1200   -3627.0393      273.043   -3353.9963    1540.7386    87722.174    10.472245   0.14262589 
    1300   -3626.5841    271.45881   -3355.1253    1531.7992    87765.905    10.472245   0.14531326 
    1400   -3621.7604    283.55348    -3338.207    1600.0475    89036.666    10.472245    0.1565497 
    1500   -3621.1295    290.81584   -3330.3137    1641.0279    90045.297    10.472245   0.16264557 
    1600   -3621.6834    283.87686   -3337.8065    1601.8723    88967.317    10.472245   0.15845046 
    1700   -3635.3431    290.40094   -3344.9422    1638.6867    86132.397    10.472245   0.14199889 
    1800   -3638.3003    283.95194   -3354.3483     1602.296    85056.745    10.472245   0.13224905 
    1900   -3631.0367    283.75085   -3347.2858    1601.1613    87146.031    10.472245   0.13388828 
    2000   -3622.2303    288.59339   -3333.6369     1628.487    89772.892    10.472245   0.13719037 
    2100   -3627.2695    280.22867   -3347.0408    1581.2862    87859.943    10.472245   0.14057544 
    2200   -3632.2328    282.84745   -3349.3854    1596.0635    86621.353    10.472245   0.14270242 
    2300     -3625.29    288.68528   -3336.6048    1629.0055    88239.484    10.472245   0.14908394 
    2400   -3626.9145    284.80126   -3342.1133    1607.0886    88126.248    10.472245   0.15055444 
    2500   -3637.4053    286.31945   -3351.0859    1615.6555    85270.515    10.472245   0.14719607 
    2600   -3629.9265    286.29333   -3343.6331    1615.5081    87188.769    10.472245    0.1440816 
    2700   -3618.8782    292.44803   -3326.4302    1650.2381    90265.374    10.472245    0.1429193 
    2800   -3626.6516    284.31115   -3342.3405     1604.323    87723.422    10.472245     0.137193 
    2900   -3632.2275    279.47523   -3352.7523    1577.0346    86599.897    10.472245   0.13873469 
    3000   -3626.4307    284.71483   -3341.7159    1606.6009    88087.534    10.472245   0.14622007 
    3100   -3625.1413    294.65077   -3330.4906    1662.6678    89058.779    10.472245   0.14841963 
    3200   -3626.4606    283.53791   -3342.9227    1599.9597    88080.431    10.472245   0.14829389 
    3300   -3632.1744    290.61162   -3341.5628    1639.8755    87003.729    10.472245   0.14332952 
    3400   -3632.5036      273.789   -3358.7146    1544.9481    86141.832    10.472245    0.1407192 
    3500   -3630.4992    295.06384   -3335.4354    1664.9987    88009.952    10.472245   0.13650967 
    3600   -3631.0551    280.83174   -3350.2234    1584.6892    86993.381    10.472245   0.14172298 
    3700   -3619.5828    287.43104   -3332.1518     1621.928     90347.44    10.472245   0.14642565 
    3800   -3611.3671    277.57876   -3333.7884    1566.3332    91975.059    10.472245   0.14963316 
    3900   -3628.8485    281.69206   -3347.1564    1589.5438    87617.226    10.472245   0.14378611 
    4000   -3630.2098    280.65387   -3349.5559    1583.6855    87105.236    10.472245   0.14679056 
    4100   -3623.9687    289.46059   -3334.5081    1633.3804    89136.848    10.472245   0.15333075 
    4200   -3617.5813     284.2295   -3333.3518    1603.8622    90452.065    10.472245   0.15700062 
    4300   -3630.1937    287.90972    -3342.284    1624.6291    87332.444    10.472245   0.14643671 
    4400   -3633.9443    278.69859   -3355.2457    1572.6522    86188.489    10.472245   0.13890843 
    4500   -3623.9874    292.91703   -3331.0703    1652.8846    89173.655    10.472245   0.14472838 
    4600   -3625.9693    295.68105   -3330.2883    1668.4815    88966.023    10.472245      0.14569 
    4700   -3629.5239    283.60086   -3345.9231    1600.3149    87109.612    10.472245   0.14190552 
    4800   -3628.6275    284.45077   -3344.1768    1605.1108    87697.424    10.472245   0.14035925 
    4900   -3625.7879    280.17019   -3345.6177    1580.9562    87936.069    10.472245   0.14641369 
    5000    -3621.152    275.05337   -3346.0986    1552.0828    88820.033    10.472245   0.15241122 
    5100   -3619.2595    283.44381   -3335.8157    1599.4287    90073.902    10.472245   0.15987195 
    5200    -3618.101    297.51249   -3320.5886     1678.816    91062.504    10.472245   0.15630557 
    5300   -3624.0408    284.24185    -3339.799    1603.9319    88948.143    10.472245   0.15034882 
    5400   -3622.5916    277.83745   -3344.7541    1567.7929    88977.549    10.472245    0.1413189 
    5500   -3632.1579    284.24677   -3347.9111    1603.9597    86968.359    10.472245   0.13203386 
    5600    -3636.266    275.71294   -3360.5531    1555.8046    85370.886    10.472245   0.13953146 
    5700   -3626.7163    283.69587   -3343.0204     1600.851    88125.528    10.472245   0.14747872 
    5800   -3627.5711    289.02321   -3338.5479    1630.9124    88067.379    10.472245   0.15072769 
    5900   -3632.7713    277.20788   -3355.5634    1564.2403     86267.03    10.472245   0.15229634 
    6000   -3620.1379    284.77411   -3335.3638    1606.9354    89733.764    10.472245   0.15311054 
    6100   -3608.2282     269.7696   -3338.4586    1522.2673    91871.554    10.472245   0.15583705 
    6200   -3617.7001    286.90308   -3330.7971    1618.9488    91114.355    10.472245   0.13972521 
    6300   -3633.6463    284.30807   -3349.3382    1604.3056    87335.955    10.472245   0.13319807 
    6400   -3625.3049    283.80444   -3341.5005    1601.4637    88722.147    10.472245    0.1346568 
    6500   -3624.9614      286.998   -3337.9634    1619.4844    88933.816    10.472245   0.14071234 
    6600   -3628.9711    282.32106     -3346.65    1593.0932    87506.267    10.472245   0.14255313 
    6700   -3627.8457    280.95711   -3346.8885    1585.3966     87934.12    10.472245   0.14505644 
    6800   -3626.2985    275.27794   -3351.0206      1553.35    87919.221    10.472245   0.14455794 
    6900   -3621.4827     277.5423   -3343.9404    1566.1274    88611.842    10.472245   0.14078116 
    7000   -3629.3189    283.61683   -3345.7021     1600.405    87545.821    10.472245   0.14035761 
    7100   -3614.7687    290.68076   -3324.0879    1640.2657    91723.248    10.472245   0.14273372 
    7200    -3619.354    281.87126   -3337.4828     1590.555    90271.758    10.472245   0.14666209 
    7300   -3628.5658    288.76712   -3339.7987    1629.4673    87843.665    10.472245    0.1461732 
    7400   -3627.7255     271.5807   -3356.1448     1532.487    86969.095    10.472245   0.14930538 
    7500      -3624.2    290.63644   -3333.5635    1640.0156    88597.988    10.472245   0.14825951 
    7600   -3630.4775    292.95053    -3337.527    1653.0736     87492.29    10.472245   0.14257042 
    7700   -3634.1882    280.50158   -3353.6866    1582.8261    86189.661    10.472245     0.139107 
    7800   -3622.7791    282.73515   -3340.0439    1595.4298    88659.114    10.472245   0.13875989 
    7900   -3619.6255     267.9619   -3351.6636    1512.0667    89352.373    10.472245   0.14367894 
    8000   -3636.9747    287.50094   -3349.4738    1622.3224    85762.957    10.472245   0.13756544 
    8100   -3630.5203    285.70582   -3344.8145    1612.1929    87256.282    10.472245   0.14332984 
    8200    -3620.936    278.19861   -3342.7374    1569.8308    88977.462    10.472245   0.15171086 
    8300   -3614.6185    290.98041   -3323.6381    1641.9565    91413.531    10.472245   0.15626452 
    8400   -3626.4118    284.53011   -3341.8817    1605.5585    88108.152    10.472245   0.15190964 
    8500   -3632.6818    287.82993   -3344.8519    1624.1789    87021.979    10.472245   0.14451776 
    8600   -3617.8229    281.74595    -3336.077    1589.8479    90322.676    10.472245   0.15007062 
    8700   -3621.1362     285.3766   -3335.7596    1610.3351     90093.79    10.472245   0.14607482 
    8800   -3629.5856     280.6867   -3348.8988    1583.8708    87613.526    10.472245   0.14226125 
    8900   -3621.6499    284.31512   -3337.3347    1604.3454    89549.198    10.472245   0.13880772 
    9000   -3622.7532    282.72583   -3340.0273    1595.3773    88946.332    10.472245   0.14529804 
    9100   -3628.5138    289.94073    -3338.573    1636.0898    88020.159    10.472245   0.14708351 
    9200   -3620.4627     280.1172   -3340.3455    1580.6572    89779.789    10.472245   0.14941539 
    9300   -3624.2993    285.38424   -3338.9151    1610.3782    88885.023    10.472245   0.14542539 
    9400    -3628.428    285.45126   -3342.9768    1610.7564    87821.325    10.472245   0.14151892 
    9500   -3630.4048    272.76879    -3357.636    1539.1912    86615.681    10.472245   0.14556052 
    9600   -3623.4335    285.32886   -3338.1047    1610.0657    88828.341    10.472245   0.14548036 
    9700   -3625.4862     277.1102    -3348.376    1563.6891     88514.71    10.472245   0.14826542 
    9800   -3621.4742    290.02656   -3331.4477    1636.5741     89881.01    10.472245   0.14403432 
    9900   -3632.2611    284.48411    -3347.777    1605.2989    86450.247    10.472245   0.14290583 
   10000    -3644.699    280.55226   -3364.1468    1583.1121     83519.24    10.472245   0.13481572 
Loop time of 37.8709 on 1 procs for 10000 steps with 1372 atoms

Performance: 22.814 ns/day, 1.052 hours/ns, 264.055 timesteps/s
100.0% CPU use with 1 MPI tasks x no OpenMP threads

MPI task timing breakdown:
Section |  min time  |  avg time  |  max time  |%varavg| %total
---------------------------------------------------------------
Pair    | 23.712     | 23.712     | 23.712     |   0.0 | 62.61
Neigh   | 0.37813    | 0.37813    | 0.37813    |   0.0 |  1.00
Comm    | 0.1784     | 0.1784     | 0.1784     |   0.0 |  0.47
Output  | 0.0049487  | 0.0049487  | 0.0049487  |   0.0 |  0.01
Modify  | 13.525     | 13.525     | 13.525     |   0.0 | 35.71
Other   |            | 0.07208    |            |       |  0.19

Nlocal:    1372 ave 1372 max 1372 min
Histogram: 1 0 0 0 0 0 0 0 0 0
Nghost:    3264 ave 3264 max 3264 min
Histogram: 1 0 0 0 0 0 0 0 0 0
Neighs:    70144 ave 70144 max 70144 min
Histogram: 1 0 0 0 0 0 0 0 0 0

Total # of neighbors = 70144
Ave neighs/atom = 51.1254
Neighbor list builds = 123
Dangerous builds = 0
    
Total wall time: 0:00:37
