LAMMPS (3 Mar 2020)
Reading data file ...
  orthogonal box = (0 0 0) to (17.469 17.469 17.469)
  1 by 1 by 1 MPI processor grid
  reading atoms ...
  217 atoms
  read_data CPU = 0.000976395 secs
Reading potential file library.meam with DATE: 2012-06-29
Reading potential file LiSi.meam with DATE: 2020-11-07
1 atoms in group Li
Neighbor list info ...
  update every 1 steps, delay 10 steps, check yes
  max neighbors/atom: 2000, page size: 100000
  master list distance cutoff = 6
  ghost atom cutoff = 6
  binsize = 3, bins = 6 6 6
  2 neighbor lists, perpetual/occasional/extra = 2 0 0
  (1) pair meam/c, perpetual
      attributes: full, newton on
      pair build: full/bin/atomonly
      stencil: full/bin/3d
      bin: standard
  (2) pair meam/c, perpetual, half/full from (1)
      attributes: half, newton on
      pair build: halffull/newton
      stencil: none
      bin: none
Setting up Verlet run ...
  Unit style    : metal
  Current step  : 0
  Time step     : 0.00148818
Per MPI rank memory allocation (min/avg/max) = 9.27 | 9.27 | 9.27 Mbytes
Step PotEng KinEng TotEng Temp Press Density c_msdli[4] 
       0   -951.04357    50.256344   -900.78722         1800   -114161.75    1.8918427            0 
     100   -954.61131    39.112092   -915.49921    1400.8533    20154.337    2.2408743   0.13774751 
     200   -956.59548    44.505073   -912.09041    1594.0103    15259.746    2.2309724   0.39431251 
     300   -949.73455      44.5601   -905.17445    1595.9812   -33373.446    2.0960898   0.13798445 
     400   -948.25181    46.684708   -901.56711    1672.0769    19736.046    2.2233047   0.31758865 
     500   -948.77672    49.066193   -899.71052    1757.3731    6813.8511    2.1856751  0.034977308 
     600   -943.41792    50.599499   -892.81842    1812.2905    -24769.32    2.0976899   0.38229831 
     700   -939.48468     49.52443   -889.96025    1773.7855    18567.332    2.2011542    0.2618663 
     800   -947.84436    52.205548   -895.63881    1869.8134   -2193.4392    2.1677471   0.26531546 
     900    -940.6978    53.109087   -887.58871    1902.1749   -14320.226    2.1182717   0.26822822 
    1000   -941.21624    52.887648   -888.32859    1894.2438    10587.584    2.1844373   0.26944263 
    1100   -946.84858    51.837456   -895.01112    1856.6297   -2622.9885    2.1613357    0.3681176 
    1200   -938.06438    49.754362   -888.31002    1782.0208   -4417.9735    2.1422361   0.38204097 
    1300   -940.85668    52.116624   -888.74005    1866.6285    3353.9924    2.1638093   0.77496011 
    1400   -942.13106    46.549385   -895.58168    1667.2302   -2408.3986    2.1570064    0.2295838 
    1500    -939.4523    51.877505   -887.57479    1858.0641    6013.9455    2.1667601   0.12079092 
    1600   -939.62177    48.696551   -890.92522    1744.1339    -3747.085    2.1439155   0.18468692 
    1700   -942.19114    47.778294   -894.41284    1711.2452    609.15622    2.1666181   0.24492762 
    1800   -938.82501    51.408288   -887.41672    1841.2584    10128.848    2.1769459   0.10309644 
    1900    -942.2706    48.480274   -893.79033    1736.3876    -16033.29    2.1202536   0.16214414 
    2000   -941.54524    48.527143    -893.0181    1738.0663    9888.0704    2.1886228   0.26813379 
    2100   -941.77569    51.112254   -890.66344    1830.6556    5695.7895    2.1721823   0.27752994 
    2200   -944.16693    51.596547   -892.57038    1848.0012   -17936.417     2.118231  0.071199483 
    2300   -937.06128    52.164558   -884.89673    1868.3453    16516.938    2.1898148   0.72070225 
    2400   -941.21938    47.985218   -893.23416    1718.6565   -3357.6663    2.1485075    0.1493886 
    2500   -943.11296    53.973486   -889.13947    1933.1345   -7491.4201     2.142208   0.26765756 
    2600   -941.47282    52.612836   -888.85999     1884.401    7119.0086    2.1776144   0.18479704 
    2700   -942.85213    47.293676   -895.55845    1693.8879   -5909.0965    2.1478129   0.54464389 
    2800   -941.50988     52.88286   -888.62702    1894.0723     1937.077     2.162316   0.52290902 
    2900   -943.42553    50.725607   -892.69993    1816.8073   -28.676324    2.1609453  0.067977112 
    3000   -944.17463    48.258839   -895.91579    1728.4566    -2115.537    2.1634028   0.50989874 
    3100   -939.50322    51.455893   -888.04733    1842.9635    6173.8215    2.1712406   0.11680655 
    3200   -942.25244    48.527588   -893.72485    1738.0822   -9085.2725     2.141892   0.42285292 
    3300   -943.56443    49.716441   -893.84799    1780.6626    5978.5285      2.18073   0.18921031 
    3400   -943.27353    56.809971   -886.46356    2034.7271    894.18588    2.1640475   0.24009175 
    3500   -938.45897    47.306148   -891.15282    1694.3347   -12323.602    2.1266849   0.15164957 
    3600   -940.14825     55.26892   -884.87933    1979.5323    15343.675    2.1918582   0.46810059 
    3700    -943.3083    48.349699    -894.9586    1731.7109   -7513.4396    2.1492751   0.70512255 
    3800   -941.04562    49.691599   -891.35403    1779.7729   -5109.7555    2.1520271   0.13266068 
    3900   -939.87591    48.600513   -891.27539    1740.6941    12055.024    2.1893771    0.1393779 
    4000   -944.70224     47.28415   -897.41809    1693.5468   -8907.7288     2.146771   0.35842747 
    4100   -938.17127    49.730165    -888.4411    1781.1542    4216.0066    2.1708792   0.66077837 
    4200    -941.8671    49.471991   -892.39511    1771.9073    1544.1232    2.1654962   0.35535653 
    4300   -939.84693     46.35995   -893.48698    1660.4453   -2906.7684    2.1536094   0.11688494 
    4400   -938.73883     53.63963    -885.0992     1921.177    5172.3995     2.166203    0.1824227 
    4500      -945.26    52.288004     -892.972    1872.7667   -9985.9627    2.1453686   0.43769559 
    4600   -941.90029      52.3741   -889.52619    1875.8503    7363.1258    2.1764141   0.17013365 
    4700   -939.53872    51.797831   -887.74088    1855.2105   -2329.6781    2.1545048    0.3106363 
    4800    -942.3171    46.387852   -895.92924    1661.4446   -9209.7936    2.1457343   0.25053357 
    4900   -945.33415    54.995045   -890.33911    1969.7231     10563.95    2.1970529   0.36601311 
    5000   -940.97711    45.106044   -895.87107    1615.5349    -10118.29    2.1431826   0.12928835 
    5100   -942.39062    53.367738   -889.02288    1911.4389     1618.997    2.1660055   0.10377489 
    5200    -940.9089    50.785753   -890.12315    1818.9615    6721.1538     2.178834   0.30740609 
    5300   -941.93544    49.401123   -892.53431    1769.3691   -8833.5563    2.1410559   0.28265743 
    5400   -936.82288    52.594568   -884.22831    1883.7467    7182.2856    2.1720832    0.1662143 
    5500   -943.97701    50.521432   -893.45558    1809.4945   -5241.4879    2.1566277   0.39194106 
    5600   -940.77614    48.810642    -891.9655    1748.2202    151.69957    2.1617668    0.6436046 
    5700   -939.94131    51.866014    -888.0753    1857.6525    4089.9445    2.1677363   0.39736157 
    5800   -946.00898    47.943111   -898.06587    1717.1484   -9954.2783    2.1474239   0.16640153 
    5900   -943.55676    51.179943   -892.37682    1833.0799     7664.756    2.1880395   0.22982073 
    6000    -941.9434    50.921609   -891.02179    1823.8274   -235.13155    2.1581621  0.059755902 
    6100   -945.96857    48.742172   -897.22639    1745.7679   -11294.122    2.1441839   0.12925294 
    6200   -947.36515    46.975982   -900.38917    1682.5093    14286.407    2.2117124    0.3945739 
    6300   -942.53317    50.797367    -891.7358    1819.3775   -3975.8158    2.1551414  0.090096271 
    6400   -937.24004     49.08305   -888.15699    1757.9768   -12562.256    2.1235957   0.51147494 
    6500   -940.32039    52.095075   -888.22532    1865.8567    12200.706    2.1935868   0.23071083 
    6600    -941.9666    46.429632   -895.53697    1662.9411   -2639.5489    2.1581134   0.32591001 
    6700   -936.41613    48.034234    -888.3819    1720.4121    -2247.024    2.1450571   0.17134264 
    6800   -938.38793    48.773712   -889.61422    1746.8975    7264.5914    2.1760404   0.41914143 
    6900     -943.363    47.489315   -895.87369     1700.895    419.70988    2.1653255   0.49892542 
    7000   -937.96798    50.256977     -887.711    1800.0226    1949.1655    2.1596197   0.18467403 
    7100   -941.06463    50.257617   -890.80702    1800.0456   -3021.4011    2.1534988   0.36719846 
    7200    -944.5729    47.370164   -897.20274    1696.6275    651.82833    2.1777869   0.29218049 
    7300   -940.76497    53.302964   -887.46201    1909.1189    6753.1962    2.1751218   0.16785387 
    7400   -941.64899    51.999924   -889.64906    1862.4487   -13153.757    2.1310679   0.33456569 
    7500   -945.33831    48.778524   -896.55978    1747.0698    4928.9744    2.1853951   0.11471862 
    7600   -951.28919    51.252648   -900.03654     1835.684     5868.849    2.1956777   0.14300087 
    7700   -938.82723    49.625255   -889.20197    1777.3967     -11378.7    2.1303673   0.21586995 
    7800   -941.75426    53.047217   -888.70705    1899.9589   -1703.7032    2.1561063  0.073872883 
    7900   -947.04571    52.373683   -894.67203    1875.8354     6180.009    2.1895938   0.47993147 
    8000   -940.11588    45.068777    -895.0471    1614.2001   -5265.0252    2.1494943   0.15158332 
    8100   -939.23805    51.942641   -887.29541     1860.397    1971.4492     2.157631   0.47572879 
    8200   -940.98367    48.012851   -892.97082    1719.6462    2269.9655    2.1671825  0.068088692 
    8300   -944.28183    49.705447   -894.57638    1780.2688   -1528.6932    2.1651769    0.6921511 
    8400   -936.88727    51.505641   -885.38163    1844.7453    1877.0127    2.1571812   0.21598021 
    8500    -942.3825    50.679616   -891.70288    1815.1601   -6990.5742    2.1444208   0.21178301 
    8600   -943.27987     49.73149   -893.54838    1781.2016    6667.6093    2.1830444   0.23262171 
    8700   -938.81734    55.566417   -883.25093    1990.1876    1694.0417    2.1582062   0.35187164 
    8800   -937.49295    51.198661   -886.29429    1833.7504   -13717.814    2.1177762   0.37870266 
    8900   -941.28022    48.365183   -892.91504    1732.2655    9084.7931    2.1870761   0.19103882 
    9000   -942.68464     43.93536   -898.74928    1573.6053    5586.1814    2.1814317   0.47821822 
    9100   -937.86145    49.554018   -888.30743    1774.8452   -5768.9697    2.1376659   0.28998016 
    9200   -942.61982    53.748566   -888.87125    1925.0787    1142.8749    2.1623611   0.19228981 
    9300   -943.28443    48.783815   -894.50061    1747.2593    3672.6559    2.1716105   0.16211778 
    9400    -941.2048     48.33714   -892.86766    1731.2611   -535.96167    2.1581863   0.26435026 
    9500   -940.69162    54.247054   -886.44457    1942.9328    308.54938    2.1531058   0.17404782 
    9600   -941.90115    48.607673   -893.29348    1740.9506   -3259.0056    2.1535503   0.28710918 
    9700   -940.34785    47.774948    -892.5729    1711.1254    7632.1384    2.1767109   0.14151036 
    9800   -933.20808    49.445167   -883.76292    1770.9466    1111.1134    2.1438886    1.0777822 
    9900    -940.7349    48.021546   -892.71335    1719.9576   -10241.459    2.1379505   0.31318213 
   10000   -941.37547    48.318733   -893.05673    1730.6018    16490.001    2.2041795   0.34647169 
   10100   -941.05071    49.225391   -891.82532     1763.075   -5116.2542    2.1511368   0.11465579 
   10200    -933.3228    51.225856   -882.09694    1834.7244      -8376.6    2.1241897  0.078734198 
   10300   -941.88491    53.471031   -888.41387    1915.1384    7457.4389    2.1760047   0.43787501 
   10400    -941.2321    47.394258   -893.83784    1697.4904    2099.2674    2.1661602   0.29030696 
   10500    -941.1773    52.398818   -888.77848    1876.7356   -5229.1342    2.1468309   0.12569991 
   10600    -938.2788    51.421114   -886.85769    1841.7178    1971.6144     2.163102   0.33376006 
   10700   -944.44954    49.943621   -894.50592    1788.7994   -3189.0172    2.1626242   0.13967893 
   10800   -940.97297    51.393518   -889.57945    1840.7294    2942.5263    2.1689106   0.33556184 
   10900   -939.91536    55.670403   -884.24496     1993.912   -2972.0814    2.1449741    0.0454734 
   11000   -945.99401    50.997272   -894.99673    1826.5373   -7608.2738    2.1532002   0.37057031 
   11100   -939.41719     48.11016   -891.30703    1723.1315    15226.374    2.1961844  0.035739888 
   11200   -938.10094    49.389008   -888.71193    1768.9352   -8993.9577    2.1368848   0.17716688 
   11300   -932.83045    54.789304   -878.04114    1962.3542   -3474.6838    2.1346254   0.15649481 
   11400   -937.81162    49.252724    -888.5589     1764.054     6985.906    2.1743241   0.19150446 
   11500   -940.77611    48.910653   -891.86546    1751.8022    1400.4307    2.1647071   0.17069329 
   11600   -937.96709    48.644053   -889.32304    1742.2536   -1145.8102    2.1511342   0.20453342 
   11700   -937.43466    55.260233   -882.17443    1979.2211    5823.6049    2.1644959   0.19316563 
   11800   -938.42669    46.098708   -892.32798    1651.0885   -1568.5106    2.1508408   0.39992277 
   11900   -939.62715    48.887548    -890.7396    1750.9747    7976.0825     2.176585   0.48033917 
   12000   -941.65007    49.788922   -891.86114    1783.2586   -1926.8687    2.1624666    0.1849111 
   12100   -949.04502    49.089416    -899.9556    1758.2049   -6803.1603    2.1606611   0.30091521 
   12200   -941.61286    49.263384   -892.34948    1764.4358    12821.443    2.1967307   0.52328918 
   12300   -940.32821    49.023389   -891.30483      1755.84   -8857.7379    2.1360634  0.084138051 
   12400   -935.67222    54.271972   -881.40024    1943.8252    945.39156    2.1458439   0.59673939 
   12500   -941.28757     50.20738   -891.08019    1798.2463     4973.872    2.1763829    0.3450129 
   12600   -940.66133    48.255391   -892.40594    1728.3331   -1172.0904    2.1534415   0.48121161 
   12700   -939.26352    52.438426    -886.8251    1878.1542    2003.9686    2.1562917   0.21183342 
   12800    -941.2981    51.306449   -889.99165    1837.6109   -980.85836    2.1593053   0.08299722 
   12900    -947.3107    52.827034   -894.48367    1892.0728   -4624.6456    2.1636566   0.11508903 
   13000   -938.77304    48.775217   -889.99782    1746.9514    7192.5188    2.1740202   0.42909711 
   13100   -939.08927    49.181526   -889.90775    1761.5039   -6490.2179    2.1373289   0.47740948 
   13200   -946.60577     46.35734   -900.24843    1660.3518     -162.214    2.1756228   0.39640376 
   13300   -940.59867     47.90047    -892.6982    1715.6211    16353.675    2.2059839   0.24288966 
   13400   -936.19371    48.980543   -887.21316    1754.3054   -16549.973    2.1087307   0.21674902 
   13440   -936.03526     53.02181   -883.01345     1899.049   -16771.813    2.1063749   0.19232909 
Loop time of 9.26004 on 1 procs for 13440 steps with 217 atoms

Performance: 186.618 ns/day, 0.129 hours/ns, 1451.398 timesteps/s
100.0% CPU use with 1 MPI tasks x no OpenMP threads

MPI task timing breakdown:
Section |  min time  |  avg time  |  max time  |%varavg| %total
---------------------------------------------------------------
Pair    | 8.9495     | 8.9495     | 8.9495     |   0.0 | 96.65
Neigh   | 0.10701    | 0.10701    | 0.10701    |   0.0 |  1.16
Comm    | 0.059525   | 0.059525   | 0.059525   |   0.0 |  0.64
Output  | 0.0037862  | 0.0037862  | 0.0037862  |   0.0 |  0.04
Modify  | 0.12051    | 0.12051    | 0.12051    |   0.0 |  1.30
Other   |            | 0.01967    |            |       |  0.21

Nlocal:    217 ave 217 max 217 min
Histogram: 1 0 0 0 0 0 0 0 0 0
Nghost:    957 ave 957 max 957 min
Histogram: 1 0 0 0 0 0 0 0 0 0
Neighs:    4013 ave 4013 max 4013 min
Histogram: 1 0 0 0 0 0 0 0 0 0
FullNghs:  8026 ave 8026 max 8026 min
Histogram: 1 0 0 0 0 0 0 0 0 0

Total # of neighbors = 8026
Ave neighs/atom = 36.9862
Neighbor list builds = 182
Dangerous builds = 0
Total wall time: 0:00:09
