LAMMPS (3 Mar 2020)

    # ---------- Initialize simulation ---------------------
    units metal
    atom_style atomic
    dimension  3
    boundary   p p p
    read_data /home/modeler/RemLabs/Lab4/Problem2A_size_3/temp_1220/lammps.data
  orthogonal box = (0 0 0) to (12.27 12.27 12.27)
  1 by 1 by 1 MPI processor grid
  reading atoms ...
  108 atoms
  read_data CPU = 0.000883284 secs

    pair_style eam
    pair_coeff * * /usr/share/lammps-stable/potentials/Ag_u3.eam
Reading potential file /usr/share/lammps-stable/potentials/Ag_u3.eam with DATE: 2007-06-11

    velocity  all create 1220 87287 dist gaussian

    # ---------- Describe computed properties------------------
    compute msdall all msd
    thermo_style custom step pe ke etotal temp press density c_msdall[4]
    thermo 100

    # ---------- Specify ensemble  ---------------------
    #fix  1 all nve
    fix  1 all nvt temp 1220 1220 0.05

    # --------- Compute RDF ---------------
    compute rdfall all rdf 100 1 1
    fix 2 all ave/time 1 2500 2500 c_rdfall[*] file /home/modeler/RemLabs/Lab4/Problem2A_size_3/temp_1220/lammps.rdf mode vector

    # --------- Run -------------
    timestep 0.001
    run 10000
Neighbor list info ...
  update every 1 steps, delay 10 steps, check yes
  max neighbors/atom: 2000, page size: 100000
  master list distance cutoff = 7.55
  ghost atom cutoff = 7.55
  binsize = 3.775, bins = 4 4 4
  2 neighbor lists, perpetual/occasional/extra = 1 1 0
  (1) pair eam, perpetual
      attributes: half, newton on
      pair build: half/bin/atomonly/newton
      stencil: half/bin/3d/newton
      bin: standard
  (2) compute rdf, occasional, copy from (1)
      attributes: half, newton on
      pair build: copy
      stencil: none
      bin: none
Per MPI rank memory allocation (min/avg/max) = 3.723 | 3.723 | 3.723 Mbytes
Step PotEng KinEng TotEng Temp Press Density c_msdall[4] 
       0       -307.8    16.873619   -290.92638         1220    9756.4331    10.472245            0 
     100    -296.9929    10.320835   -286.67206    746.21917    42565.349    10.472245   0.06640368 
     200   -293.70601    17.195397   -276.51061    1243.2653    57979.945    10.472245  0.077102474 
     300   -289.85326    20.663486   -269.18977    1494.0157    73076.284    10.472245  0.090943267 
     400   -290.78353    15.775184   -275.00834    1140.5807    66753.763    10.472245  0.097323454 
     500   -293.05274     18.82194    -274.2308    1360.8679    62601.649    10.472245   0.07280871 
     600   -292.03798      15.7964   -276.24158    1142.1147    61768.419    10.472245  0.087137895 
     700   -290.31826     17.49883   -272.81943    1265.2041    70021.157    10.472245  0.096518886 
     800   -291.42775      17.3896   -274.03815    1257.3065    65564.507    10.472245  0.084744961 
     900   -290.60069    15.028806   -275.57188    1086.6159    66487.326    10.472245  0.092272127 
    1000   -289.99737    17.346358   -272.65101      1254.18    71564.896    10.472245  0.086827213 
    1100   -291.18326     17.13057   -274.05269    1238.5781    67537.284    10.472245  0.087986844 
    1200   -290.46276    16.207372   -274.25539    1171.8288    69189.373    10.472245  0.098697025 
    1300   -288.42444    18.108408   -270.31604    1309.2779    75940.294    10.472245  0.095894986 
    1400   -293.34093    17.615329    -275.7256    1273.6272    60449.276    10.472245  0.067428014 
    1500   -292.41261     17.73216   -274.68045    1282.0744    62961.493    10.472245  0.086332302 
    1600   -289.23553    18.355204   -270.88033    1327.1218    73847.974    10.472245   0.11212964 
    1700   -290.20103    16.498662   -273.70237    1192.8898    69066.747    10.472245   0.10666108 
    1800   -293.71483    17.443533   -276.27129     1261.206     58067.71    10.472245  0.081356762 
    1900   -289.60562    16.224209   -273.38142    1173.0462    70484.591    10.472245  0.092314041 
    2000   -291.25389     17.07222   -274.18167    1234.3593    66472.825    10.472245  0.078245129 
    2100   -292.99471     17.43745   -275.55726    1260.7662    60045.278    10.472245  0.077027027 
    2200   -290.12752    17.759108   -272.36842    1284.0228    69330.546    10.472245   0.09654603 
    2300   -289.01044     19.04858   -269.96186    1377.2545    74750.625    10.472245   0.10035135 
    2400   -291.06499    16.397304   -274.66769    1185.5613    66440.595    10.472245  0.081276676 
    2500   -292.68934    15.429747   -277.25959    1115.6048    60276.496    10.472245  0.072306691 
    2600   -291.94801    17.344136   -274.60387    1254.0194    64232.447    10.472245  0.079985965 
    2700   -290.34772    16.247177   -274.10054    1174.7068    68627.351    10.472245  0.087266178 
    2800   -290.37227    16.484957   -273.88731    1191.8988    69723.068    10.472245  0.088064926 
    2900   -290.77977    16.294126   -274.48564    1178.1013    68057.425    10.472245  0.081109235 
    3000   -291.23554     13.46838   -277.76716    973.79368    64420.513    10.472245  0.085509298 
    3100   -290.90021    16.651791   -274.24841    1203.9613    66837.595    10.472245  0.086661441 
    3200   -290.92441    16.927608    -273.9968    1223.9035    67071.651    10.472245  0.090957189 
    3300   -290.68295    17.363829   -273.31912    1255.4432    68724.357    10.472245  0.092080853 
    3400   -292.17719    18.331803   -273.84539    1325.4299    64042.796    10.472245  0.089370355 
    3500    -291.2678    16.495416   -274.77239    1192.6551     65331.94    10.472245  0.093285294 
    3600   -290.20813    17.501451   -272.70668    1265.3936    71143.592    10.472245  0.086328513 
    3700   -291.34947    16.742121   -274.60734    1210.4924    66032.747    10.472245  0.088833996 
    3800   -290.61863    14.845707   -275.77293    1073.3774    66935.817    10.472245   0.09967681 
    3900   -290.42747    17.506033   -272.92144    1265.7249    70238.101    10.472245  0.090394733 
    4000   -290.98147    16.543156   -274.43831    1196.1068    66066.264    10.472245  0.091529515 
    4100   -292.60448     17.33608    -275.2684    1253.4369    62600.864    10.472245   0.08028504 
    4200    -291.3219    18.015635   -273.30626    1302.5703    66224.758    10.472245   0.09000602 
    4300   -290.07763    17.239845   -272.83779    1246.4789    70061.664    10.472245   0.10208538 
    4400   -291.87799    17.568973   -274.30901    1270.2756    64647.486    10.472245  0.088847425 
    4500    -292.5509    16.015225   -276.53568    1157.9362    60947.091    10.472245  0.093419769 
    4600   -290.35739    16.237837   -274.11956    1174.0316    69851.326    10.472245   0.10077464 
    4700   -291.12887    16.191171   -274.93769    1170.6575    65538.632    10.472245  0.089274513 
    4800   -292.77524    19.148226   -273.62701    1384.4591    62277.961    10.472245  0.077964439 
    4900   -290.94336    14.331893   -276.61147    1036.2275    65836.656    10.472245  0.086038465 
    5000   -293.75959    14.084537   -279.67505    1018.3432    56648.912    10.472245  0.074207273 
    5100   -291.10312    16.106932   -274.99619    1164.5668    66801.979    10.472245  0.078410024 
    5200   -291.13653    18.092156   -273.04438    1308.1029    67215.712    10.472245  0.090115033 
    5300   -291.60485    14.861407   -276.74344    1074.5126    64264.468    10.472245  0.090965568 
    5400   -292.59957    18.250996   -274.34858    1319.5874    63150.407    10.472245  0.075181862 
    5500   -288.75416    15.859958    -272.8942    1146.7101    75876.673    10.472245   0.10660621 
    5600   -288.29982    16.495343   -271.80448    1192.6498    75097.865    10.472245   0.11700809 
    5700   -290.88272    16.606665   -274.27606    1200.6986    66499.872    10.472245  0.094230708 
    5800   -294.22785    15.799961   -278.42789    1142.3721    56991.344    10.472245  0.066769232 
    5900   -292.18847    16.043942   -276.14453    1160.0125    63673.458    10.472245  0.082257481 
    6000   -289.95876    16.740077   -273.21868    1210.3446    70258.811    10.472245   0.10483402 
    6100   -289.33996    16.588781   -272.75117    1199.4056    72134.361    10.472245   0.10605964 
    6200   -292.25836    15.784361     -276.474    1141.2442    63445.695    10.472245   0.08206045 
    6300   -291.87343    15.779025    -276.0944    1140.8584    63878.162    10.472245  0.075311858 
    6400   -289.03459    16.776423   -272.25817    1212.9725    73330.109    10.472245  0.097548049 
    6500    -290.0946    16.341296    -273.7533    1181.5119    68654.573    10.472245  0.099785008 
    6600   -291.85391    14.910495   -276.94341    1078.0618    62853.341    10.472245  0.089281686 
    6700   -289.99148    15.751519   -274.23996    1138.8696      69085.4    10.472245  0.098135082 
    6800   -289.39191    19.046384   -270.34553    1377.0957    73336.739    10.472245    0.1015101 
    6900     -290.278    17.798737   -272.47926     1286.888    70008.855    10.472245  0.090525805 
    7000   -294.15019    16.521869   -277.62832    1194.5676    55881.358    10.472245  0.067217886 
    7100   -291.64119    16.301611   -275.33958    1178.6426    64892.083    10.472245  0.084866277 
    7200    -291.5036    18.592011   -272.91158    1344.2435    67262.093    10.472245   0.09296853 
    7300   -290.92104    17.173558   -273.74748    1241.6862    67350.363    10.472245  0.095735807 
    7400   -290.35656    15.559592   -274.79697    1124.9929     69206.85    10.472245   0.10081425 
    7500   -290.69162    18.359591   -272.33203    1327.4391    70264.741    10.472245  0.087877036 
    7600   -289.65411    12.975351   -276.67876    938.14659    69077.276    10.472245  0.091351638 
    7700    -292.4454    16.540587   -275.90481     1195.921    61403.221    10.472245  0.073606803 
    7800   -291.35343    18.733931    -272.6195    1354.5046    67089.645    10.472245  0.078931889 
    7900    -289.6619    16.693956   -272.96795      1207.01    71430.685    10.472245  0.095666955 
    8000   -291.60503    18.029333    -273.5757    1303.5606    65508.837    10.472245  0.087024951 
    8100   -291.83117    17.853756   -273.97741    1290.8661    65788.684    10.472245  0.080768773 
    8200   -291.66936    16.717802   -274.95156    1208.7341     64382.52    10.472245  0.083785465 
    8300   -291.26644    17.980688   -273.28575    1300.0435    66177.481    10.472245  0.093455233 
    8400   -288.74072     20.52497   -268.21575    1484.0007    76968.396    10.472245   0.11466365 
    8500   -288.74492    16.017169   -272.72775    1158.0768    74357.898    10.472245   0.11557847 
    8600    -291.2891     15.88218   -275.40692    1148.3167    65389.016    10.472245  0.084643593 
    8700    -291.9885    14.852137   -277.13636    1073.8423    63564.586    10.472245  0.080322618 
    8800   -289.26683    16.852179   -272.41465    1218.4498    71854.791    10.472245  0.098365561 
    8900   -289.10551    16.340453   -272.76506    1181.4509    73404.592    10.472245  0.098659898 
    9000   -291.26462     13.92797   -277.33666     1007.023    65253.991    10.472245   0.08187531 
    9100   -289.50231    13.131844   -276.37047     949.4614    69388.438    10.472245  0.090984126 
    9200   -291.79177    17.752409   -274.03936    1283.5385    64741.541    10.472245  0.076788072 
    9300   -292.51938    15.834114   -276.68526    1144.8415    61427.119    10.472245  0.085978267 
    9400    -289.0684    17.620257   -271.44814    1273.9835    72847.594    10.472245  0.095963917 
    9500   -290.54407    15.997884   -274.54619    1156.6824    68309.436    10.472245  0.091677546 
    9600   -290.76122    14.832586   -275.92863    1072.4287    67060.744    10.472245  0.092303646 
    9700   -290.17902    18.578947   -271.60008     1343.299    70804.961    10.472245   0.09186841 
    9800   -290.49768    15.889181    -274.6085    1148.8229    68469.791    10.472245   0.10436949 
    9900   -289.88723    17.845924   -272.04131    1290.2998    72298.127    10.472245   0.10118027 
   10000   -287.61335    16.517259   -271.09609    1194.2344    77457.412    10.472245   0.10957669 
Loop time of 2.10704 on 1 procs for 10000 steps with 108 atoms

Performance: 410.054 ns/day, 0.059 hours/ns, 4745.992 timesteps/s
100.0% CPU use with 1 MPI tasks x no OpenMP threads

MPI task timing breakdown:
Section |  min time  |  avg time  |  max time  |%varavg| %total
---------------------------------------------------------------
Pair    | 1.3955     | 1.3955     | 1.3955     |   0.0 | 66.23
Neigh   | 0          | 0          | 0          |   0.0 |  0.00
Comm    | 0.041566   | 0.041566   | 0.041566   |   0.0 |  1.97
Output  | 0.0015631  | 0.0015631  | 0.0015631  |   0.0 |  0.07
Modify  | 0.65878    | 0.65878    | 0.65878    |   0.0 | 31.27
Other   |            | 0.00963    |            |       |  0.46

Nlocal:    108 ave 108 max 108 min
Histogram: 1 0 0 0 0 0 0 0 0 0
Nghost:    990 ave 990 max 990 min
Histogram: 1 0 0 0 0 0 0 0 0 0
Neighs:    4644 ave 4644 max 4644 min
Histogram: 1 0 0 0 0 0 0 0 0 0

Total # of neighbors = 4644
Ave neighs/atom = 43
Neighbor list builds = 0
Dangerous builds = 0
    
Total wall time: 0:00:02
