LAMMPS (3 Mar 2020)

# ---------- 1. Initialize simulation ----------
units metal
atom_style atomic
dimension 3
boundary p p p
read_data /home/modeler/RemLabs/Project/arrhenius_4/T1600.0/n3_T1600.0_timestep3.000000e-03_eqsteps3200_time600_rseed3336/20201205-131649/lammps.data
  orthogonal box = (0 0 0) to (17.469 17.469 17.469)
  1 by 1 by 1 MPI processor grid
  reading atoms ...
  217 atoms
  read_data CPU = 0.00100801 secs

pair_style meam/c
pair_coeff * * library.meam Li Si LiSi.meam Li Si
Reading potential file library.meam with DATE: 2012-06-29
Reading potential file LiSi.meam with DATE: 2020-11-07

group Li type 1
1 atoms in group Li
group Si type 2
216 atoms in group Si

velocity all create 1600.0 3336 dist gaussian

# ---------- 2. Specify equilibration ensemble  ----------
fix 1 all npt temp 1600.0 1600.0 0.15 tchain 2 iso 1.0 1.0 1.0 pchain 2
# fix 1 all nvt temp 1600.0 1600.0 0.15

# ---------- 3. Run equilibration -------------
timestep 0.003
run 3200
Neighbor list info ...
  update every 1 steps, delay 10 steps, check yes
  max neighbors/atom: 2000, page size: 100000
  master list distance cutoff = 6
  ghost atom cutoff = 6
  binsize = 3, bins = 6 6 6
  2 neighbor lists, perpetual/occasional/extra = 2 0 0
  (1) pair meam/c, perpetual
      attributes: full, newton on
      pair build: full/bin/atomonly
      stencil: full/bin/3d
      bin: standard
  (2) pair meam/c, perpetual, half/full from (1)
      attributes: half, newton on
      pair build: halffull/newton
      stencil: none
      bin: none
Per MPI rank memory allocation (min/avg/max) = 8.895 | 8.895 | 8.895 Mbytes
Step Temp E_pair E_mol TotEng Press Volume 
       0         1600   -951.04357            0   -906.37126   -115280.58    5330.9442 
    3200    1781.9127   -950.70652            0   -900.95518    7852.1798    4586.7055 
Loop time of 2.29818 on 1 procs for 3200 steps with 217 atoms

Performance: 360.911 ns/day, 0.066 hours/ns, 1392.403 timesteps/s
100.0% CPU use with 1 MPI tasks x no OpenMP threads

MPI task timing breakdown:
Section |  min time  |  avg time  |  max time  |%varavg| %total
---------------------------------------------------------------
Pair    | 2.2152     | 2.2152     | 2.2152     |   0.0 | 96.39
Neigh   | 0.034077   | 0.034077   | 0.034077   |   0.0 |  1.48
Comm    | 0.014587   | 0.014587   | 0.014587   |   0.0 |  0.63
Output  | 2.6036e-05 | 2.6036e-05 | 2.6036e-05 |   0.0 |  0.00
Modify  | 0.029386   | 0.029386   | 0.029386   |   0.0 |  1.28
Other   |            | 0.00491    |            |       |  0.21

Nlocal:    217 ave 217 max 217 min
Histogram: 1 0 0 0 0 0 0 0 0 0
Nghost:    957 ave 957 max 957 min
Histogram: 1 0 0 0 0 0 0 0 0 0
Neighs:    4233 ave 4233 max 4233 min
Histogram: 1 0 0 0 0 0 0 0 0 0
FullNghs:  8466 ave 8466 max 8466 min
Histogram: 1 0 0 0 0 0 0 0 0 0

Total # of neighbors = 8466
Ave neighs/atom = 39.0138
Neighbor list builds = 57
Dangerous builds = 0

# ---------- 4. Describe computed properties----------
compute msdli Li msd
compute msdsi Si msd
thermo_style custom step pe ke etotal temp press density c_msdli[4] c_msdsi[4]
thermo 100

# ---------- 3. Run production -------------
timestep 0.003
run 200000
Per MPI rank memory allocation (min/avg/max) = 9.665 | 9.665 | 9.665 Mbytes
Step PotEng KinEng TotEng Temp Press Density c_msdli[4] c_msdsi[4] 
    3200   -950.70652    49.751344   -900.95518    1781.9127    7852.1798    2.1988131            0 5.3469522e-32 
    3300   -949.50288    44.069595   -905.43328    1578.4131    5112.4154    2.1955557   0.14625806  0.094450044 
    3400   -950.32017    39.317364    -911.0028    1408.2054   -7400.9572    2.1689392  0.055068916  0.096449586 
    3500    -945.2105    42.247268   -902.96324    1513.1439   -2753.1837    2.1630319    0.5229731  0.091298581 
    3600   -946.10586     44.60202   -901.50384    1597.4826    9320.4655    2.1962806   0.40048249   0.11313608 
    3700   -948.40763    40.832523    -907.5751    1462.4729    5961.5504    2.1971704   0.45838258   0.07802648 
    3800    -948.9487    39.577029   -909.37167    1417.5057   -6565.6929     2.170347   0.13941548   0.11246567 
    3900   -950.03165    47.851727   -902.17993    1713.8753   -7465.5703    2.1646825   0.12695601    0.1114333 
    4000   -950.15629    47.664083   -902.49221    1707.1546    4221.7315    2.1930328   0.11940816   0.11023853 
    4100   -950.67834     44.01691   -906.66143    1576.5261    2708.8645    2.1989394   0.17871237  0.099278035 
    4200   -953.55386    39.802872   -913.75099    1425.5945   -5075.2453    2.1813934   0.11831401  0.091920371 
    4300   -945.37999    41.079749   -904.30024    1471.3276     -5413.23    2.1628195   0.25855008   0.10736825 
    4400   -947.23734     44.63997   -902.59737    1598.8418    8508.3638    2.1983305   0.14319502   0.10307641 
    4500   -947.31852    45.506308   -901.81221    1629.8709    7248.3016    2.1994729   0.37580072   0.12758105 
    4600   -937.67717    44.034658   -893.64251    1577.1618   -5915.8136    2.1442471    0.1186492   0.11897655 
    4700   -943.32088    45.114801   -898.20608    1615.8486   -7505.9722    2.1523978   0.70129731   0.11980108 
    4800   -947.43231    45.235278   -902.19703    1620.1636     4771.792    2.1927127   0.47336127   0.12378532 
    4900   -950.28475    47.653799   -902.63095    1706.7862    7666.6136    2.2000247   0.23035254   0.11082436 
    5000   -946.90354    42.601163   -904.30238    1525.8192   -5096.0558    2.1668815   0.20370562   0.11742601 
    5100   -954.83269     41.77348   -913.05921    1496.1746   -6317.9767    2.1817981   0.03816271  0.098335344 
    5200   -950.10535    44.346508   -905.75884    1588.3311    4932.4628    2.1957252   0.18555496  0.095119847 
    5300   -946.06775    43.898908   -902.16884    1572.2997     4647.433    2.1902623    0.2868109   0.11066099 
    5400   -945.63108    43.188194   -902.44289    1546.8445   -3547.1555    2.1650127   0.13252591   0.13498725 
    5500   -951.89074    40.067342   -911.82339    1435.0669   -4066.7348    2.1832441   0.36884148   0.11308373 
    5600   -949.65989    43.813423   -905.84646    1569.2379    2295.2675     2.193155   0.11276515    0.1236974 
    5700   -945.55888    44.022308   -901.53657    1576.7194    5793.7363    2.1902652   0.22431297   0.11063232 
    5800   -944.93622    41.493055   -903.44316    1486.1308   -2126.6151    2.1703359  0.075424245   0.12125654 
    5900   -951.44584    39.829783   -911.61606    1426.5584   -2061.2896    2.1864235  0.063379131   0.11593974 
    6000    -948.3897    45.288264   -903.10143    1622.0614     5615.907    2.1897284  0.021421669   0.10269014 
    6100   -949.34539    47.549319   -901.79608    1703.0442    2031.0586    2.1909484  0.044500878   0.12260939 
    6200   -952.03395    46.003425   -906.03052    1647.6758    -6268.212    2.1743562   0.48060065  0.092544251 
    6300   -954.69956    43.324589   -911.37497    1551.7297   -5041.4213    2.1798262   0.36065933   0.10752703 
    6400   -947.41519    44.910264   -902.50493    1608.5228    3720.7266     2.187704   0.12516884   0.11897392 
    6500   -947.69109    45.635631   -902.05546    1634.5028    3646.3348    2.1888828   0.82916305   0.11334701 
    6600   -947.22733    41.657254   -905.57007    1492.0118   -4109.9295    2.1735749   0.16746801   0.11898416 
    6700   -953.27843    40.915968   -912.36246    1465.4616   -3079.6584     2.186126     0.203086  0.099784382 
    6800   -946.71007     43.68486   -903.02521    1564.6333    3455.6075    2.1893165   0.18536158   0.11365884 
    6900   -949.59029    47.235372   -902.35492    1691.7997    3639.5017     2.193278    0.2235766   0.12369727 
    7000   -947.98107    43.260213   -904.72086    1549.4239   -4387.2511    2.1686464   0.21239339   0.10873097 
    7100   -950.47072    38.306799   -912.16392    1372.0106   -5407.3153    2.1757619   0.08714295   0.11171315 
    7200   -950.09023    42.752681   -907.33754     1531.246    6108.8776    2.2056339  0.092881441   0.12483086 
    7300   -945.12219    42.615327   -902.50686    1526.3265    12265.853    2.2057178   0.52109963   0.12556708 
    7400   -946.39706    43.474814   -902.92225    1557.1102   -9937.1075    2.1531795   0.25963404   0.12830175 
    7500   -943.61304    45.010873   -898.60217    1612.1262   -8013.0924    2.1502638   0.20787275   0.12607027 
    7600   -943.29328    51.337234   -891.95604    1838.7136    5402.2384    2.1789425  0.066644973    0.1142588 
    7700   -947.32024    46.792192   -900.52805    1675.9266    5777.7022    2.1928363   0.20952795   0.11199355 
    7800   -945.58624    42.334706   -903.25154    1516.2756   -3877.9949    2.1677635   0.30460572   0.12199516 
    7900   -945.94414    42.089193   -903.85494    1507.4823   -3866.9394    2.1662278   0.26381968   0.12442384 
    8000   -946.44501    43.468314    -902.9767    1556.8774    6792.9153    2.1948824   0.16669808   0.12403302 
    8100   -942.17669    47.313791    -894.8629    1694.6084   -171.80558    2.1658079  0.063609706   0.13668166 
    8200   -942.62622     41.85299   -900.77323    1499.0223    -3113.406     2.161303   0.41508109   0.12112436 
    8300   -950.05144    46.224242    -903.8272    1655.5847    413.03555    2.1816425   0.18327357   0.12265971 
    8400   -948.02384     43.43517   -904.58867    1555.6903    3989.4859    2.1910607   0.36937339    0.1130447 
    8500   -942.90425     48.18835    -894.7159    1725.9319   -2845.4018    2.1578495    1.3060176   0.13655429 
    8600   -947.43648    46.288473   -901.14801    1657.8852   -1415.9496    2.1736245   0.37834423   0.12031503 
    8700   -945.86822    41.448279   -904.41994     1484.527    2167.6982    2.1832854   0.11955319   0.11998945 
    8800   -944.50818    44.840494   -899.66769    1606.0239    883.01373     2.179338   0.27374819    0.1338152 
    8900   -946.85611    49.444511    -897.4116    1770.9231   -3469.5897    2.1650734   0.13242764   0.12183996 
    9000   -947.59421     42.83663   -904.75758    1534.2527   -540.03505    2.1750773  0.045997709   0.11557824 
    9100   -945.44991    43.398542   -902.05137    1554.3784    4609.6942     2.188133  0.095823328   0.12664545 
    9200   -942.80139    47.403391     -895.398    1697.8175    3731.5946    2.1771455  0.044916915   0.13555576 
    9300   -948.28404    44.343322   -903.94071     1588.217   -2232.4183    2.1733937   0.31375488   0.11523251 
    9400   -949.10585    44.685588   -904.42026    1600.4757   -10617.573    2.1590461   0.11746854    0.1156252 
    9500   -943.25488    43.013358   -900.24152    1540.5825     8861.478    2.1970397   0.12784163   0.11680777 
    9600   -948.05723    42.263147   -905.79409    1513.7126    15463.569    2.2196799  0.066488973   0.12285387 
    9700    -952.0971    43.704321   -908.39278    1565.3303   -10928.951    2.1619146   0.25467593   0.11642301 
    9800   -945.69369    42.200649   -903.49304    1511.4742   -10828.807    2.1538401   0.36412389   0.13046752 
    9900   -947.06011    46.800313    -900.2598    1676.2175    7627.3524    2.1999339    0.3202865   0.13450942 
   10000    -953.7807    45.604309    -908.1764     1633.381    4829.4329    2.2069678   0.22491624   0.10273302 
   10100   -947.72307    41.999461   -905.72361    1504.2684   -6220.2033    2.1648494   0.04361053   0.12389752 
   10200   -947.30418    45.963991   -901.34019    1646.2635   -3069.8182    2.1677831   0.22097029   0.10461148 
   10300    -949.7244    45.755673   -903.96873    1638.8023    4710.7064    2.1927575   0.35838824   0.10778941 
   10400   -952.89088    43.626323   -909.26455    1562.5367     3278.249    2.1999367   0.29749658   0.10149227 
   10500   -946.63602    47.366658   -899.26936    1696.5019   -5595.0875    2.1599174   0.20886512  0.098741658 
   10600   -948.23678    46.526043   -901.71073    1666.3941   -541.02555    2.1770331  0.081195767   0.10471109 
   10700    -949.5009    44.805424   -904.69547    1604.7678    4354.7488    2.1956452   0.16702474   0.11021049 
   10800   -946.07224      41.4481   -904.62414    1484.5206    2211.8875    2.1831157  0.074895382   0.11449596 
   10900   -944.84887    48.304176   -896.54469    1730.0804   -9876.5226    2.1455048   0.14107445    0.1245278 
   11000   -947.00697    43.982524   -903.02444    1575.2945    738.57863    2.1779248    1.3749532   0.11631178 
   11100   -945.47858    43.932538   -901.54605    1573.5042    12403.834     2.208398   0.12604637  0.098522567 
   11200   -941.73774    47.049964   -894.68778    1685.1591   -4397.6374    2.1585727    2.9365793    0.1379109 
   11300   -943.55906    42.255489   -901.30357    1513.4384   -11804.241    2.1443022    7.4505798   0.14956743 
   11400   -946.85585    43.955344    -902.9005     1574.321    2506.6644    2.1828305    6.9218931   0.12566125 
   11500   -945.84255    46.878312   -898.96424    1679.0111    10627.224    2.1974661    5.9409844   0.13521978 
   11600   -944.40058    46.108256   -898.29232    1651.4305   -1869.3838    2.1672538    5.7369938     0.118819 
   11700   -950.68845    44.174577   -906.51388    1582.1732   -266.18926     2.179964    5.8979688    0.1342996 
   11800   -946.68372    44.319301   -902.36442    1587.3566    1432.9066    2.1820516    4.4001229   0.14521508 
   11900   -944.78852    45.351004   -899.43752    1624.3085   -2527.7703    2.1709586    4.2021228   0.15009976 
   12000   -949.22742    42.240247   -906.98717    1512.8925   -3213.9301    2.1762982    7.8796802   0.14065641 
   12100   -950.14702    44.999437   -905.14759    1611.7166   -157.04418    2.1773266    5.9670524     0.121952 
   12200   -948.04671    48.395283   -899.65142    1733.3435    679.25811    2.1787254    4.5597955     0.131786 
   12300    -949.1718    44.446067   -904.72573    1591.8969    4247.4435    2.1869682    4.9242539   0.13989352 
   12400   -951.55504    44.077108   -907.47794    1578.6822   -3404.1796    2.1813794    5.1902121   0.15026132 
   12500   -948.24117    48.990328   -899.25084    1754.6559   -5643.1585    2.1645652     5.979076   0.14760153 
   12600   -947.96007    45.064533   -902.89553    1614.0482      -1304.4    2.1781052    6.2175614   0.13359722 
   12700   -948.06102    41.004256   -907.05676    1468.6237    3603.7754    2.1971468    4.3393578   0.13647269 
   12800   -947.50949    49.633409   -897.87608    1777.6887   -3922.0327    2.1673258     5.306012   0.13848348 
   12900   -948.40496    46.051261    -902.3537    1649.3892   -6703.9374    2.1646805    6.3378825    0.1502122 
   13000   -946.89458    41.655915   -905.23867    1491.9638    1279.9067    2.1870024    3.7898277   0.13751721 
   13100    -943.3685    47.683049   -895.68545    1707.8339     3044.025    2.1826498    3.8049187   0.14402186 
   13200   -946.05667    45.667678   -900.38899    1635.6506    2395.9952    2.1831892     4.501467   0.13458585 
   13300    -944.3364    39.948015   -904.38838     1430.793   -4726.2256    2.1670534    7.5102137   0.14816687 
   13400   -943.47844    46.112697   -897.36574    1651.5896    240.83241    2.1731568    6.2733303   0.15254516 
   13500   -945.01098    47.544138   -897.46684    1702.8586    7493.6621    2.1920076    5.3659912   0.12759916 
   13600    -947.9975    44.555811   -903.44169    1595.8276   -2555.6992    2.1726308    7.2680648   0.12246128 
   13700   -946.03796    44.448253    -901.5897    1591.9752   -7809.7248    2.1591968    3.1731887   0.14130984 
   13800   -947.10612     50.81405   -896.29207     1819.975    1370.0947    2.1776869    8.5491413   0.12718849 
   13900   -950.10264    47.304791   -902.79785    1694.2861    3781.0295    2.1929912    4.4228483   0.13200771 
   14000      -950.38    45.709392    -904.6706    1637.1447    -10186.74    2.1620399    8.0501129   0.13114786 
   14100   -950.02344    48.772107   -901.25134      1746.84    -5688.551    2.1705049    5.6364902   0.13168255 
   14200   -947.59833    47.387866   -900.21046    1697.2615    10986.301    2.2063266    5.9203724   0.13367888 
   14300   -953.46606    44.624193   -908.84186    1598.2768    5876.3079    2.2049311    5.1722511   0.12721096 
   14400   -945.91619    44.148762   -901.76742    1581.2485   -15503.798    2.1378744    5.4147888   0.13866643 
   14500   -944.46959    43.902341   -900.56724    1572.4227   -3004.0903    2.1649688    7.4485633    0.1452413 
   14600   -947.26384     44.14849   -903.11534    1581.2388     12075.01    2.2053495    7.0676344   0.12830947 
   14700   -952.48714    42.488845   -909.99829    1521.7963     1407.248    2.1919103    20.531394   0.11725715 
   14800   -946.29461    45.710607   -900.58401    1637.1882   -8385.1362    2.1550468    22.084633   0.11501698 
   14900   -946.41301    44.726695   -901.68631     1601.948    1482.4396    2.1802676    21.493755   0.12818547 
   15000   -946.73943    41.307464   -905.43197    1479.4836    5725.2797    2.1946734    22.123366   0.12914201 
   15100   -949.94693    47.053891   -902.89304    1685.2997   -2184.1005    2.1764685    19.962348   0.10828619 
   15200   -943.12195    45.208907   -897.91304    1619.2191    -5502.486    2.1543888    21.656015   0.12162548 
   15300   -947.67704    43.825863   -903.85118    1569.6835    324.81167    2.1814072    20.178689   0.11807447 
   15400   -948.50995    44.461139   -904.04881    1592.4368    6504.7593    2.1976986    19.608971   0.12684452 
   15500   -943.07778     47.86449   -895.21329    1714.3325   -3337.5377    2.1605133    21.325142    0.1365098 
   15600   -948.44255    45.002881   -903.43967      1611.84   -4625.3495    2.1671829     18.56892    0.1127089 
   15700   -952.84217    48.623561   -904.21861    1741.5196    -1067.281    2.1844835    17.669176   0.10557152 
   15800   -946.45434    48.464683   -897.98966    1735.8292    5881.3024    2.1871412    21.448202   0.11620122 
   15900   -943.70073    43.130941   -900.56979    1544.7939   -3809.5359    2.1625131    19.369688   0.12581373 
   16000   -949.43213    43.108035    -906.3241    1543.9735   -11617.585    2.1552182    21.475759   0.11550584 
   16100   -947.89673     47.10135   -900.79538    1686.9996    9157.7918    2.1954613    19.931094   0.10749926 
   16200    -948.8571    47.658799    -901.1983    1706.9654    11790.258    2.2049204    19.022054   0.12356628 
   16300   -951.52832    41.822948   -909.70538    1497.9463   -7745.3705    2.1706498    22.852693   0.11428003 
   16400   -946.83958    43.317911   -903.52167    1551.4905   -12480.239    2.1483083    23.723128   0.12715208 
   16500   -942.12884    42.135742    -899.9931    1509.1495    7964.8123    2.1941689    20.400905    0.1482598 
   16600   -948.54143    41.606665   -906.93477    1490.1998    8953.8098    2.2070115    23.063186   0.12396069 
   16700   -948.27351    43.663919   -904.60959    1563.8832   -5185.7464    2.1714393    19.382452   0.13336053 
   16800   -943.96387    44.170184   -899.79369    1582.0158   -3952.1062    2.1604505    20.174447   0.11322482 
   16900   -946.68918    42.319089   -904.37009    1515.7163      2038.85    2.1854684    21.489352   0.12612057 
   17000   -947.41625    40.648866   -906.76739     1455.895    6481.2393    2.1973766    20.246685    0.1152516 
   17100   -944.69618    47.407643   -897.28854    1697.9699   -4649.0435    2.1613068    21.781665   0.13697364 
   17200   -949.47574    46.474574   -903.00117    1664.5507   -3210.9187    2.1725464    20.618827   0.11820093 
   17300   -952.16804    47.410431    -904.7576    1698.0697    2239.2779    2.1899731    18.801506   0.10812593 
   17400   -944.24266    48.368356    -895.8743    1732.3791    427.85012    2.1703972    23.018374   0.13523809 
   17500   -945.78978    44.075788     -901.714    1578.6349    -297.5811    2.1736791    21.714605   0.12644648 
   17600   -949.38129    44.246529   -905.13476    1584.7502   -4593.5063     2.173189    20.707323   0.12753608 
   17700   -946.77496    47.634882   -899.14008    1706.1087   -1016.3057    2.1764216    20.376037   0.12252446 
   17800   -944.57124    46.246034    -898.3252    1656.3652    5524.7007    2.1880727    22.312415   0.11958243 
   17900   -946.40076    40.738357    -905.6624    1459.1002    -1523.791     2.174823    21.513881   0.12023751 
   18000   -944.91191    42.063159   -902.84876    1506.5498   -5568.6085    2.1604104    21.163788   0.12495212 
   18100   -946.60942    49.295587   -897.31383    1765.5891    3778.6102    2.1820922    20.182083   0.11674418 
   18200    -947.4682    40.640129   -906.82807     1455.582    8788.2632     2.203942    21.614049   0.11553494 
   18300   -945.82682    41.266237   -904.56058     1478.007   -8095.2347    2.1539896    20.066305    0.1226958 
   18400   -946.32993    45.593016   -900.73692    1632.9765   -7571.4304    2.1569894    23.344039   0.10923146 
   18500   -947.01845    40.408797   -906.60965    1447.2966    10701.463    2.2078662    20.530091   0.13197076 
   18600   -947.48112    40.348079   -907.13304    1445.1219    7718.3022    2.1965839    20.126938   0.11140055 
   18700   -944.27315    43.116873   -901.15628      1544.29   -6953.4861    2.1531324    20.804942   0.10952566 
   18800   -947.09677    43.298015   -903.79875    1550.7779    -4462.375    2.1636601    23.019878   0.11287117 
   18900    -952.0887     44.28249   -907.80621    1586.0382    8999.0146    2.2110197    21.803281    0.1084867 
   19000   -946.08698    47.732798   -898.35418    1709.6157   -884.81796    2.1742909    23.852014   0.12576923 
   19100   -943.64707    41.100116   -902.54695    1472.0571   -4410.9682    2.1605712    21.471902    0.1279269 
   19200   -948.91928    42.751225   -906.16806    1531.1939   -671.81303    2.1817512    21.309253   0.12744932 
   19300    -945.1167    45.856898   -899.25981    1642.4278    5889.2624    2.1916089    19.111256   0.12648189 
   19400   -944.09755    45.105271   -898.99228    1615.5072    430.37752    2.1731495    19.170595   0.13963755 
   19500   -946.03386     40.81335   -905.22051    1461.7862   -4719.7504    2.1691448    24.845242   0.13007724 
   19600   -948.01198    46.415742   -901.59624    1662.4435   -241.28308    2.1817298    20.463425   0.12478746 
   19700   -944.97646    49.173688   -895.80277    1761.2232    2709.4786    2.1769764    20.894326   0.10905936 
   19800    -948.5641    43.757648   -904.80645    1567.2402   -65.763676    2.1846924    22.087281   0.11639919 
   19900   -945.33809    42.360959   -902.97713    1517.2159   -54.780725    2.1763149    18.203461   0.11237318 
   20000   -943.13978     46.39087   -896.74891    1661.5527    335.12131    2.1693557    21.212065   0.13248774 
   20100    -950.6675    44.774362   -905.89313    1603.6553    3177.3885    2.1925784    19.785059    0.1185787 
   20200   -948.20477    43.426269    -904.7785    1555.3715   -1447.6809    2.1780021    19.626575   0.12390103 
   20300   -945.82254    45.156841    -900.6657    1617.3543   -1367.2097    2.1692763    21.081797   0.11896898 
   20400   -952.37964     48.78676   -903.59288    1747.3648   -18.523311    2.1850588    18.445247   0.10217246 
   20500   -950.79372    42.587587   -908.20614    1525.3329    4286.2372    2.1976922    20.667459   0.11708095 
   20600   -948.04777    46.237183   -901.81059    1656.0482   -3686.9657    2.1733311    20.101149   0.11302889 
   20700   -947.33071    44.988034   -902.34267    1611.3082   -5978.2834    2.1615987    18.772003   0.11833151 
   20800   -952.59338    42.274089   -910.31929    1514.1045    4926.3476    2.2026957    21.609117    0.1027629 
   20900   -948.80067    46.432699   -902.36797    1663.0509    8058.9459    2.1977298    19.807309    0.1081148 
   21000   -946.27967    44.574858   -901.70481    1596.5098   -5158.9973    2.1587794    19.533635   0.11654946 
   21100   -947.33264    41.627164   -905.70548     1490.934   -8828.9181    2.1555916     21.49305    0.1102255 
   21200   -954.05772    46.051081   -908.00664    1649.3827    6168.2447    2.2077857    19.084612   0.10580136 
   21300   -947.80729    49.087805   -898.71949    1758.1471    5944.1793    2.1879909    20.199232   0.10535151 
   21400   -944.71289    41.813149   -902.89974    1497.5954   -7905.5362    2.1528682    20.664312   0.12650063 
   21500   -947.61283    42.238363   -905.37447     1512.825   -4905.3833     2.167679    19.974692   0.12637472 
   21600    -956.1795    46.299649   -909.87985    1658.2855    5012.5199    2.2088108    20.438842   0.10659744 
   21700   -947.98528    44.235891   -903.74939    1584.3692    6177.0082    2.1929187    18.063238   0.11478617 
   21800   -946.98397    44.984266   -901.99971    1611.1733   -5279.8677    2.1629312    18.157205   0.10537339 
   21900   -945.33427    42.181738   -903.15253    1510.7969   -3516.9843    2.1662442    18.841452   0.12516847 
   22000   -948.45737    45.705355   -902.75201    1637.0001    4614.3616    2.1919336    21.075104   0.12389889 
   22100   -947.06763    43.066671   -904.00096     1542.492    3964.3453    2.1872985    22.511751   0.11476465 
   22200   -952.58346    40.334169   -912.24929    1444.6236   -1949.1062     2.186605    20.761304   0.10270706 
   22300   -948.47494    42.053907   -906.42103    1506.2184   -3037.4163    2.1734211    18.155654   0.12543755 
   22400   -945.80903    43.173247   -902.63579    1546.3091    1817.1746    2.1802786    18.342902   0.12682158 
   22500   -948.63801    47.524632   -901.11338      1702.16    1188.2861    2.1822399    20.303464   0.12737367 
   22600   -951.18785    42.638306   -908.54955    1527.1495    -6808.388    2.1705877    19.539945   0.11530363 
   22700   -950.24403    42.387772   -907.85626    1518.1763   -10551.115    2.1616342    22.061027   0.10854314 
   22800   -947.66228    45.548284     -902.114    1631.3743    11812.783    2.2098178    21.788107   0.13431962 
   22900   -950.03581    48.278432   -901.75738    1729.1584    5842.9671     2.196719     21.18094   0.10675857 
   23000   -946.94199    41.101266   -905.84072    1472.0983   -13034.119    2.1465171    21.622281   0.12506118 
   23100   -949.67024    40.112425   -909.55781    1436.6816   -2221.1224    2.1783264    22.296729  0.097585875 
   23200    -947.0083    45.196201    -901.8121     1618.764    10532.898    2.2036652    21.658724   0.10586281 
   23300   -947.09722    44.486561   -902.61066    1593.3473    195.75087     2.181633    19.193408   0.13572181 
   23400   -948.28969    40.867813   -907.42188    1463.7368    -8032.625    2.1614329    20.467455   0.12147275 
   23500   -949.03947    39.739874    -909.2996    1423.3382    1142.8639    2.1879066     20.05683   0.13687824 
   23600   -949.94342    48.439569   -901.50385    1734.9297    5724.8041    2.1930104    21.582551   0.10408194 
   23700   -948.22286    45.212262    -903.0106    1619.3393   -1033.3317    2.1734162    20.695933   0.11268571 
   23800   -948.18852    41.119781   -907.06874    1472.7614   -6689.4597    2.1678788    20.940105   0.12477225 
   23900   -954.19718    42.545742   -911.65144    1523.8342    2882.4855    2.1999038    20.594641   0.10525652 
   24000   -945.67001    43.229271   -902.44073    1548.3157    4357.3785    2.1849501    21.558434   0.11228082 
   24100    -945.6406    42.730831   -902.90977    1530.4634   -3861.5328    2.1624438    20.451309   0.11519618 
   24200   -947.29243    44.033087   -903.25934    1577.1055   -2458.8273    2.1709908    22.586827   0.11671861 
   24300   -955.06452    42.612053   -912.45247    1526.2092    8396.9433    2.2166312    20.439078   0.11626998 
   24400   -946.08806    41.390086   -904.69797    1482.4428   -368.27965    2.1774422    21.134236   0.13642469 
   24500   -943.25117    40.480446   -902.77072    1449.8628   -9561.1895    2.1451306     21.87811    0.1267729 
   24600   -949.37083    47.414732    -901.9561    1698.2237    113.94003    2.1817023    20.560997   0.11322446 
   24700   -949.76526     40.55924   -909.20602    1452.6849    19915.101    2.2333431    20.864261   0.10652105 
   24800   -948.27209    43.795695    -904.4764     1568.603   -4671.9182    2.1683533    22.550739   0.10986325 
   24900   -943.77712    41.362369   -902.41476    1481.4501   -10505.356    2.1469971     20.88345   0.12169298 
   25000   -950.08848    46.953671   -903.13481    1681.7102    2543.2179    2.1890994    23.172859   0.12125652 
   25100    -953.1176    45.384879   -907.73272    1625.5218    6845.3493    2.2068895    20.807248   0.11581529 
   25200   -949.71228    39.401328   -910.31095    1411.2127   -1550.2396    2.1795747    20.630124   0.10857451 
   25300   -945.07138    43.851176    -901.2202    1570.5901   -7424.2081    2.1530288    20.166215    0.1230744 
   25400   -949.20018    46.636213   -902.56397      1670.34    1945.5796    2.1837276      19.4871   0.11387199 
   25500   -948.81251    45.505542   -903.30697    1629.8435    5990.9117    2.1959068    18.725085   0.12447389 
   25600   -947.50056    45.315416   -902.18514    1623.0339   -2750.1848    2.1721187    22.481603   0.12028084 
   25700    -943.7687    49.358007    -894.4107    1767.8248   -9225.2288    2.1426392    21.019471   0.11255897 
   25800   -949.38238    47.956778   -901.42561    1717.6379    1297.1167    2.1844578    20.561532   0.11280072 
   25900   -948.69298    45.352729   -903.34025    1624.3703    6236.9785    2.1971575    21.296734   0.11489509 
   26000   -950.62984    46.942483   -903.68736    1681.3095   -3426.2212    2.1738939    22.034699   0.11651848 
   26100   -943.28016     49.59319   -893.68697    1776.2482   -6830.0383    2.1476008    21.535799    0.1206007 
   26200   -947.50023    45.634926    -901.8653    1634.4775    7464.2849    2.1944299    22.036817   0.12321276 
   26300   -948.78343    45.165655   -903.61778      1617.67     4198.653     2.190492    20.794607   0.11287825 
   26400   -947.58013    46.460007   -901.12013     1664.029   -4278.3762    2.1693231    22.975462   0.12435334 
   26500   -944.22483    50.150131    -894.0747    1796.1958    -6895.525    2.1536064    22.815685   0.13078383 
   26600   -950.13466    46.747169   -903.38749    1674.3141    4955.8878    2.1961401    19.049981   0.11685551 
   26700   -950.07781    46.694186   -903.38363    1672.4164    1412.0947    2.1865983    20.526705   0.11702521 
   26800   -947.32418    48.696605   -898.62757    1744.1358   -5604.0557    2.1631228    22.895509   0.11571087 
   26900   -942.96253    47.969109   -894.99342    1718.0795   -3846.5144    2.1576957    21.385613   0.13240789 
   27000   -948.58182    44.863052   -903.71877    1606.8318    4919.8666    2.1957989    22.318459   0.12598068 
   27100   -948.23638    45.569443   -902.66694    1632.1322    2976.7362    2.1875366    18.479737   0.12692544 
   27200   -943.40439    42.864832   -900.53955    1535.2628   -4068.7731    2.1609134    20.524477   0.11820305 
   27300   -941.28102    50.867156   -890.41386    1821.8771   -3793.0507    2.1523926     20.30727   0.14064443 
   27400   -942.42528    42.610362   -899.81492    1526.1487    11360.092    2.1995024    21.702697   0.13317783 
   27500   -944.49304    42.039198   -902.45384    1505.6916    1408.1331    2.1779502    19.945131   0.13098118 
   27600   -947.36801    43.276402   -904.09161    1550.0038   -8042.3116    2.1615752    23.234726   0.11836347 
   27700   -946.76577    47.315791   -899.44998      1694.68    2139.0912    2.1807817    19.983871   0.14020505 
   27800   -942.77755    46.627331   -896.15022    1670.0219    3572.3131    2.1769136    20.281188   0.13453699 
   27900   -946.81538    43.711013   -903.10436      1565.57    -2314.873    2.1717242    20.947065   0.13044653 
   28000   -948.01144    44.274841    -903.7366    1585.7642   -2079.6151    2.1780687    19.649373   0.12299275 
   28100    -943.3433    46.077365   -897.26593    1650.3241    3300.8604    2.1800163    20.798014   0.12364786 
   28200   -947.25227    49.742883   -897.50939    1781.6097   -2119.7611    2.1698402    20.617828    0.1256675 
   28300   -949.74407    45.981768    -903.7623    1646.9002   -3226.4976    2.1695639    22.664916   0.11192549 
   28400   -949.00027    46.016726   -902.98354    1648.1523   -278.83899    2.1819291    21.542305   0.13248095 
   28500    -945.1473    49.511025   -895.63628    1773.3054    2745.1407    2.1824774    21.484399   0.12384203 
   28600   -944.68666    45.782371   -898.90429    1639.7585   -1617.8559    2.1677428    19.198223   0.12325097 
   28700   -945.98156      41.8037   -904.17786    1497.2569   -8020.8796    2.1593648    19.538124   0.12931611 
   28800   -946.89485     44.72063   -902.17422    1601.7308    4235.9948    2.1864082    19.679821    0.1227482 
   28900   -948.37392    52.897577   -895.47634    1894.5994    7766.2926    2.1950981    21.190684   0.11766114 
   29000   -944.59044    45.659811   -898.93063    1635.3689   -5653.7879    2.1560801    24.298724   0.12378782 
   29100   -945.72087    41.198819   -904.52205    1475.5923     -9111.31    2.1496892    22.945377   0.12118125 
   29200   -950.54077    48.992153   -901.54861    1754.7212    5810.9988    2.1979985    21.470979   0.12151495 
   29300   -945.10649    44.144263   -900.96223    1581.0874    9986.9727    2.1973698    19.254316   0.11885552 
   29400   -951.59278    40.966868   -910.62591    1467.2846   -4408.9514    2.1787333    19.151493    0.1170614 
   29500    -948.7436    42.742845   -906.00076    1530.8937   -4948.6962    2.1692973    19.914716   0.12011698 
   29600   -946.16478    44.253394   -901.91139    1584.9961    4443.1119    2.1836707    19.762767   0.12883147 
   29700   -946.65615    44.251681   -902.40447    1584.9347    3450.7543    2.1838549     18.59862   0.12706502 
   29800    -952.8564    41.688193   -911.16821    1493.1199   -228.03764    2.1895002    20.669589   0.12106563 
   29900   -946.55045    42.898046    -903.6524    1536.4524   -5758.5984    2.1638928    21.511677   0.13455743 
   30000   -948.88483    47.200497   -901.68433    1690.5506   -43.391356    2.1786543    21.516695   0.11522572 
   30100   -947.68406    40.853468    -906.8306    1463.2231    7894.6066    2.1976583    19.615315   0.11814386 
   30200   -951.28793    41.863789   -909.42414    1499.4091   -1043.6356    2.1838193    21.444423   0.10576101 
   30300   -948.16908    46.185812   -901.98327    1654.2083   -8190.8095    2.1579572    21.926866   0.12293732 
   30400   -945.10013    42.030554   -903.06958     1505.382    2770.2245    2.1807439    21.498933   0.13438795 
   30500   -951.23479    43.237499   -907.99729    1548.6104    9139.7202    2.2081427    18.739538   0.11793977 
   30600   -947.85125    44.493876   -903.35737    1593.6093    261.45407    2.1784215    20.173371   0.12966592 
   30700   -945.35166    44.635807   -900.71585    1598.6927   -9053.3433    2.1516563    20.766892   0.13013114 
   30800   -948.90105    45.315436   -903.58561    1623.0346   -2498.5967    2.1767413    21.955655   0.12669823 
   30900   -945.57694    41.972207   -903.60473    1503.2922    14110.867    2.2132555    22.015106   0.13279186 
   31000   -943.68647    50.029354   -893.65711      1791.87    -2099.022    2.1631009    24.232385   0.13111761 
   31100    -943.1472    42.539686   -900.60752    1523.6173   -10285.518    2.1441922       22.278   0.12374401 
   31200   -951.70646    47.652301   -904.05416    1706.7326   -1773.1255    2.1850805    21.842242   0.11097038 
   31300   -946.97493    44.687093   -902.28783    1600.5296    13730.297    2.2125768    20.640653    0.1336694 
   31400   -941.68604    47.420218   -894.26583    1698.4202   -5123.2623     2.152303    19.134732   0.14167963 
   31500   -947.66633     44.06414   -903.60219    1578.2177   -5906.3784    2.1644391    19.564318   0.11405821 
   31600   -948.14299    44.494456   -903.64853      1593.63    2268.8657    2.1873107    21.460379    0.1277455 
   31700   -951.02456    50.161922   -900.86264    1796.6181    1852.0062    2.1873725    22.447673   0.11096916 
   31800   -941.95003    48.418125   -893.53191    1734.1617   -4240.9814     2.158228     24.77404   0.13968017 
   31900   -949.80236    46.164832   -903.63753    1653.4569   -1054.4048    2.1826765    24.249742    0.1217589 
   32000   -950.39526    46.911524   -903.48374    1680.2007   -1202.7088    2.1806984    20.265089   0.11095151 
   32100   -946.45944    44.401608   -902.05784    1590.3046    357.38082    2.1796439    19.208368   0.11453251 
   32200   -945.72522    48.671316    -897.0539      1743.23    573.40549    2.1739149    19.965585   0.12546971 
   32300   -942.18579    47.621819   -894.56397    1705.6409   -1875.8782    2.1573303    20.750188   0.14110486 
   32400   -947.89236    45.932078   -901.96028    1645.1204   -1865.7889    2.1712146    18.439338   0.12638946 
   32500   -948.68093     45.49184   -903.18909    1629.3527    4368.1659    2.1895551    19.475794   0.11327854 
   32600   -950.78302    45.132715    -905.6503    1616.4902   -653.11517    2.1855559    21.742602   0.10646528 
   32700   -955.08962    40.463876   -914.62575    1449.2693   -8502.9486    2.1782775    22.509287   0.11627392 
   32800   -950.18045    42.537457   -907.64299    1523.5374   -5781.0307    2.1714008    24.202776   0.12380144 
   32900   -950.65489    47.467233   -903.18765    1700.1041    11864.831    2.2152668    20.066446   0.11962889 
   33000   -946.34997    45.376748   -900.97322    1625.2306    5339.3812    2.1892054    18.206395   0.12132889 
   33100   -945.48625     43.42638   -902.05987    1555.3755   -17071.225    2.1300563    20.300553    0.1307608 
   33200   -950.77888    40.822768   -909.95611    1462.1235    222.06624    2.1837852     19.17361   0.12027003 
   33300   -946.52811     44.75694   -901.77117    1603.0313     11472.51    2.2040851    20.606502   0.13529817 
   33400   -947.12564    45.007858   -902.11778    1612.0183    160.29108    2.1793887    19.646588   0.13826255 
   33500   -950.16722    42.484564   -907.68266     1521.643   -8380.7018    2.1636498    19.415276   0.10418245 
   33600   -952.15954    45.072774   -907.08676    1614.3433    47.102094    2.1864667    22.395118   0.12070328 
   33700   -945.67617    45.169167     -900.507    1617.7958    5725.3886    2.1916841    22.317739   0.12776175 
   33800   -947.78158    44.028282    -903.7533    1576.9334    -3993.542    2.1725456    20.799934   0.13098122 
   33900   -950.07063    42.251094   -907.81953     1513.281   -6516.9333    2.1689957    19.622524   0.12416032 
   34000   -953.45111    41.029424   -912.42168    1469.5252    5410.8347    2.2067158    18.357072    0.1189784 
   34100     -947.906    45.106586   -902.79942    1615.5543    1727.3482    2.1835313    20.068023   0.13239353 
   34200   -948.34914    45.481554   -902.86759    1628.9843   -7663.7968    2.1619467     19.21494   0.11973008 
   34300   -946.10472     43.00057   -903.10415    1540.1245    996.22004    2.1780956    20.802699   0.13583208 
   34400   -952.15007     40.79694   -911.35313    1461.1984    7161.6177    2.2105585    19.611257   0.11242937 
   34500   -947.30951    41.246065   -906.06345    1477.2845    105.29928    2.1797894    20.948462   0.12747815 
   34600    -945.8881    42.923838   -902.96426    1537.3762   -5703.4481    2.1639428    21.457915   0.11579447 
   34700   -945.44655    42.821262   -902.62529    1533.7023    5381.7446    2.1822655    20.472882   0.12223141 
   34800   -952.25906    42.955638   -909.30342    1538.5152    8466.3767    2.2120512    18.401394    0.1223445 
   34900   -948.51551    39.495824   -909.01968    1414.5972   -2243.1054     2.175589    17.654828   0.11884794 
   35000   -947.74636    44.036061    -903.7103     1577.212   -10364.032    2.1549428    20.917851   0.13177799 
   35100   -948.86962    46.661945   -902.20767    1671.2616    4390.1691    2.1890745    19.990566    0.1252848 
   35200   -950.57547    45.583338   -904.99213    1632.6298    7905.3988     2.206235    19.818773   0.12250484 
   35300    -950.3097    38.033635   -912.27606    1362.2269   -2161.7662    2.1817024    19.502518   0.11899583 
   35400   -946.37356    42.063712   -904.30985    1506.5696   -9401.2499    2.1510572    22.259471   0.12520624 
   35500   -943.31059    41.269985   -902.04061    1478.1412    6510.2782    2.1863603    20.382307   0.12241179 
   35600   -946.88514      43.2801   -903.60504    1550.1362    10439.413    2.2023647    15.401887   0.12430965 
   35700   -944.32453    44.757203   -899.56733    1603.0407   -785.88151    2.1687317    22.016016   0.13305059 
   35800   -942.09584    45.478577   -896.61726    1628.8777   -8739.0067    2.1442556    18.772572   0.14609398 
   35900   -944.88968     42.82073   -902.06895    1533.6833    2244.8613    2.1794586    20.233435   0.12680729 
   36000   -951.91567     48.23207    -903.6836    1727.4978    5535.7198    2.2036458    21.275985   0.12114881 
   36100   -947.55527    44.709517   -902.84575    1601.3328   -308.52847    2.1778415    21.222846   0.11413705 
   36200   -943.39547    48.230731   -895.16474    1727.4499   -9943.7274    2.1439993    22.941372   0.11882874 
   36300   -945.56385    42.305275   -903.25858    1515.2215    3972.1613    2.1886612    17.118997   0.13627469 
   36400    -949.0026     45.43796   -903.56464    1627.4229    4220.4705    2.1951464    20.165505   0.12970928 
   36500   -947.57641     50.59294   -896.98347    1812.0556   -3002.1622    2.1685844    19.427996   0.13652526 
   36600   -945.98502    46.737905   -899.24711    1673.9823   -6509.3081    2.1601279    20.588378   0.11673909 
   36700   -948.90165    44.513944    -904.3877    1594.3281   -434.08327    2.1842437    19.605506   0.11704066 
   36800   -943.93517    42.617278   -901.31789    1526.3964    7723.5714    2.1950442    19.565522   0.12073852 
   36900   -944.73238    48.516688    -896.2157    1737.6918   -1658.7105    2.1687726    19.649889   0.12936826 
   37000   -949.79369    45.396776   -904.39692    1625.9479   -7145.9427    2.1667891    21.467655    0.1167299 
   37100   -947.97584    43.443248   -904.53259    1555.9796   -3126.0809     2.176892    21.161061   0.10330448 
   37200   -943.61522    42.301767   -901.31345    1515.0959    8518.8683    2.1954129    21.802319   0.13512251 
   37300   -943.57059    42.646388    -900.9242     1527.439    3756.2129    2.1821895    18.556632   0.12861598 
   37400   -952.46255    42.341068   -910.12149    1516.5035   -5114.6415    2.1799676     21.99314   0.11630392 
   37500   -944.64834    39.660396   -904.98794    1420.4916   -730.81304    2.1728025    21.442269   0.11489835 
   37600   -949.38801    48.385039   -901.00297    1732.9766    5751.3192    2.2002435    20.166403    0.1102333 
   37700   -946.22644    41.190701   -905.03574    1475.3015    5729.0138    2.1945711    19.305022   0.12222015 
   37800   -949.66265    38.834301   -910.82835    1390.9038   -10413.008    2.1599154     20.63557   0.12916519 
   37900   -949.25448    45.597144   -903.65734    1633.1244   -5110.4407    2.1694486    19.998106   0.12480762 
   38000   -944.86122    44.059453   -900.80177    1578.0498    14882.142    2.2124487    23.251523   0.12108179 
   38100   -952.37544    45.232927   -907.14251    1620.0794    1317.3422     2.194146    19.746614   0.11724885 
   38200   -949.42735    40.610131   -908.81722    1454.5076   -9992.6444    2.1626837    20.299091     0.118358 
   38300    -947.1162    45.909757   -901.20645     1644.321   -5503.5169     2.167167    18.536878   0.12594803 
   38400   -948.32571    45.943513    -902.3822      1645.53    5765.2373    2.2011249    20.506731   0.12936355 
   38500   -950.77861    44.014272   -906.76434    1576.4316     1359.785    2.1932843    18.889097   0.11382657 
   38600   -949.76916    49.558844   -900.21032    1775.0181   -6110.6658     2.165881    18.104569   0.11674543 
   38700   -943.19628    44.080373   -899.11591    1578.7991    153.20398    2.1748651    21.144996   0.12275254 
   38800   -947.27031    43.957387   -903.31292    1574.3942    2304.5863    2.1848739    18.550006   0.12739043 
   38900   -948.42755    42.891128   -905.53642    1536.2047    754.86361    2.1850788    21.558069   0.12186521 
   39000   -941.66743    46.171535    -895.4959    1653.6969   -3035.9617    2.1649339    21.419087   0.13988866 
   39100   -947.83055    47.016767   -900.81379    1683.9701    3929.0975      2.19025    18.828319   0.11002133 
   39200   -946.81228    42.522743   -904.28953    1523.0104    2859.9264    2.1859594    19.411316   0.13294579 
   39300    -944.3977    43.453507   -900.94419     1556.347   -5688.6046    2.1594273    19.903115   0.12543431 
   39400   -941.28545     45.15622   -896.12923     1617.332   -1387.9465    2.1632914    19.992901   0.13004271 
   39500   -946.07222    42.626905   -903.44532    1526.7411    15331.314    2.2160032    17.287882   0.11968388 
   39600   -950.02997    46.884122   -903.14585    1679.2192    1568.1442    2.1898055    20.526468  0.098206913 
   39700   -941.68008    44.040692   -897.63939    1577.3779   -12831.807    2.1355336     21.19215   0.15228595 
   39800   -948.84017    41.840765   -906.99941    1498.5845   -1545.8206    2.1851619    22.064131   0.11922792 
   39900   -952.92275    48.117612   -904.80514    1723.3983    8698.1753    2.2112376    19.142116   0.12233574 
   40000   -948.54274    47.601621   -900.94112    1704.9174    -1243.147    2.1797436    21.703544   0.12389469 
   40100   -948.09246     46.10922   -901.98324    1651.4651   -10386.327    2.1548389    24.229208    0.1191951 
   40200   -952.35793    43.339884   -909.01805    1552.2775    1165.4103    2.1964485    20.476988   0.11179595 
   40300   -947.42324    46.535752   -900.88748    1666.7419    6363.1657    2.1966476    21.083185   0.13066709 
   40400   -948.19858    45.731348   -902.46723     1637.931   -57.647774    2.1775134    20.758043    0.1158892 
   40500   -952.90054     43.23914    -909.6614    1548.6692   -6646.7932    2.1771904    20.330398   0.10788721 
   40600   -948.54138    46.190172   -902.35121    1654.3645    1038.3372    2.1823589    20.840561   0.11750241 
   40700   -947.06693    46.300763   -900.76617    1658.3254    6958.0351    2.1959503     20.57859   0.11326106 
   40800   -947.96484    41.332373   -906.63247    1480.3757   -1759.4318    2.1845268    22.190517   0.13324662 
   40900   -948.63628    47.088382    -901.5479    1686.5351   -6572.8435    2.1627894    21.356454   0.10529513 
   41000   -946.29958    47.754011   -898.54557    1710.3755    2059.0752     2.179233    21.497343   0.11480069 
   41100   -949.20665    45.232531   -903.97412    1620.0652    5471.0322    2.1953218    21.049072   0.11021856 
   41200   -948.33328    43.326463   -905.00682    1551.7968   -3675.3688    2.1734049    22.307253   0.11309042 
   41300   -941.15268    44.453729   -896.69895    1592.1714   -12520.522    2.1355141    21.128246   0.14215653 
   41400   -951.30312    46.292891   -905.01023    1658.0435     7456.001    2.2051728    21.182684   0.11541658 
   41500   -948.83577    45.423733   -903.41204    1626.9134    14243.831    2.2169487    20.077987    0.1137936 
   41600   -946.36708    45.773465   -900.59361    1639.4395   -11109.925    2.1488473    23.021898   0.12175971 
   41700   -941.62751    44.438584   -897.18893    1591.6289   -10693.015    2.1408264    20.086144   0.12860445 
   41800   -950.72139    44.349142   -906.37225    1588.4254    11651.245    2.2157551    22.961728   0.11090201 
   41900    -947.8746    46.290767   -901.58383    1657.9674    5740.4668    2.1957214    19.462657   0.12694752 
   42000    -945.3763    43.989957   -901.38634    1575.5607   -10152.479    2.1539265    18.501634   0.12575012 
   42100   -952.85601    42.875957   -909.98005    1535.6613   -3188.1224    2.1838843    20.592578   0.11153018 
   42200   -949.51762    46.338481   -903.17913    1659.6763    6268.0881     2.198091    19.329095    0.1189553 
   42300   -944.76087    43.886864   -900.87401    1571.8683    3908.1576    2.1879966    20.268854   0.12885884 
   42400   -950.27812     42.40735   -907.87077    1518.8775   -6539.3805    2.1741933    20.701084   0.12118777 
   42500   -950.86746    46.075073   -904.79239     1650.242     -6051.46    2.1715714    21.248807   0.10932343 
   42600   -947.86315     48.10093   -899.76222    1722.8009     4566.687    2.1912012     21.09114    0.1137855 
   42700   -947.81018    43.108709   -904.70147    1543.9976    1898.9049    2.1896344    22.517404   0.11168078 
   42800   -948.39364    41.104892   -907.28874    1472.2282   -5553.5635    2.1703287    21.742815   0.11461197 
   42900   -943.05305    45.254376   -897.79868    1620.8476   -3953.7172    2.1591142    21.013645   0.11607866 
   43000   -948.87532    46.691106   -902.18421    1672.3061    9425.6675    2.2074874    20.194499   0.13403223 
   43100   -949.12943    44.181944   -904.94749     1582.437    5390.5056    2.1979895     18.79695   0.11983546 
   43200   -941.51407    44.675113   -896.83895    1600.1005   -12761.525    2.1352779    20.205994   0.13415334 
   43300    -943.8333    43.711428   -900.12187    1565.5848   -4381.3503     2.160662    10.918967   0.14751477 
   43400    -949.2991    46.913352   -902.38575    1680.2661    13425.471    2.2135574    14.081222    0.1370572 
   43500   -944.47378    43.500137   -900.97364    1558.0172    3057.4671    2.1854454     14.65185   0.13684717 
   43600    -938.3228    43.648684   -894.67412    1563.3376   -11722.506    2.1308751    14.903827   0.15077529 
   43700   -949.48373    44.143504   -905.34023    1581.0602   -535.58565     2.183492     12.89076   0.12678403 
   43800   -947.52488    44.952463   -902.57241    1610.0342    5382.3555    2.1948317    12.706843   0.13475715 
   43900   -942.53025    44.069475   -898.46077    1578.4088    3191.4449    2.1763299    12.641984    0.1415104 
   44000   -947.47022    43.914646   -903.55557    1572.8633   -4551.9204    2.1651217    9.4606284   0.14155109 
   44100   -947.51448    42.131222   -905.38326    1508.9876   -2776.1926    2.1733268    13.937082   0.13077899 
   44200   -947.32388    47.565508   -899.75837     1703.624    4086.5734    2.1891193    17.989357   0.13059175 
   44300   -944.99619    43.546119   -901.45007    1559.6641    127.10246    2.1765617    16.774936   0.13279493 
   44400   -952.15175    42.637975   -909.51377    1527.1376    -3034.243     2.183229    18.255557   0.10371649 
   44500   -947.77844    45.350624   -902.42782    1624.2949   -1503.9426    2.1759651      19.0323   0.11778548 
   44600    -944.9533     43.98902   -900.96428    1575.5272    4202.7137    2.1844013    20.621837   0.12338812 
   44700   -950.56387    41.340611   -909.22326    1480.6708    306.40421    2.1909101    20.956793   0.12363379 
   44800   -947.42133    45.017992   -902.40334    1612.3812   -5538.8948    2.1643228    19.502599   0.11530983 
   44900     -950.255    49.314352   -900.94065    1766.2612   -1761.4388    2.1752741    18.544887   0.10413308 
   45000   -949.19717    42.908895   -906.28827     1536.841    6492.3738    2.1983364    18.269313   0.10944243 
   45100   -949.29325    43.136874   -906.15637    1545.0064   -401.27522    2.1817281    18.361269   0.10827631 
   45200   -943.44407    44.138628   -899.30544    1580.8856   -7065.1991    2.1461538    19.747019   0.11690672 
   45300   -949.71066    45.393716   -904.31694    1625.8383   -1028.5721    2.1790812    18.734404    0.1124223 
   45400   -953.43058    49.099603   -904.33098    1758.5697     9907.315    2.2100104    17.980191   0.10899727 
   45500    -948.8888    53.261733   -895.62706    1907.6421   -6589.9212    2.1567305    20.360964     0.118593 
   45600   -946.82764     43.43432   -903.39332    1555.6598   -10311.769    2.1520193    19.385923   0.12164392 
   45700   -951.00532    46.716268   -904.28905    1673.2073   -420.46933    2.1824919    20.355941   0.11396062 
   45800   -946.94558    49.388279    -897.5573    1768.9091    10807.239     2.201187    18.764732    0.1122862 
   45900   -948.26893    47.504454   -900.76448    1701.4373   -4597.4857    2.1663127    20.151199   0.11587729 
   46000   -949.77775    43.134833   -906.64291    1544.9333   -10227.519    2.1576991    19.082187   0.10744737 
   46100   -945.59222     44.80317   -900.78905    1604.6871    4824.7919    2.1847859    18.003449   0.11546173 
   46200    -948.3641    47.463352   -900.90075    1699.9652    5483.2494    2.1912274    18.248028     0.118228 
   46300   -949.21594    40.227293   -908.98865    1440.7958    401.85446    2.1886902    17.197423   0.11800153 
   46400   -943.18035    40.587848    -902.5925    1453.7095     -1647.71    2.1688376      17.8993   0.13567434 
   46500   -946.78814    46.099526   -900.68861    1651.1178   -605.48159    2.1747654    17.707701   0.11768233 
   46600   -951.06723    41.855301   -909.21193    1499.1051    3875.2114    2.1958756    19.705387   0.11065381 
   46700   -944.86775    41.929532   -902.93822    1501.7638    935.46525    2.1763361    19.645252   0.11741287 
   46800    -945.4418    44.480241   -900.96155    1593.1209   -1933.6581    2.1690974    18.633175   0.12522996 
   46900   -951.76851    44.238938   -907.52957    1584.4783   -367.91025    2.1851075    19.389068   0.10754322 
   47000   -948.26019    43.227732   -905.03246    1548.2606    4139.6508    2.1859748    20.360362    0.1030238 
   47100   -946.99408    46.966483   -900.02759    1682.1691   -409.93445    2.1700473    17.569215   0.11086066 
   47200   -947.01983    41.755776   -905.26405    1495.5405   -3075.5555     2.168138     22.00784   0.11412184 
   47300   -951.98109    45.800002   -906.18109      1640.39    127.40266    2.1829478    17.641755   0.10760194 
   47400   -946.42688    48.963671   -897.46321    1753.7011     3737.153    2.1772088    18.915151   0.10750189 
   47500   -950.34442    47.157243   -903.18717    1689.0014   -4408.0166    2.1692087    20.332782   0.10080431 
   47600   -951.88979    46.130949   -905.75884    1652.2433   -6799.8121    2.1662705    18.409643   0.11248338 
   47700   -944.76065    48.006799   -896.75385    1719.4294    2562.6619    2.1782186    19.065476   0.12721983 
   47800   -947.61569    46.503445   -901.11225    1665.5848     7364.642     2.194129    17.514832   0.12747417 
   47900   -949.91679    44.355447   -905.56134    1588.6513   -5577.6204    2.1643447    20.868171   0.10547435 
   48000   -944.32081    44.533357   -899.78745    1595.0233   -5812.4556    2.1544242    19.203595   0.10994127 
   48100    -947.3825    48.624904   -898.75759    1741.5677    5345.6659    2.1884181    21.862873   0.12225469 
   48200   -951.08313    45.259095   -905.82403    1621.0167    8513.6784    2.2034265     20.93911  0.098751025 
   48300   -948.02782    45.771211   -902.25661    1639.3588   -7724.7578    2.1546484    20.230408    0.1176239 
   48400   -943.30919    43.274144   -900.03504    1549.9229   -6822.7396    2.1499919    21.419617   0.11313679 
   48500   -951.63422    43.027162   -908.60705    1541.0769    10258.295    2.2099295    20.353498   0.10767913 
   48600   -947.17286    45.021459    -902.1514    1612.5054    4585.5603    2.1880664    17.845401    0.1267004 
   48700   -945.86862    44.508421    -901.3602    1594.1302   -5378.6094    2.1571112    18.718612   0.11689292 
   48800   -949.40303    41.637897   -907.76513    1491.3185   -2789.9016    2.1726986    18.963967   0.10407295 
   48900    -946.1156      41.5449    -904.5707    1487.9877    10153.818    2.1968604    19.621084    0.1168443 
   49000   -946.07665    46.309686   -899.76696     1658.645    1613.8227    2.1774488    19.946168   0.11131842 
   49100   -946.93203    41.086533    -905.8455    1471.5706   -3249.7725    2.1682331    22.104214   0.12175217 
   49200   -949.05094    44.644258   -904.40668    1598.9954   -115.59324    2.1750183    20.169123   0.11007131 
   49300   -943.44845     45.61342   -897.83503    1633.7073    2651.8452    2.1705535    21.169983  0.098822656 
   49400   -946.02413    41.591653   -904.43248    1489.6622    2379.2576     2.178003    20.255451   0.11031871 
   49500   -944.62542    40.192615   -904.43281    1439.5537    1914.9591    2.1764765    21.716188   0.13453964 
   49600   -944.31243    48.002279   -896.31015    1719.2675   -3569.8478     2.159343    20.315167   0.12115528 
   49700   -948.19094    43.557149   -904.63379    1560.0591    3086.4396    2.1863008    20.512736   0.11024838 
   49800   -949.05144    44.934866   -904.11657    1609.4039    978.26564      2.18273    19.689664   0.10474854 
   49900   -944.44161     47.11618   -897.32543    1687.5307   -3753.4818    2.1605255    20.926668   0.12399744 
   50000   -949.06964    43.313287   -905.75635    1551.3249   -969.45177    2.1800123     20.45253    0.1253808 
   50100   -950.48858    45.506312   -904.98227    1629.8711   -800.93046    2.1801258    17.951282   0.11654755 
   50200   -946.03031    46.688819    -899.3415    1672.2242    2279.6221    2.1772501    21.257817   0.10989098 
   50300   -949.63405    44.485795   -905.14825    1593.3199   -2520.8995    2.1795544    20.839434   0.11495886 
   50400    -947.4484     40.50626   -906.94214    1450.7873   -2291.1233    2.1764749     19.63963   0.11780653 
   50500   -947.16551    46.755602   -900.40991    1674.6161    1318.1627    2.1782135    18.863141   0.12576884 
   50600   -949.14997    44.848329   -904.30164    1606.3045    3481.4373    2.1910079    18.471305   0.11642778 
   50700   -953.64507    44.846249   -908.79882      1606.23   -3259.4708    2.1821435    18.371236  0.097958452 
   50800   -943.62938    42.965368   -900.66401    1538.8637   -3945.4415    2.1608945    22.045669   0.12716132 
   50900   -946.67221    44.038723   -902.63348    1577.3074    3781.9603    2.1865656    18.362831   0.11384112 
   51000   -951.48948    43.573187    -907.9163    1560.6335    5252.8573    2.2039157    20.942851   0.11988853 
   51100   -947.49454    48.917237    -898.5773     1752.038   -8057.3668    2.1569938    19.413452   0.12002185 
   51200   -950.90206    48.319476   -902.58258    1730.6284   -7543.0878    2.1623477    19.915521  0.097237055 
   51300   -947.11802    41.891701   -905.22632    1500.4088    8016.5179    2.1997709    18.465884   0.11572077 
   51400    -944.4272    47.624129   -896.80307    1705.7236    5542.9328    2.1856591    21.290419   0.12531412 
   51500   -946.27962    45.714415   -900.56521    1637.3245   -6997.1341    2.1591977    18.602401   0.12658184 
   51600   -947.98559    41.968201   -906.01739    1503.1488   -5781.9472    2.1689924    18.614466   0.12157055 
   51700   -946.31675    46.596352   -899.72039    1668.9123    8641.8443    2.1977239    16.003164   0.11517753 
   51800   -945.62802    46.659553   -898.96847     1671.176    5640.3178    2.1895753    18.806634   0.11186549 
   51900   -948.45736    41.675253    -906.7821    1492.6564   -8337.1384     2.161109    18.570011   0.10957349 
   52000   -951.26004    48.412045   -902.84799    1733.9439   -7038.1812    2.1660161    19.300933    0.1157256 
   52100    -945.4107    48.255102    -897.1556    1728.3228    12491.878    2.2028143    17.213765   0.11382304 
   52200   -951.55108    45.346424   -906.20465    1624.1445    5646.5419    2.1998841    20.515793   0.11630596 
   52300   -947.38703    43.488791   -903.89824    1557.6108    -14771.58    2.1423193    20.609533   0.12593361 
   52400   -949.02995    49.046054   -899.98389    1756.6518   -8057.8416    2.1601747    19.242773   0.12228795 
   52500   -951.98769    46.807665   -905.18002    1676.4808    9634.5463    2.2112355    17.054742   0.12065512 
   52600   -948.95434    41.508704   -907.44564    1486.6913     3956.347    2.1934441    18.550163   0.11318561 
   52700   -948.61827    48.869685   -899.74858    1750.3349   -9553.3789    2.1570005    16.450826    0.1159338 
   52800   -945.27705    40.894199   -904.38285    1464.6819    877.03693    2.1766688    18.627772   0.13159185 
   52900   -951.20683    44.979169   -906.22766    1610.9907    5622.2986    2.1988518    19.679223  0.090793447 
   53000   -948.19852    50.792946   -897.40557    1819.2191   -2464.4535    2.1693287    19.205302   0.13308976 
   53100   -949.38186    45.476521   -903.90534    1628.8041   -6091.0408    2.1688456    17.499291   0.12843089 
   53200   -950.72141    45.548154   -905.17325    1631.3697    86.458106    2.1828708    16.827211   0.10761727 
   53300   -946.67444    50.367635    -896.3068     1803.986    1176.7106    2.1792507    18.126658   0.12901254 
   53400    -947.0164    43.876508   -903.13989    1571.4974    3412.8457    2.1854834     19.79075   0.11123634 
   53500   -948.96766    43.418184   -905.54948    1555.0819    -4708.645    2.1687522    20.595483   0.10675445 
   53600   -947.04666    49.277173   -897.76948    1764.9296   -2482.8749    2.1673316    18.853636   0.12763076 
   53700   -947.49021    43.385161   -904.10505    1553.8991    5848.3965    2.1986759    18.441633   0.12939684 
   53800   -948.68511    43.050066   -905.63504    1541.8973   -548.21798    2.1858451    19.667002   0.10653757 
   53900   -946.64998    47.020858   -899.62913    1684.1166   -7202.8611    2.1617876    19.195195   0.11590779 
   54000   -947.47242    44.038704   -903.43372    1577.3067   -438.57059    2.1844167    20.885379   0.12179545 
   54100   -945.33253    38.914631    -906.4179     1393.781    9692.9976     2.207988    19.200413   0.14429826 
   54200   -947.34972    47.418898   -899.93082     1698.373   -1931.2861    2.1754985    17.567522   0.12816528 
   54300   -945.20848    42.378811   -902.82967    1517.8553   -8493.4627    2.1567562    20.679918   0.14352844 
   54400   -944.97808    37.264385   -907.71369    1334.6751    5073.8265    2.1959871    18.684029   0.12896108 
   54500    -943.3876    44.685537   -898.70207    1600.4739    13390.285    2.2039292    19.792979   0.11580107 
   54600   -942.50703    40.385934    -902.1211    1446.4777    1907.4852    2.1758532    20.206388   0.13389316 
   54700   -948.94427    41.011526   -907.93274    1468.8841   -11404.979    2.1602822    18.556134   0.11487875 
   54800   -947.58518    47.250347   -900.33483    1692.3361    1208.8888    2.1825928    19.210889   0.11561337 
   54900   -949.39944     49.49657   -899.90287    1772.7877    9198.3636    2.2045284    19.175892    0.1023225 
   55000   -950.35471    43.444354   -906.91036    1556.0192   -2548.6155    2.1786697    18.649889    0.1297365 
   55100   -944.18423    43.672195   -900.51203    1564.1796   -6614.6862     2.153483    22.230303   0.13636658 
   55200   -946.20424    47.170937    -899.0333    1689.4919    2696.6355    2.1795007    18.924212   0.12427655 
   55300   -951.60563    45.847417   -905.75821    1642.0882    4947.1653    2.1984103    20.411237   0.10296272 
   55400    -946.6435    45.965268   -900.67823    1646.3092   -1858.2449    2.1699755    20.333644   0.10073473 
   55500   -946.16032    46.970491   -899.18983    1682.3127   -3628.6318    2.1620484    22.116169   0.11518353 
   55600   -950.16288    43.512408   -906.65047    1558.4567    1503.4437    2.1877057    20.467959   0.10942398 
   55700   -945.65092    44.877118    -900.7738    1607.3356    3312.8682    2.1825393    20.474566   0.11519671 
   55800   -943.93724    43.993399   -899.94384     1575.684   -72.286838    2.1684017    15.283223   0.10814648 
   55900   -948.74459    41.019127   -907.72547    1469.1564    -187.6411    2.1814636    21.258365   0.10819325 
   56000   -949.27202    48.024753   -901.24727    1720.0725   -1192.4292    2.1760643     20.08574   0.11488094 
   56100   -948.34703    47.673761   -900.67327    1707.5012   -930.27326    2.1740815    18.106928   0.12255816 
   56200   -950.76484    42.554453   -908.21039    1524.1462     1990.827    2.1872166     17.14783   0.11318509 
   56300   -949.94349    49.090998   -900.85249    1758.2615   -4817.3365    2.1686544    19.479148   0.11254914 
   56400   -945.78927    44.430468    -901.3588    1591.3382   -1184.7224    2.1706078     19.13967   0.11181961 
   56500    -948.2144    40.276845   -907.93755    1442.5705    4571.9252    2.1951215      20.4052   0.10617725 
   56600   -947.60939    47.728758   -899.88063     1709.471    1210.4201    2.1760981     19.71616   0.10810833 
   56700   -945.99953    44.537152   -901.46238    1595.1593   -2897.2969    2.1682449    19.396246   0.11234082 
   56800    -949.8995    42.706619   -907.19288    1529.5962   -3477.3144    2.1779731    17.443775   0.12130489 
   56900   -948.51687    49.174906   -899.34197    1761.2668    364.06305    2.1796022    18.951608   0.11213421 
   57000   -948.12312    47.636709   -900.48641    1706.1742    3818.9962      2.18801    18.443997   0.11943049 
   57100   -954.20244    47.424327   -906.77811    1698.5674   -9097.5803    2.1733286    20.239762   0.10137668 
   57200   -943.99528    44.069753   -899.92552    1578.4187   -4160.1682    2.1646892    19.657029   0.13480345 
   57300   -946.39209    46.495348   -899.89674    1665.2947    4928.5351    2.1874914    17.967032   0.12177913 
   57400   -950.00434    44.168233   -905.83611    1581.9459    5805.8444    2.1979281    16.734284   0.10480118 
   57500   -943.74413    43.217713   -900.52641    1547.9018   -4120.6396    2.1625447     18.16881   0.12015841 
   57600   -943.62399    43.810145   -899.81384    1569.1205   -4047.3338    2.1601841    17.827516   0.12423941 
   57700    -950.2524    43.442621   -906.80978    1555.9571    6837.5497    2.2034361    19.093885   0.11765768 
   57800    -942.7454     42.75348   -899.99192    1531.2746    6391.5096    2.1888273     18.43833   0.12399474 
   57900   -947.32337    45.856429   -901.46694     1642.411   -8709.7105    2.1534608    18.752191   0.11364657 
   58000   -953.01594    43.989965   -909.02597     1575.561   -8462.5544    2.1728431    17.558418     0.108755 
   58100   -946.50674    45.143937    -901.3628    1616.8921    10021.834    2.2012407    16.209275   0.12060421 
   58200   -946.59213    46.127383   -900.46475    1652.1156    5830.4116    2.1932575    17.876586   0.12138825 
   58300   -949.34371    41.190168   -908.15355    1475.2824   -9776.8038    2.1628339    17.326304    0.1384501 
   58400   -946.35155     44.44842   -901.90313    1591.9812   -6231.3941    2.1597428    19.881473   0.12319702 
   58500   -944.04066    45.452687   -898.58797    1627.9504    11169.383     2.201058    18.017397   0.11077866 
   58600   -948.95769    43.410968   -905.54672    1554.8235     5031.421    2.1967879    17.935699   0.10752539 
   58700   -946.30412    44.917177   -901.38694    1608.7704   -6552.7108    2.1599881    18.305103   0.10622937 
   58800    -945.4323    47.149584   -898.28271    1688.7271   -3993.5642    2.1664194    17.248745   0.12649917 
   58900   -953.88413    48.534929    -905.3492    1738.3452    170.81461    2.1934013    17.130203    0.1137478 
   59000   -947.71529    45.590614   -902.12468    1632.8905    1632.5591    2.1838127    16.330951    0.1120306 
   59100   -941.29502    43.726867   -897.56815    1566.1378   -2723.7605    2.1626832    17.454859   0.11397419 
   59200   -950.57676    44.121639   -906.45512    1580.2771    1251.2635    2.1886757    17.392423   0.11708992 
   59300   -946.05758    43.719075    -902.3385    1565.8587    4962.4418    2.1906072    19.639199   0.11699928 
   59400   -943.35241    44.666479   -898.68593    1599.7913   -1384.8412    2.1703713    17.904962   0.12768885 
   59500   -949.64407     41.79753   -907.84654    1497.0359   -2563.0847    2.1796787    19.588615   0.11535182 
   59600   -947.81083    44.334251   -903.47658    1587.8921   -915.34169    2.1790357    19.818995   0.11473819 
   59700   -947.58432    48.423087   -899.16123    1734.3394    2053.2677    2.1832453     18.40673   0.11772789 
   59800   -950.83568    43.216809   -907.61887    1547.8694    846.87728    2.1912916    18.978825   0.11225817 
   59900   -945.50309    41.742358   -903.76073    1495.0599   -5088.2001    2.1646182    20.282021   0.11436756 
   60000   -946.92262    46.826197   -900.09643    1677.1446   -1553.3493    2.1736624    18.007634   0.11522201 
   60100   -947.58114     41.82082   -905.76032    1497.8701    10148.589    2.2064646    19.618716   0.11283864 
   60200   -951.30311    44.604572   -906.69854     1597.574    89.090319    2.1857611     18.72002   0.11408934 
   60300   -944.03795    44.350176   -899.68778    1588.4625   -11201.516     2.141985    22.213817   0.14528984 
   60400   -946.29582    41.306914    -904.9889    1479.4639    1153.6645    2.1796164     20.86021   0.12165766 
   60500    -947.4427    43.408698   -904.03401    1554.7421    16431.362    2.2206987    19.932007   0.12562741 
   60600   -943.78279    46.946775   -896.83601    1681.4632   -2597.3847    2.1643602    18.106957   0.11863475 
   60700   -947.49208    43.233683    -904.2584    1548.4737   -11355.743    2.1493406    21.312492   0.11391918 
   60800   -950.10679    45.789782   -904.31701    1640.0239    754.37446    2.1855335    21.438387   0.10782374 
   60900   -942.72138    46.071976   -896.64941    1650.1311    9071.6965    2.1920037    19.906447   0.11939754 
   61000   -949.11247      46.3622   -902.75027    1660.5259   -2513.9575    2.1727756    17.999374   0.12092763 
   61100   -948.48072    42.617453   -905.86327    1526.4026    -4467.351    2.1678953    19.942006    0.1150805 
   61200   -945.05579    46.371512   -898.68428    1660.8594    179.34242    2.1749007    17.070902   0.11293434 
   61300   -948.24049    44.417072   -903.82342    1590.8584    4098.1464    2.1913251    19.307837    0.1193807 
   61400   -950.96807    44.337382   -906.63069    1588.0042   -2885.5954    2.1788215    19.296948   0.11153755 
   61500   -945.12327    45.134562    -899.9887    1616.5563   -2997.6192    2.1651484     17.67293   0.11611452 
   61600   -945.17961    44.677656   -900.50195    1600.1916    1775.1603    2.1752268    23.297614   0.13207483 
   61700   -950.12427    42.215512   -907.90876    1512.0065    5332.9502    2.2004586    24.556057   0.11317089 
   61800   -943.46893    43.526292   -899.94263    1558.9539   -305.75836    2.1692796    22.512467   0.13024105 
   61900   -943.29876    42.583714   -900.71505    1525.1942   -2186.9026    2.1620619     19.85541   0.14748666 
   62000   -950.89453    42.584714   -908.30982      1525.23    1151.6912    2.1902369    18.984156   0.10840379 
   62100   -949.75464    47.127686   -902.62695    1687.9428    5220.1567    2.1944266    20.555224   0.12282313 
   62200   -946.22287    45.998292   -900.22458     1647.492   -1293.6157    2.1752684     17.67848   0.11720125 
   62300   -950.35446    43.205764    -907.1487    1547.4738   -13390.441    2.1531476    20.736884   0.11012281 
   62400   -945.07048    42.690578    -902.3799    1529.0217    1845.5074    2.1780027     20.43614    0.1107565 
   62500    -944.2489    47.310507   -896.93839    1694.4908    15346.021    2.2099144    21.078136   0.12798907 
   62600   -948.64163    43.920009   -904.72162    1573.0555    416.12263    2.1793762    17.905569   0.11361639 
   62700   -947.19972    43.170406   -904.02931    1546.2074   -15156.711    2.1419058    19.591977   0.10412975 
   62800   -944.07269    47.194677   -896.87801    1690.3422   -1568.7884    2.1664196    17.663951   0.11509111 
   62900   -950.08505    45.937582   -904.14747    1645.3176    10464.781    2.2053784    19.269931   0.10518955 
   63000   -948.91938    43.393686   -905.52569    1554.2044   -1480.4275    2.1797779     20.70376   0.12732397 
   63100   -945.10734    46.201483   -898.90585    1654.7696   -9585.8174    2.1485049    19.633411   0.13006697 
   63200   -951.77904    45.328828   -906.45021    1623.5142   -675.00373     2.186976    19.228569   0.11566604 
   63300   -950.15618    44.861885    -905.2943      1606.79     4927.174     2.198488    19.155849   0.10612749 
   63400   -942.58177    43.105354   -899.47642    1543.8775   -737.40928    2.1691302    17.958688   0.10165075 
   63500   -946.68787    41.755682   -904.93219    1495.5371   -4734.4291    2.1626771    21.608243   0.11180389 
   63600   -949.34201    42.855726   -906.48629    1534.9367    3211.2704    2.1877026    18.424215   0.10907201 
   63700   -945.02062    46.302058   -898.71856    1658.3718    5805.9749    2.1870411    19.360286   0.11760263 
   63800   -947.06831    42.794094   -904.27422    1532.7293   -1559.2855    2.1737824    17.733052   0.10717057 
   63900   -948.16977    40.907014   -907.26275    1465.1409   -6766.0879    2.1646455    17.005427   0.10718881 
   64000   -943.34856    44.576021   -898.77253    1596.5514   -137.61271    2.1702174    20.612882   0.11731336 
   64100   -948.84921    46.053789   -902.79543    1649.4797    9845.1157     2.204439    18.290813   0.10963475 
   64200   -946.77828    39.882002   -906.89628    1428.4287   -469.43391    2.1798953      18.7497   0.10197652 
   64300   -942.25181    43.893463   -898.35835    1572.1047   -16565.593    2.1263979    17.500976   0.14127837 
   64400   -944.11637    42.080742   -902.03563    1507.1796     6222.061    2.1886733    20.115723   0.11340923 
   64500   -949.22438    45.548431   -903.67595    1631.3796    20394.279    2.2313581     18.08634   0.10776554 
   64600   -947.05288    45.847186   -901.20569    1642.0799   -4937.7276    2.1651452    20.989937    0.1265129 
   64700   -942.36335    43.438436   -898.92492    1555.8072   -11863.013    2.1348983    17.644057   0.11431277 
   64800   -952.03882    44.896553   -907.14227    1608.0317    2469.9985    2.1957367     18.94798  0.098939817 
   64900   -944.15968    43.073113   -901.08656    1542.7227    10441.506    2.1961252    17.547096   0.11486775 
   65000   -943.24893    42.801651   -900.44728    1532.9999   -2810.1945    2.1630135    18.724006   0.12741818 
   65100   -951.46988    42.895311   -908.57457    1536.3545   -5379.3202    2.1717866    17.917399   0.10825553 
   65200   -946.61664    44.567101   -902.04954    1596.2319    4164.9626    2.1823621    21.816743   0.11689032 
   65300   -944.05267    44.612826   -899.43984    1597.8696    7999.4897    2.1890921    21.479923   0.10582158 
   65400   -949.96138     42.39162   -907.56976    1518.3141   -2278.2752    2.1804137    19.919461   0.11633953 
   65500   -946.42511    44.331598   -902.09351    1587.7971   -6844.9402    2.1597959    19.362658   0.11559447 
   65600   -945.77502    46.444911   -899.33011    1663.4883    3302.5739    2.1797342    18.644525   0.11182828 
   65700   -951.53039    45.480279   -906.05011    1628.9387    5121.2289    2.2011527    21.320846   0.10414294 
   65800   -945.05123    43.708619   -901.34261    1565.4842   -3792.6439    2.1675443     18.38777   0.11721226 
   65900   -942.61178    43.205378   -899.40641      1547.46   -6418.9439    2.1521023    18.236259   0.12135074 
   66000    -950.0756    43.867876   -906.20772    1571.1882    2270.6001    2.1905032    17.401562   0.10065963 
   66100   -945.28965    43.495581   -901.79407     1557.854    13608.287    2.2042618    17.932851   0.12402442 
   66200   -945.69929    46.826881   -898.87241    1677.1691    -6725.586    2.1558455    20.864515   0.11665862 
   66300   -950.86322    43.519295   -907.34393    1558.7033   -13936.892    2.1511564    23.381245   0.11970079 
   66400   -948.59797    45.264785   -903.33319    1621.2204    5221.8383    2.1933735    19.283207   0.11603678 
   66500   -940.62683    43.373522   -897.25331    1553.4822    15569.916    2.2038845    18.509473   0.11989507 
   66600   -948.66627    43.451373   -905.21489    1556.2706   -6182.2268    2.1639294    18.689686   0.11113566 
   66700   -946.66986    41.344264   -905.32559    1480.8016   -8208.9835     2.154405    19.702013    0.1058892 
   66800   -944.34233    46.248632    -898.0937    1656.4583    3974.0826    2.1825133    19.933337   0.11954636 
   66900   -947.67438    43.311031   -904.36334    1551.2441    6095.8073    2.1947192    20.664369    0.1120496 
   67000   -949.94149    43.092315   -906.84917    1543.4104    -4537.611    2.1746359    20.714601    0.1118894 
   67100   -945.51668    46.879929   -898.63676     1679.069   -6569.9757    2.1579453     18.89674   0.11683853 
   67200   -949.88433    45.250144   -904.63419    1620.6961    1200.7511    2.1875396    17.137485   0.12833093 
   67300   -950.26956    44.799839   -905.46972    1604.5678    3429.0757    2.1933373    18.067895   0.12202936 
   67400   -945.12777    47.392092   -897.73568    1697.4129   -4414.8225    2.1606769     14.59226   0.13012344 
   67500    -949.2326    43.942403    -905.2902    1573.8575   -4555.5571    2.1710349     19.15592   0.12140603 
   67600   -950.06611    45.387147   -904.67896     1625.603    837.88491    2.1848955    18.042503   0.11489021 
   67700   -945.42479    47.918807   -897.50599    1716.2779    4498.5929    2.1799647    20.053634   0.11479618 
   67800   -948.65197    43.212384   -905.43959    1547.7109    -1334.819    2.1771417    19.132852   0.10853114 
   67900   -947.58856    42.646617   -904.94194    1527.4472   -6564.1583    2.1604561    18.610627   0.10614558 
   68000    -947.9681    49.457848   -898.51025    1771.4007   -899.26277    2.1707442    15.754569   0.11238002 
   68100   -950.50516    44.751637   -905.75352    1602.8414    9725.8615    2.2080939    17.740605    0.1176606 
   68200    -947.0115    41.162376   -905.84912     1474.287   -3798.1183    2.1722355    18.887603   0.12551858 
   68300   -943.17966      42.8972   -900.28246    1536.4221   -11309.569    2.1382261    17.002783    0.1391224 
   68400   -949.09558    44.090761   -905.00482    1579.1712    2626.5722    2.1892913    18.755565   0.12036776 
   68500    -953.3895    47.229756   -906.15974    1691.5986    11172.158    2.2171418    17.426964   0.10443192 
   68600   -946.63139    47.443822   -899.18757    1699.2657   -6139.0263    2.1575754    17.313773   0.11443542 
   68700   -948.13494    44.220999   -903.91394    1583.8358   -12934.413     2.146935    22.502888   0.12366929 
   68800   -951.41444    45.731275   -905.68316    1637.9284    4394.0339    2.1913434    17.951985   0.11149054 
   68900   -946.62445    49.743708   -896.88074    1781.6392    4497.6778    2.1832469     17.58688   0.12898126 
   69000   -947.75768    44.738907   -903.01877    1602.3854   -2292.5816     2.171491    17.002393   0.11709113 
   69100   -946.76229    40.757053   -906.00524    1459.7698    -2724.475     2.173349    14.615939   0.11840228 
   69200   -946.11177    48.660395   -897.45138    1742.8389   -281.05442     2.172461    17.011526   0.11460716 
   69300   -948.41096    45.730872   -902.68009     1637.914    5408.3598    2.1902957    20.472993   0.11375304 
   69400   -949.70302    43.719629   -905.98339    1565.8786   -3015.6225    2.1770637    17.271078   0.13137102 
   69500   -943.75588    44.819277    -898.9366     1605.264   -3219.2496    2.1609417     23.02076   0.12140899 
   69600   -949.55319    46.266102   -903.28709     1657.084    2998.6575    2.1845808    19.990828   0.10449916 
   69700   -950.71127    44.415069    -906.2962    1590.7867    1585.2913    2.1911386     17.42978   0.10919843 
   69800   -946.42875    46.053725   -900.37502    1649.4774   -2954.0619    2.1664872    19.020301   0.10770741 
   69900   -950.03868    47.581258   -902.45742    1704.1881   -6853.8795    2.1650697    17.246686   0.12462239 
   70000   -950.20583    42.515326    -907.6905    1522.7448    6342.5678    2.2007679    18.922296   0.11861714 
   70100   -943.71465    44.429533   -899.28512    1591.3047    8059.1835    2.1884471    15.582094   0.11776407 
   70200    -948.5317    45.723085   -902.80861    1637.6351   -9503.1202    2.1538941    18.037289   0.10693905 
   70300   -954.58704    46.033351   -908.55369    1648.7477   -10773.727    2.1649017    21.014074  0.094113067 
[...]
  186800   -949.28672    44.116592   -905.17013    1580.0963   -5662.4785     2.166648    18.672114   0.11470396 
  186900   -947.73759    44.039601   -903.69798    1577.3388   -7089.4548    2.1610796    16.770321   0.11284885 
  187000   -944.58912    47.226212   -897.36291    1691.4716    6601.9868    2.1860972    16.649035   0.11698424 
  187100   -947.67975    41.862554    -905.8172    1499.3649    8179.4166    2.2007135    17.535129   0.11809479 
  187200   -947.60649    42.445268   -905.16122    1520.2356   -7052.2798    2.1613438    17.041625   0.13231274 
  187300   -947.61654    47.238981   -900.37756     1691.929   -5098.4921    2.1620511    19.882163   0.10970425 
  187400   -950.37339    44.327406   -906.04599    1587.6469    8082.7974    2.2048861    19.071597   0.11108736 
  187500   -950.31739    43.479815   -906.83757    1557.2893    4028.1076    2.1966522    17.848238   0.11362759 
  187600   -945.07006     44.04848   -901.02158    1577.6568   -4957.1087    2.1593116    18.741889   0.12138169 
  187700    -946.4318    43.000749   -903.43105    1540.1309   -1436.2985    2.1732076     18.00204   0.12305149 
  187800   -956.54222    48.124602   -908.41762    1723.6487    3215.7693    2.2041243    16.795549   0.11442578 
  187900    -947.9713    48.630198    -899.3411    1741.7573   -1856.9332    2.1731294    19.290286   0.12035248 
  188000   -949.79324    46.780213   -903.01303    1675.4976   -3776.8766    2.1729747     20.25169   0.11624065 
  188100     -947.223    40.203527   -907.01948    1439.9445    2245.6115    2.1868907    18.569391   0.12669252 
  188200   -947.02885    49.305183   -897.72367    1765.9329   -304.89073    2.1741738    21.968273   0.12409962 
  188300    -948.4784    46.587324   -901.89108     1668.589    2673.4496    2.1842591    18.977118    0.1204942 
  188400   -945.68977    39.510496   -906.17928    1415.1227    1381.6951    2.1804221    17.380423   0.11603262 
  188500   -942.28453    44.252304   -898.03223     1584.957   -1486.9905    2.1625309     17.35468   0.12892557 
  188600   -944.98515    43.699332   -901.28582    1565.1516    3169.3268     2.180154    17.657077   0.11598682 
  188700   -944.76191    39.457918   -905.30399    1413.2395    5754.1801     2.187568    18.837737   0.10512334 
  188800   -945.79952    46.312171   -899.48735     1658.734   -2362.7121     2.166652    18.241732    0.1189319 
  188900    -945.2198    45.407328   -899.81247    1626.3258   -3097.2879    2.1629371    19.093124   0.11087846 
  189000   -945.59582     39.41417   -906.18165    1411.6726    5017.3354    2.1907085    19.966281   0.12824923 
  189100   -943.46493    43.068449   -900.39648    1542.5557    7466.7567      2.19004    20.767998   0.12668337 
  189200   -946.63869    44.565059   -902.07363    1596.1588   -5414.7949     2.158038    17.666657   0.12142779 
  189300   -952.01653    42.508259   -909.50827    1522.4917   -7431.1364    2.1683046    16.942462   0.11016999 
  189400   -945.36084    43.621705   -901.73914    1562.3713    9202.3559    2.1965887    17.027413    0.1099316 
  189500   -944.54481    43.764977   -900.77983    1567.5028    9043.5307    2.1947946    16.560881   0.13084642 
  189600   -949.08887    40.282909   -908.80596    1442.7877   -8502.1979    2.1647922    20.718791   0.12270072 
  189700   -945.80193    42.590934     -903.211    1525.4528   -7527.8072    2.1554035    19.554386   0.12491059 
  189800   -947.27616    47.639838   -899.63632    1706.2862     6920.133     2.194329    19.733537   0.11051184 
  189900   -949.51993    44.018823   -905.50111    1576.5946    4625.9219    2.1966952    17.932802   0.11844832 
  190000   -949.55891    46.493052   -903.06586    1665.2125    -7655.832    2.1640509    17.973874    0.1105567 
  190100   -943.93729    45.735119   -898.20217    1638.0661   -5372.9517    2.1577575    17.133221    0.1376256 
  190200   -949.10842    44.935689   -904.17273    1609.4334    3196.8285    2.1937221     19.53102   0.11690107 
  190300   -949.06528    44.946393   -904.11889    1609.8168    5228.5529    2.1944358     17.37751   0.10534967 
  190400   -941.82064    45.878176   -895.94247    1643.1899   -3644.3989    2.1544943    19.867024   0.12508071 
  190500   -949.94492    45.140777   -904.80414    1616.7789   -2960.1704    2.1809478    19.102739   0.10880973 
  190600   -947.95793    44.057771   -903.90016    1577.9896    2688.8002    2.1852284    20.858904   0.10356844 
  190700   -945.61346    48.072923   -897.54054    1721.7978    145.30644    2.1733134     21.61336   0.12193845 
  190800   -946.99675    43.037888   -903.95886    1541.4611   -2054.2339    2.1742736    17.773947   0.11237064 
  190900   -948.77799    43.333204   -905.44479    1552.0382     -1588.75    2.1785066    20.450159   0.11385386 
  191000   -950.54721    50.475224   -900.07199    1807.8395    1092.0387    2.1833681    17.090158   0.12205043 
  191100   -949.01873    45.994596   -903.02413    1647.3596    273.75613    2.1818555    17.184554   0.10319032 
  191200   -950.19242    42.026205   -908.16622    1505.2263   -1173.4811    2.1818954    20.214747   0.11670956 
  191300    -946.9362    45.740167   -901.19603    1638.2469   -268.33889    2.1750388    18.315505  0.097919069 
  191400   -948.95395    46.534785   -902.41916    1666.7072     819.6825    2.1796176    17.962785   0.10400237 
  191500   -948.83108    39.325513   -909.50556    1408.4973    4539.5595    2.1923446    19.100116   0.11051799 
  191600   -945.25469    44.292362   -900.96233    1586.3918   -2004.4425     2.168882    15.242957    0.1173635 
  191700   -948.44375    46.820263   -901.62349     1676.932     88.21132    2.1748848    18.425877   0.11754166 
  191800   -951.44262    43.292756   -908.14986    1550.5895    545.53435    2.1875984    19.427559   0.10265322 
  191900   -944.76871    44.326636   -900.44207    1587.6194    1037.6561    2.1750253    21.551785   0.11832394 
  192000   -944.94255    44.262571   -900.67998    1585.3248     490.6326    2.1762307    17.208146   0.11496673 
  192100   -949.70659    43.656003   -906.05059    1563.5997   -833.05621    2.1803413    19.779517   0.11407367 
  192200   -949.89141    48.694162   -901.19724    1744.0483   -1556.2841    2.1768365    15.636285    0.1205128 
  192300   -945.19603    46.686784   -898.50925    1672.1513   -204.02356     2.173559    18.298096   0.12080853 
  192400   -947.97237    42.857349   -905.11502    1534.9948   -1137.3611    2.1800515    17.717509   0.11225924 
  192500   -939.50411    37.351294   -902.15282    1337.7879    3511.4557    2.1769437    15.996386   0.11983601 
  192600   -945.26513    48.537276   -896.72786    1738.4292    -340.0016    2.1709669    19.568676   0.12476872 
  192700   -948.56325    43.275135   -905.28811    1549.9584    1918.1742    2.1853086     19.01677    0.1095496 
  192800   -945.16194    42.343985   -902.81795     1516.608    584.67304    2.1753327    19.083715   0.13662366 
  192900   -943.68049    46.333369   -897.34712    1659.4932   -3561.5801    2.1628797    19.008679   0.12539756 
  193000   -944.83462    37.879406   -906.95521    1356.7029    8263.1488    2.1999866    17.547877   0.12103147 
  193100   -950.14415    46.483356   -903.66079    1664.8652   -745.96665     2.180919    18.276335   0.10751958 
  193200   -946.41596    46.307984   -900.10798     1658.584   -7777.5565    2.1577155    19.827338    0.1097841 
  193300   -949.34604    40.798923   -908.54712    1461.2695    1469.5124    2.1879002    17.108425   0.11628198 
  193400   -948.46362    43.023422   -905.44019     1540.943    6034.3641    2.1995151    19.357364   0.11057262 
  193500   -944.43255    43.838922   -900.59363    1570.1512   -1006.2515    2.1720912    17.280834   0.12673338 
  193600   -949.57795    44.332211   -905.24574     1587.819   -9784.6915    2.1563408    16.131588   0.11092334 
  193700   -950.95668    43.630426   -907.32625    1562.6836    1508.8939    2.1895911    17.576265   0.10848518 
  193800   -945.71491    47.117396   -898.59751    1687.5743    5058.6444    2.1867689    16.770042    0.1236937 
  193900   -944.51246     41.04891   -903.46355    1470.2231   -479.74904    2.1676305    19.858984     0.122113 
  194000   -949.16369    42.071218   -907.09247    1506.8385   -6196.5549    2.1681118    18.100904    0.1202196 
  194100   -942.69539    44.609757   -898.08564    1597.7597    7629.7969    2.1836135    21.129003   0.13262441 
  194200   -945.25301    44.895841   -900.35717    1608.0062    11707.498    2.2005052    17.872844   0.10036539 
  194300   -948.52236    42.404497   -906.11786    1518.7753   -10037.252    2.1595211    21.936622   0.11551276 
  194400   -941.46128    41.411429   -900.04986    1483.2072   -7885.3905    2.1483935     18.90565   0.13878146 
  194500   -944.14671    47.525303   -896.62141     1702.184    9566.9381    2.1940216     21.61739   0.12420075 
  194600   -945.70139    41.545169   -904.15622    1487.9973    11182.536    2.2037987    16.829146   0.12223028 
  194700   -945.34462    42.264746   -903.07988    1513.7699   -5685.1316    2.1593023    19.964502   0.11088712 
  194800   -943.54227    46.674102   -896.86817    1671.6971   -7198.6006    2.1535504    17.139397   0.13143744 
  194900   -950.08551    43.598215    -906.4873    1561.5299    4362.5907    2.1954612    20.585429   0.10600702 
  195000   -944.74663    40.647507   -904.09913    1455.8463    3055.1139    2.1819659     17.57592   0.12027877 
  195100   -946.07403    46.455171   -899.61886    1663.8558   -3207.7883     2.161749    18.627066   0.10617627 
  195200   -950.58971    44.062324   -906.52738    1578.1527   -1421.0514    2.1779774    19.602182   0.10534668 
  195300    -946.7542    40.379102    -906.3751     1446.233    2755.7652    2.1848724    19.026867   0.11648746 
  195400   -947.46331    47.151379   -900.31193    1688.7914    1431.2699    2.1792818    17.316577   0.11714709 
  195500   -945.15607    40.830467    -904.3256    1462.3993    1376.5481    2.1782593    20.968696   0.12135958 
  195600   -951.73873    43.002468   -908.73626    1540.1924    -3606.645     2.180826    18.160419   0.10361797 
  195700   -948.48719    47.846463   -900.64073    1713.6868   -2548.7166    2.1735424    18.014317   0.11263012 
  195800   -946.04368    42.875819   -903.16786    1535.6563    3743.1802    2.1855348    19.909847    0.1089495 
  195900    -949.2282    40.302484   -908.92572    1443.4888    1722.4857    2.1873419    16.688689   0.11694521 
  196000   -943.92616    44.536154   -899.39001    1595.1235   -6752.7257    2.1549007    17.404623   0.12253119 
  196100   -945.99635    44.278411   -901.71794    1585.8921    6226.8667    2.1870667    16.732183   0.11300601 
  196200   -951.58777    46.089994   -905.49778    1650.7765    6725.9335    2.2040993     18.89166   0.12629398 
  196300   -944.82654    47.822411   -897.00412    1712.8253   -8050.2217    2.1544719    17.707706    0.1216737 
  196400    -946.0417     45.76369   -900.27801    1639.0894   -7515.1437    2.1569801    16.187269    0.1253105 
  196500   -949.42299     44.91582   -904.50717    1608.7218    5514.0706     2.199152    19.316484   0.12703133 
  196600   -945.14062    43.065416    -902.0752     1542.447    10479.562    2.2030731    19.684856    0.1198203 
  196700   -943.71727    46.544203   -897.17307    1667.0446   -8629.9756     2.147549     19.08651    0.1437347 
  196800   -950.17259    43.618263   -906.55433     1562.248   -6923.4357    2.1689523    18.867612   0.12582442 
  196900    -951.1261    48.057009   -903.06909    1721.2278    4957.4008    2.2008919    18.723702    0.1194589 
  197000   -944.17102    45.762285   -898.40873    1639.0391    5018.6885    2.1862359     17.90568   0.14092399 
  197100   -946.69449    42.266903   -904.42759    1513.8472    -8152.979    2.1584819    17.378619   0.12954933 
  197200   -952.27949    46.068562   -906.21093    1650.0088   -6454.0706    2.1721514    18.888533   0.11917406 
  197300    -946.5892    46.723757   -899.86544    1673.4755    6221.3162    2.1902104    18.071692     0.119205 
  197400   -949.55592    45.608642   -903.94728    1633.5361   -37.257478    2.1815558    17.717791   0.12546455 
  197500   -949.60015    40.831597   -908.76855    1462.4397   -2180.3831    2.1758674    19.849186   0.11287266 
  197600   -944.01972    42.960834   -901.05889    1538.7013   -163.45247    2.1688315    15.027755   0.12693554 
  197700   -952.31285    49.552216   -902.76063    1774.7807   -1154.1239    2.1811721    19.226081   0.11739271 
  197800   -953.07951    43.764938   -909.31457    1567.5014    811.66153    2.1907639    16.775833   0.11055703 
  197900   -946.34241    45.970651   -900.37176     1646.502   -4211.2012     2.160795    18.682648   0.12359841 
  198000   -945.68054    43.586483   -902.09405    1561.1098    1014.9069    2.1751824    15.872966   0.12057511 
  198100   -948.28783    41.003742   -907.28408    1468.6053    5577.0319    2.1937208     16.32998   0.11611601 
  198200    -944.4698    45.770546   -898.69925     1639.335   -1024.7198     2.167765    16.921709   0.12397257 
  198300   -946.99412    45.848088   -901.14603    1642.1122   -2461.7452    2.1709832    20.125329   0.12338287 
  198400   -950.61063    44.735406   -905.87522      1602.26    164.14748    2.1850697    19.855605   0.11760545 
  198500   -947.61134    48.491637   -899.11971    1736.7946   -311.61838    2.1756673    18.342855   0.12515146 
  198600   -941.51058    41.846594   -899.66398    1498.7933    3405.4379    2.1748656    15.697105   0.12219839 
  198700   -950.90179    45.032378   -905.86941    1612.8965    -4231.821    2.1773267     18.84711   0.11554334 
  198800   -946.84052    46.372488   -900.46803    1660.8944     867.3976    2.1781919     18.31315   0.11321954 
  198900   -948.46369    50.787873   -897.67582    1819.0374     1133.402    2.1795292    17.655478   0.11372795 
  199000   -948.00737     42.16995   -905.83742    1510.3747    -47.13149    2.1825222    20.425684   0.11429483 
  199100   -948.73832    46.581328     -902.157    1668.3742   -3983.8497    2.1694619    16.771877   0.10933912 
  199200   -945.54149    47.811018   -897.73047    1712.4173   -629.78622    2.1710785    18.707384   0.11322603 
  199300   -950.68397    43.646452   -907.03752    1563.2576     7502.623    2.2071508    17.398396   0.10814393 
  199400   -946.97966    44.133753    -902.8459     1580.711   -3432.1073    2.1738223    21.195369   0.12038309 
  199500   -943.60411    43.362605    -900.2415    1553.0913   -6810.4222    2.1530677    17.320631   0.12938484 
  199600   -954.40754    45.453316   -908.95423    1627.9729    1376.5235    2.1989273     18.18792   0.10209523 
  199700   -949.71284    45.775058   -903.93778    1639.4966    6660.5053    2.2029984     19.15251   0.11685877 
  199800   -942.62377     41.92705   -900.69672    1501.6749   -3237.3724    2.1638148    15.629713   0.12465411 
  199900    -950.0598     43.49151   -906.56829    1557.7082   -8895.3724    2.1607378     20.11625   0.10206584 
  200000   -952.37653    46.831038   -905.54549     1677.318    4772.5586    2.2002814    20.500941  0.099426929 
  200100   -944.19098    45.941301   -898.24968    1645.4508    9296.2297    2.1941719    18.459129   0.11846224 
  200200   -947.06166    42.247225   -904.81443    1513.1424   -7120.1996     2.164172    19.839965   0.11775774 
  200300   -947.13903    41.763997   -905.37503    1495.8349   -5940.5484    2.1638841    20.201873   0.11482807 
  200400   -943.19817    46.419979   -896.77819    1662.5953    6372.9973    2.1799927    17.866397   0.11213803 
  200500   -944.40849    41.695645   -902.71284    1493.3868      7434.59    2.1915752     18.97421   0.10891868 
  200600   -946.90199    40.949765   -905.95222    1466.6721   -2376.3785    2.1722206    17.741994   0.10826136 
  200700   -941.62275    44.453087   -897.16966    1592.1484   -1969.4112    2.1588917    20.870779   0.11692795 
  200800   -948.08731     45.37539   -902.71192    1625.1819    3694.3291    2.1843387    17.558324   0.10293445 
  200900   -947.92932    42.630594   -905.29873    1526.8733    1538.8811     2.181815    18.203321   0.09664257 
  201000    -941.2355    42.483641   -898.75186      1521.61   -134.58258    2.1654244    19.005638   0.11495774 
  201100   -949.86327    46.913965    -902.9493    1680.2881   -4573.6684    2.1739004    18.559898   0.11752898 
  201200   -946.65682    40.462465   -906.19436    1449.2188    3729.8597    2.1860274     19.10781   0.11873894 
  201300   -946.50447    46.751252   -899.75322    1674.4603    1317.4578    2.1759665    19.887616   0.10638078 
  201400   -947.95845    45.195148    -902.7633    1618.7263   -2998.5811    2.1704834    22.065791   0.10889407 
  201500   -949.35113    41.661456   -907.68968    1492.1623     1176.619    2.1839926    18.878599   0.10854123 
  201600   -947.86544    47.919312   -899.94613     1716.296    2819.4838    2.1825034    15.802222   0.11534776 
  201700   -949.64951     46.62778   -903.02173     1670.038   -643.50391    2.1800391    20.760245    0.1116875 
  201800   -952.83795    43.990516   -908.84743    1575.5807   -7317.2433    2.1713719    18.664173   0.10789975 
  201900   -949.39757    48.803113   -900.59445    1747.9505   -3875.6913     2.169534    19.226509   0.10153033 
  202000   -949.02468    47.288373   -901.73631     1693.698    9159.5665    2.2060428    19.826302   0.12412789 
  202100   -948.59194    40.947542    -907.6444    1466.5925    2364.4963    2.1908419    18.323764   0.12609802 
  202200   -946.26717    46.899934   -899.36723    1679.7856   -12843.145    2.1404112    19.384055    0.1277767 
  202300   -951.69248    50.316799   -901.37568    1802.1653   -3629.3729    2.1768193    18.155323   0.10321764 
  202400   -946.49395    41.524104   -904.96985    1487.2428    14911.786    2.2176272    17.289578   0.11472741 
  202500   -945.68088    47.000041   -898.68084     1683.371   -1769.9968    2.1739802    16.818329   0.13813974 
  202600   -947.01107    46.424372   -900.58669    1662.7527    -12824.43     2.146338    19.715555   0.12882956 
  202700   -952.48567    46.268243   -906.21743    1657.1607   -1657.0104    2.1863805    18.615056   0.12651783 
  202800   -944.17475    44.455174   -899.71957    1592.2231    11338.791    2.2007777     16.66977   0.12535653 
  202900   -945.01434    45.095751   -899.91859    1615.1663   -1265.3616    2.1722467    19.964671   0.13646228 
  203000   -948.94208    41.439688    -907.5024    1484.2193   -4942.2597    2.1732387    18.003151   0.13274552 
  203100    -947.6746    46.386808   -901.28779    1661.4072    -1038.652    2.1800897    15.489727   0.13476844 
  203200   -949.73538    49.742169   -899.99321    1781.5841   -408.91216     2.183801    17.524094   0.13146701 
Loop time of 142.692 on 1 procs for 200000 steps with 217 atoms

Performance: 363.301 ns/day, 0.066 hours/ns, 1401.623 timesteps/s
100.0% CPU use with 1 MPI tasks x no OpenMP threads

MPI task timing breakdown:
Section |  min time  |  avg time  |  max time  |%varavg| %total
---------------------------------------------------------------
Pair    | 138.26     | 138.26     | 138.26     |   0.0 | 96.90
Neigh   | 1.2893     | 1.2893     | 1.2893     |   0.0 |  0.90
Comm    | 0.88958    | 0.88958    | 0.88958    |   0.0 |  0.62
Output  | 0.071609   | 0.071609   | 0.071609   |   0.0 |  0.05
Modify  | 1.8608     | 1.8608     | 1.8608     |   0.0 |  1.30
Other   |            | 0.3163     |            |       |  0.22

Nlocal:    217 ave 217 max 217 min
Histogram: 1 0 0 0 0 0 0 0 0 0
Nghost:    953 ave 953 max 953 min
Histogram: 1 0 0 0 0 0 0 0 0 0
Neighs:    4199 ave 4199 max 4199 min
Histogram: 1 0 0 0 0 0 0 0 0 0
FullNghs:  8398 ave 8398 max 8398 min
Histogram: 1 0 0 0 0 0 0 0 0 0

Total # of neighbors = 8398
Ave neighs/atom = 38.7005
Neighbor list builds = 2166
Dangerous builds = 15
Total wall time: 0:02:24
