LAMMPS (3 Mar 2020)

    # ---------- Initialize simulation ---------------------
    units metal
    atom_style atomic
    dimension  3
    boundary   p p p
    read_data /home/modeler/RemLabs/Lab4/ProblemEC1_v2_size_4/temp_1090/lammps.data
  orthogonal box = (0 0 0) to (16.36 16.36 16.36)
  1 by 1 by 1 MPI processor grid
  reading atoms ...
  256 atoms
  read_data CPU = 0.00102409 secs

    pair_style eam
    pair_coeff * * /usr/share/lammps-stable/potentials/Ag_u3.eam
Reading potential file /usr/share/lammps-stable/potentials/Ag_u3.eam with DATE: 2007-06-11

    velocity  all create 1090 87287 dist gaussian

    # ---------- Describe computed properties------------------
    compute msdall all msd
    thermo_style custom step pe ke etotal temp press density c_msdall[4]
    thermo 100

    # ---------- Specify ensemble  ---------------------
    #fix  1 all nve
    #fix  1 all nvt temp 1090 1090 0.25
    fix 1 all npt temp 1090 1090 0.25 tchain 2 iso 1.0 1.0 1.0 pchain 2

    # --------- Compute RDF ---------------
    compute rdfall all rdf 100 1 1
    fix 2 all ave/time 1 125000 125000 c_rdfall[*] file /home/modeler/RemLabs/Lab4/ProblemEC1_v2_size_4/temp_1090/lammps.rdf mode vector

    # --------- Run -------------
    timestep 0.005
    run 500000
Neighbor list info ...
  update every 1 steps, delay 10 steps, check yes
  max neighbors/atom: 2000, page size: 100000
  master list distance cutoff = 7.55
  ghost atom cutoff = 7.55
  binsize = 3.775, bins = 5 5 5
  2 neighbor lists, perpetual/occasional/extra = 1 1 0
  (1) pair eam, perpetual
      attributes: half, newton on
      pair build: half/bin/atomonly/newton
      stencil: half/bin/3d/newton
      bin: standard
  (2) compute rdf, occasional, copy from (1)
      attributes: half, newton on
      pair build: copy
      stencil: none
      bin: none
Per MPI rank memory allocation (min/avg/max) = 3.744 | 3.744 | 3.744 Mbytes
Step PotEng KinEng TotEng Temp Press Density c_msdall[4] 
       0       -729.6    35.927857   -693.67214         1090    8763.9045    10.472245            0 
     100   -708.83684    18.705243    -690.1316    567.49041   -12417.295    9.9734209  0.064142624 
     200    -707.3146    20.457516   -686.85708     620.6519    3733.0316    10.113342  0.068092988 
     300   -706.82628    23.178957   -683.64732    703.21653   -1911.2677    10.037007  0.071056702 
     400   -705.12312    24.572982   -680.55014    745.50925   -5295.4151    9.9754972   0.08022242 
     500   -702.37294    24.857876   -677.51506    754.15253    4968.1885    10.034457  0.085911274 
     600   -699.05704    24.578612   -674.47843    745.68007   -3561.4845    9.8963072   0.10889747 
     700   -699.56329    28.014603   -671.54868    849.92315    2533.0766    9.9537668   0.10593227 
     800   -696.60207    28.008154   -668.59391    849.72749    -1771.301    9.8655578   0.11724451 
     900   -696.32533    30.739329     -665.586    932.58744   -6965.4216    9.7951297   0.12268984 
    1000   -693.53981     30.94469   -662.59512    938.81779    5010.5519    9.8700476   0.11629706 
    1100   -691.96975    32.163537   -659.80621     975.7959    3267.9508    9.8329771   0.12522456 
    1200   -689.82617    32.832681   -656.99349    996.09677    1747.8536    9.7786173   0.14207849 
    1300   -688.45727    34.202933   -654.25434    1037.6682    2463.6116    9.7562057   0.15520621 
    1400    -687.6279    36.078003   -651.54989    1094.5552    -7256.699    9.6429629   0.17507127 
    1500   -683.44889    34.949101   -648.49979    1060.3059    6045.6221     9.715973   0.18433968 
    1600   -687.31422    37.012096   -650.30212    1122.8943   -2456.6367    9.6854047    0.1862413 
    1700   -687.69599    32.799252   -654.89674    995.08258    -7664.415    9.6443714   0.17340496 
    1800   -688.26381    38.793114    -649.4707    1176.9278    4130.2974    9.7604109   0.16544173 
    1900   -684.58114    36.339303   -648.24184    1102.4827    9404.1288      9.75717   0.16058629 
    2000   -686.45218    32.681346   -653.77083    991.50548   -7247.3079    9.6149141   0.17711514 
    2100   -688.15509    39.069069   -649.08602    1185.2999   -3532.6247    9.6710322   0.17815886 
    2200   -683.71395    36.839117   -646.87484    1117.6463    909.39512    9.6554832   0.17366832 
    2300   -687.77231    35.292358   -652.47996    1070.7198    5928.7593    9.7735345   0.14545642 
    2400   -684.39841     32.39701    -652.0014    982.87913    3619.1517    9.6911098    0.1682828 
    2500   -683.79138    37.047332   -646.74405    1123.9633   -3587.3483    9.6048986   0.18742133 
    2600   -687.78057    37.081722   -650.69884    1125.0066    323.41674    9.7064552   0.18299988 
    2700   -689.57557    37.048663    -652.5269    1124.0036    60.023982    9.7404386    0.1550376 
    2800   -687.66702    40.331513    -647.3355    1223.6006   -4377.1585    9.6611526   0.16728413 
    2900   -687.64259     40.20303   -647.43956    1219.7027   -6904.4929    9.6222502   0.17634689 
    3000   -687.94042    35.811036   -652.12939    1086.4558   -3548.3161    9.6691967   0.17869989 
    3100   -686.47519     36.71926   -649.75593      1114.01    724.17362    9.6907958   0.16621382 
    3200   -683.05295    38.040808   -645.01214    1154.1039   -7050.5952    9.5508701   0.19650566 
    3300   -685.93645     34.02412   -651.91233    1032.2433    3485.8934    9.7159439   0.16508477 
    3400   -687.65149    36.316512   -651.33498    1101.7912   -2300.6958    9.6949045   0.17088417 
    3500   -684.73646    35.155529   -649.58093    1066.5687    1943.0649    9.6832451   0.19030673 
    3600   -679.60447    35.860515   -643.74395    1087.9569    2132.6543    9.5837973   0.21760087 
    3700    -682.3253    35.128597    -647.1967    1065.7516   -4065.6835    9.5741766   0.19419782 
    3800   -685.85246    35.914864    -649.9376    1089.6058    3987.5505    9.7257158   0.16305887 
    3900   -690.06059    39.622925   -650.43767    1202.1031    117.80821    9.7429112   0.14528561 
    4000   -687.38831    34.419426   -652.96889    1044.2364    810.40506    9.7228847   0.16315128 
    4100   -690.09801    33.069858   -657.02816    1003.2924   -3219.6034    9.7261579   0.15364704 
    4200   -686.96135    35.892138   -651.06921    1088.9163    6145.7894    9.7626539   0.17009515 
    4300   -685.64419    35.609189   -650.03501    1080.3321   -8575.3457    9.5758666   0.20119254 
    4400   -686.70507    35.065845   -651.63922    1063.8478   -3615.4599    9.6486118   0.18618054 
    4500   -689.49143    32.917505   -656.57393    998.67019    3345.8974    9.7862107   0.14591387 
    4600   -686.65131    36.720158   -649.93115    1114.0373   -6004.9041     9.625007   0.17931064 
    4700   -685.67015    35.950746    -649.7194    1090.6944    6376.9001    9.7525794   0.15430413 
    4800   -689.24218    35.537707   -653.70447    1078.1634    2292.9269    9.7643565   0.14897839 
    4900   -689.56558     34.05118   -655.51439    1033.0643   -1671.0811    9.7314926    0.1515738 
    5000   -685.51431    36.759445   -648.75486    1115.2292   -416.85324    9.6591823   0.18298657 
    5100   -685.80644    36.172678   -649.63376    1097.4275    873.90991    9.6911676   0.17421396 
    5200   -688.29599    34.803685    -653.4923    1055.8942    6613.3287    9.7877816   0.15351135 
    5300   -689.23923    33.550833    -655.6884    1017.8845   -6146.0525     9.688554   0.17086627 
    5400   -685.85123    36.140986   -649.71024     1096.466    4028.8923    9.7164236   0.16595056 
    5500   -686.29871     35.98486   -650.31385    1091.7294    225.67496     9.689696   0.15145162 
    5600   -691.52263    36.028682   -655.49395    1093.0589   -6753.4766    9.7100186   0.15090751 
    5700   -686.81686    36.761116   -650.05575    1115.2799    8938.3741    9.8008472   0.15680642 
    5800   -686.03931    37.107246   -648.93206     1125.781   -6557.1626    9.6078195   0.17404997 
    5900   -686.75531    34.406575   -652.34874    1043.8465   -1106.9195      9.68876   0.16706143 
    6000   -687.11139    37.714304   -649.39709    1144.1983    11176.875    9.8104184   0.13839122 
    6100   -684.43738     37.30939   -647.12799    1131.9137   -2166.1961    9.6329046   0.19458343 
    6200   -686.21964    34.239308   -651.98033    1038.7718    1232.5983    9.7081863   0.17962559 
    6300   -687.21917    37.290135   -649.92903    1131.3295   -9469.3026    9.6047197   0.19194799 
    6400   -683.95059    37.333353   -646.61724    1132.6407    3072.9449     9.691929   0.20541714 
    6500   -688.57367    36.010183   -652.56348    1092.4977    2666.5584    9.7621527   0.18588172 
    6600   -683.96188    32.750318   -651.21156    993.59798   -14540.703    9.5039126   0.23945875 
    6700   -685.66018    38.791501   -646.86868    1176.8789     349.6714    9.6620022   0.17655548 
    6800   -687.43695    35.580139   -651.85681    1079.4507    2643.7021    9.7363065   0.15491128 
    6900   -686.55269    33.882798    -652.6699    1027.9558   -249.55102    9.6948759   0.18546614 
    7000    -682.1927    35.494987   -646.69771    1076.8673   -1737.5151    9.6047837   0.20585053 
    7100   -686.00111    35.467144   -650.53397    1076.0226    1245.6895     9.677964   0.19187834 
    7200   -688.51685     36.00314   -652.51371     1092.284    5547.6932    9.7787028   0.15576372 
    7300   -682.91002    37.203171   -645.70685    1128.6912   -3515.0729    9.5847629   0.18496818 
    7400   -681.80572     33.68148   -648.12424    1021.8481    -3788.401    9.5730639   0.22397016 
    7500   -687.06457    34.655672    -652.4089    1051.4037    6965.5943    9.7723144   0.15947359 
    7600   -685.14892    35.079858   -650.06906    1064.2729   -4354.7166    9.6251786   0.18057484 
    7700   -679.70256    34.901439   -644.80113    1058.8599    3683.7081    9.6185012   0.20380882 
    7800   -687.25744    36.144228   -651.11322    1096.5644    534.43227    9.7141624   0.18187816 
    7900   -687.97669    37.450893   -650.52579    1136.2067    5804.5392    9.7647679   0.15900842 
    8000   -681.00401    34.816358   -646.18766    1056.2787    4543.9399    9.6516746   0.17492023 
    8100   -684.98797    32.709483   -652.27849    992.35911   -2154.9639    9.6508492    0.1858115 
    8200   -684.90929    32.339556   -652.56974    981.13604    6749.4053    9.7404884   0.19642921 
    8300   -684.31344    36.909037    -647.4044    1119.7676   -5122.5027    9.5864076   0.20264782 
    8400   -685.79048    35.833394   -649.95709    1087.1341    2466.6165    9.7043368     0.195232 
    8500   -690.34518    35.882907   -654.46227    1088.6363   -2486.9567    9.7487514   0.15858694 
    8600     -682.339    33.942814   -648.39618    1029.7766    8285.4875    9.7095429   0.19802217 
    8700   -683.90858    35.108756   -648.79982    1065.1496   -7354.7999    9.5644839   0.20037796 
    8800   -689.67647    38.570621   -651.10585    1170.1777    12881.428    9.8726994   0.13936164 
    8900   -689.72586    38.730388   -650.99547    1175.0248    3636.4946    9.7727222    0.1286896 
    9000   -683.34362    37.755328   -645.58829    1145.4429   -5682.4316    9.5609318   0.20280644 
    9100   -687.51666    36.294366   -651.22229    1101.1193    2006.6122    9.7187678   0.16761729 
    9200   -689.20151     37.40562   -651.79589    1134.8332   -99.109886    9.7283235    0.1577109 
    9300   -684.97548    38.876186   -646.09929    1179.4481    1873.7172    9.6737211   0.16773119 
    9400    -685.9762    34.773763   -651.20244    1054.9864   -1752.6344     9.658724    0.1842974 
    9500   -686.46884    33.688443    -652.7804    1022.0594   -9920.6466    9.5908772   0.18795678 
    9600    -687.0877    38.545531   -648.54217    1169.4165    6512.7922    9.7586085   0.14860085 
    9700   -687.37009    37.810411   -649.55968     1147.114   -279.36037    9.7036895   0.16523043 
    9800   -687.04246    33.244872   -653.79759     1008.602   -2418.4096    9.6727261   0.14994949 
    9900   -686.04432    36.610551   -649.43376     1110.712    1033.4037    9.7029113   0.16204254 
   10000   -684.73117    37.946044   -646.78513    1151.2289    3955.1715    9.7057653   0.18527831 
   10100   -687.07014    32.452953   -654.61718    984.57635    1648.6937    9.7247579   0.17325072 
   10200   -688.31087    35.461624   -652.84925    1075.8551    -5873.594    9.6664407   0.18343428 
   10300   -686.96984    38.327176   -648.64266    1162.7919   -838.46404    9.6950299   0.16532481 
   10400   -688.87511    37.180248   -651.69486    1127.9957   -2249.6214    9.7019365   0.15703976 
   10500   -688.07906    32.653114   -655.42595    990.64894    2466.2203     9.745389    0.1492888 
   10600    -688.0388     38.85489   -649.18391     1178.802   -3943.1493    9.6599542    0.1593361 
   10700   -684.94856    35.523594   -649.42497    1077.7352     4315.429    9.7151975   0.18427264 
   10800   -684.11719    34.250394   -649.86679    1039.1082   -1160.1224    9.6371836   0.20950997 
   10900   -688.29385    31.958752    -656.3351      969.583   -130.69783     9.729656   0.16696663 
   11000   -687.83223    36.944145   -650.88809    1120.8327    7817.5481    9.7987269   0.16579097 
   11100   -685.71805     36.51729   -649.20076    1107.8826   -4675.1897    9.6257112    0.1873481 
   11200   -689.84305     37.78893   -652.05412    1146.4623   -2301.6755    9.7181489    0.1515439 
   11300   -689.10642    33.330802   -655.77562     1011.209    9129.1467    9.8422221   0.14234634 
   11400   -687.60729    36.706356   -650.90093    1113.6185   -7279.5753    9.6337547   0.16718914 
   11500   -685.28258    35.053537   -650.22904    1063.4744   -9380.8566    9.5540543   0.19398457 
   11600   -688.58806    35.099686   -653.48838    1064.8745    4041.3926    9.7584938   0.14760796 
   11700   -689.78777    33.675961   -656.11181    1021.6807   -30.449411    9.7665744   0.14926667 
   11800   -686.24206    35.777804   -650.46425    1085.4476    2374.0852    9.7100763   0.15791968 
   11900   -685.64349     37.07726   -648.56623    1124.8713    5901.1296    9.7446608   0.15887652 
   12000   -686.65211    34.670764   -651.98134    1051.8616   -2851.1689    9.6819544   0.16305417 
   12100   -689.77235     35.01469   -654.75766    1062.2958    5345.0156     9.815875   0.15236369 
   12200   -684.68601    35.013254   -649.67276    1062.2523   -1048.2676    9.6357774    0.2006083 
   12300   -685.30728    36.165145   -649.14213     1097.199   -9882.1566    9.5559527   0.19395208 
   12400   -690.24055    35.751393   -654.48915    1084.6463    4967.0044    9.8031913   0.16246885 
   12500   -687.28101     37.35599   -649.92502    1133.3275    3299.8916    9.7373898   0.17283921 
   12600   -684.82959    36.069724   -648.75986     1094.304   -2483.1838     9.627285   0.18278189 
   12700   -690.36893    36.128773   -654.24016    1096.0955   -4897.0579    9.6998581   0.15644779 
   12800   -687.03937    35.220735   -651.81864    1068.5469    5882.5858    9.7456415   0.16627506 
   12900   -684.52084    36.040964   -648.47987    1093.4315   -9448.0794    9.5533482    0.1979543 
   13000   -685.69803    35.163328    -650.5347    1066.8053    2656.0778    9.7048742   0.18579166 
   13100   -688.79251     32.93509   -655.85742    999.20371   -932.11209    9.7300827   0.16043597 
   13200   -688.96335    33.730176   -655.23317    1023.3255   -1045.2391    9.7244253   0.15187415 
   13300   -688.09507    37.556957   -650.53812    1139.4246    1472.5393    9.7328751   0.16221568 
   13400   -687.01906     36.84535   -650.17371    1117.8354   -1447.3479    9.6907048   0.15245993 
   13500    -688.1648    35.682624   -652.48218      1082.56    -2210.071    9.6898595   0.16785744 
   13600   -689.11186    32.262855     -656.849    978.80904   -844.19036    9.7267166   0.15460027 
   13700   -686.84733    35.625428    -651.2219    1080.8247    1936.1705    9.7194931   0.17964131 
   13800   -686.00602    36.498536   -649.50748    1107.3136    1740.7369    9.7071782   0.17201019 
   13900   -686.97944    35.996746   -650.98269      1092.09   -8395.7809    9.6193544   0.17940284 
   14000   -692.32339    36.016579   -656.30681    1092.6917    10100.817    9.8983609   0.13002072 
   14100   -688.46937    37.256312   -651.21306    1130.3034    643.85526    9.7355505   0.16984175 
   14200   -684.81022    35.521235   -649.28898    1077.6637    -8410.317    9.5641497   0.21964775 
   14300   -687.02102    39.017159   -648.00387     1183.725   -2378.0475    9.6789385   0.18221144 
   14400   -688.86198    35.438299   -653.42368    1075.1475    2543.4566    9.7633043   0.14622765 
   14500   -685.20946    35.808039   -649.40142    1086.3649   -5681.3333    9.6189354   0.18341365 
   14600   -686.93277    39.532464   -647.40031    1199.3586   -212.35863    9.6912228   0.16989201 
   14700     -688.972    36.042835   -652.92917    1093.4883   -2629.4508    9.6994215    0.1548529 
   14800   -686.98262    36.038531   -650.94409    1093.3577    2094.6129    9.7181332   0.15054049 
   14900   -683.65611    36.621394   -647.03471    1111.0409   -230.87377    9.6490176   0.20211786 
   15000   -687.98063    35.476438    -652.5042    1076.3046   -1776.6255    9.7006058   0.17576763 
   15100   -687.97689     35.24754   -652.72935    1069.3602   -2501.3102    9.6840163   0.15660229 
   15200    -683.5609    36.203879   -647.35702    1098.3741    2544.6228    9.6639415   0.20723019 
   15300    -685.1675    36.885605    -648.2819    1119.0567    13.394104    9.6637717   0.17483353 
   15400   -686.37508    33.197636   -653.17744     1007.169   -471.36074    9.6940689   0.17903716 
   15500   -684.87409    35.280562   -649.59353     1070.362   -1345.7994    9.6506548   0.18034356 
   15600   -684.08856    35.463726   -648.62483    1075.9189    1819.6079    9.6760833   0.19106895 
   15700   -689.75003    34.367206   -655.38283    1042.6521    4253.3337    9.7867914   0.15019086 
   15800   -683.27304    32.059139    -651.2139    972.62861   -978.49949    9.6378658   0.18678492 
   15900   -684.79103    36.622943   -648.16809    1111.0879    6389.2367    9.7168872   0.18108036 
   16000   -687.84359    33.917348   -653.92624     1029.004   -5373.8876    9.6596688    0.1989551 
   16100   -688.49178    36.894044   -651.59774    1119.3127    285.80271    9.7232805   0.16492597 
   16200   -687.65498    39.196774    -648.4582    1189.1743    2903.9464    9.7254452   0.17546636 
   16300   -685.35015    34.674943   -650.67521    1051.9884   -2788.0138    9.6515203   0.18780427 
   16400   -689.26256    33.885227   -655.37733    1028.0295   -7021.7458    9.6640926   0.18570552 
   16500   -685.85108     37.52117   -648.32991    1138.3388    8911.4229     9.769015   0.17445424 
   16600   -687.00747    37.824049   -649.18342    1147.5277   -9692.1398    9.6029364   0.19869848 
   16700   -687.94992    33.429718    -654.5202      1014.21   -1912.4226     9.693555    0.2035889 
   16800    -686.0922    36.665105    -649.4271    1112.3671   -833.65504    9.6793022    0.1917426 
   16900   -684.92553    37.128563   -647.79696    1126.4277   -3768.8981     9.622794   0.19947368 
   17000   -689.26555    37.688817   -651.57673     1143.425    7216.1662    9.8122423   0.15515246 
   17100   -690.48405    35.999109   -654.48494    1092.1617   -11182.978    9.6395886   0.17244255 
   17200    -683.5647    35.209527   -648.35517    1068.2069    7419.3523    9.7160144    0.1828199 
   17300   -685.95706    38.454655   -647.50241    1166.6595   -329.03155    9.6738775    0.1915236 
   17400   -687.86768    37.529697   -650.33798    1138.5975   -5147.1399    9.6606666   0.18620196 
   17500   -689.32852     36.79655   -652.53197    1116.3549     -1543.36    9.7310986   0.17226897 
   17600   -683.50678    37.497887   -646.00889    1137.6325    3022.6242    9.6552999   0.19436057 
   17700   -683.11136    36.719843   -646.39152    1114.0277   -3048.5368    9.5999874   0.19664912 
   17800   -686.42332    35.298205   -651.12511    1070.8972    4266.5015    9.7336974    0.1590653 
   17900   -686.29202    35.182936   -651.10909    1067.4001    4177.9753    9.7285938   0.15420919 
   18000   -684.07588    39.023052   -645.05283    1183.9038   -3745.2983    9.6003143   0.19225632 
   18100   -686.55081    38.577826   -647.97298    1170.3963    1439.7624    9.7010111   0.18211997 
   18200   -686.96526    36.259097   -650.70617    1100.0493    2214.6675    9.7246255   0.18229917 
   18300   -685.37981    34.928227   -650.45159    1059.6726   -3211.1865    9.6381969   0.18796114 
   18400   -689.40195    34.455894   -654.94605    1045.3427    279.65983    9.7395723   0.16590415 
   18500   -689.39097    33.684526   -655.70645    1021.9405    7575.2658    9.8397068    0.1429992 
   18600   -683.77216    33.717338   -650.05482     1022.936   -5503.3588    9.5932957     0.200633 
   18700    -684.7081    34.871522   -649.83658    1057.9523    -77.81909    9.6567157   0.20085681 
   18800   -685.83201    37.772452   -648.05956    1145.9624    7423.3296    9.7469029   0.16051345 
   18900   -689.28553    34.413483   -654.87204    1044.0561   -2043.3717    9.7092264   0.15603122 
   19000   -683.47153    32.702734    -650.7688    992.15435   -6504.2175    9.5762669   0.21648743 
   19100   -686.53831       38.856   -647.68231    1178.8357   -336.98752    9.6824897    0.1915662 
   19200   -689.15138    37.818409   -651.33297    1147.3566    12763.488    9.8690811   0.14951926 
   19300    -683.9762    32.879613   -651.09659    997.52062   -7745.7176    9.5628634   0.20728172 
   19400    -684.0729    37.778026   -646.29487    1146.1315    1733.4544    9.6709415   0.21291238 
   19500   -686.73064    35.193669   -651.53697    1067.7258   -485.58206    9.6972795   0.19990039 
   19600    -684.3741    33.036145   -651.33795    1002.2696   -4602.5361    9.6216831   0.18595296 
   19700   -682.15448    37.247902   -644.90658    1130.0483    6717.8613    9.6836694   0.19661181 
   19800   -686.07786    36.320527   -649.75733     1101.913   -7001.6709    9.5877794   0.18863016 
   19900   -687.62044    36.252291   -651.36815    1099.8429   -6086.0947    9.6475756   0.17686393 
   20000   -687.66099    39.865768   -647.79522    1209.4706    1153.4118    9.7135586   0.18126414 
   20100   -683.56147     35.31006   -648.25141    1071.2569   -2506.3338    9.6133452   0.22275041 
   20200   -688.26888    33.825991   -654.44289    1026.2324   -3058.4536    9.6921589    0.1728601 
   20300   -686.14667    35.650421   -650.49625     1081.583    3819.3725    9.7254244   0.16005047 
   20400   -683.98294    36.632274   -647.35067     1111.371    2303.4105    9.6655108   0.20187997 
   20500   -688.25725    35.456261   -652.80099    1075.6924   -7992.3411    9.6284903   0.16339756 
   20600   -688.93699     35.60855   -653.32844    1080.3127    6592.9409    9.8110321   0.15145759 
   20700   -685.11685    36.691732   -648.42512    1113.1749    858.80272    9.6781273   0.17065043 
   20800   -689.18643    38.227845   -650.95859    1159.7783   -675.18344    9.7213218   0.17574454 
   20900   -691.58857    36.257931   -655.33064     1100.014    4469.5001    9.8291199   0.14352023 
   21000   -683.09734    34.629327   -648.46801    1050.6044   -14986.443    9.4695198   0.21921944 
   21100   -687.18753    37.795138    -649.3924    1146.6506    1472.8599    9.7176063    0.1767853 
   21200   -691.49665    38.427033   -653.06961    1165.8214    4147.7198    9.8080289   0.13589281 
   21300   -684.37052    33.281403   -651.08911    1009.7103   -3575.9093    9.6209227   0.17619873 
   21400   -684.39285    37.640451    -646.7524    1141.9576   -1346.6689    9.6358326   0.18376791 
   21500   -690.81324    40.538736    -650.2745    1229.8875   -5081.0413     9.704756   0.16498786 
   21600   -689.50948     36.40842   -653.10106    1104.5796   -1783.0965    9.7293525   0.15644752 
   21700   -684.88664    36.616249   -648.27039    1110.8848    3502.7343    9.6908067   0.17667934 
   21800    -686.5634    39.051107   -647.51229    1184.7549   -2563.7443    9.6574596   0.18292113 
   21900   -687.15435    34.906193   -652.24816    1059.0041    430.66148     9.708986   0.18588931 
   22000   -684.13906    34.673392   -649.46566    1051.9413    1945.2691    9.6675396   0.17999558 
   22100   -681.63335    37.612025   -644.02133    1141.0953   -6003.7581    9.5280333   0.21539927 
   22200   -688.29748    37.735645   -650.56183    1144.8457     11123.77    9.8367897     0.143629 
   22300   -686.09611    34.717965   -651.37814    1053.2936   -1734.1618     9.670594   0.15196747 
   22400   -685.17185    36.116665   -649.05518    1095.7282    2647.2423    9.6824898   0.18391468 
   22500   -684.33328    39.256521   -645.07676    1190.9869   -7411.9276    9.5656037    0.2133192 
   22600   -687.70782    35.881525    -651.8263    1088.5944    3020.8362    9.7440259     0.185219 
   22700   -688.65143    37.892562   -650.75886    1149.6063   -5437.6279    9.6659888   0.17450353 
   22800   -681.74736    35.804191   -645.94317    1086.2482      1641.93    9.6298207   0.19407436 
   22900   -684.70371     34.48333   -650.22038    1046.1751   -5538.8233    9.5988069   0.18386736 
   23000   -689.23142     37.45625   -651.77517    1136.3693    11340.285    9.8555229   0.13459456 
   23100   -685.35287    36.527986   -648.82489    1108.2071   -4547.0479    9.6252943   0.18137561 
   23200   -682.87162    34.020794   -648.85083    1032.1424   -641.89075    9.6113133   0.19474306 
   23300   -690.58443     36.81634   -653.76809    1116.9553    652.20496    9.7693568   0.13959508 
   23400   -686.02374    36.934919   -649.08882    1120.5528    -959.5191    9.6699334   0.16992491 
   23500   -684.48868    35.346663   -649.14201    1072.3674   -691.18416    9.6470344   0.17580956 
   23600   -691.33522    37.185793   -654.14943     1128.164     10421.66      9.88105   0.13038177 
   23700   -688.20625    37.972885   -650.23336    1152.0432   -7582.4016    9.6323872   0.16960918 
   23800   -685.01822    37.556565   -647.46166    1139.4127   -5996.4976    9.5995779    0.2087247 
   23900   -688.45864    35.991953   -652.46668    1091.9446    5132.7389    9.7714537   0.15479614 
   24000   -688.24336    35.649754   -652.59361    1081.5627    10394.991    9.8328068   0.13784964 
   24100   -683.26055    36.093268   -647.16728    1095.0183   -13006.018    9.4946763   0.19710872 
   24200   -685.39041    34.181724   -651.20868    1037.0248    4659.6619    9.7239659   0.16549229 
   24300    -686.9222    33.985086   -652.93712    1031.0591    9833.4589    9.8089823   0.15740178 
   24400   -683.19613    35.283797   -647.91234    1070.4601   -6935.2597    9.5651123   0.19398235 
   24500   -684.99826    34.612351   -650.38591    1050.0894    2919.1585    9.6998822   0.18539453 
   24600   -689.09381    34.191879   -654.90193    1037.3329   -4326.3457    9.6883045   0.16830966 
   24700   -684.70884    36.049433   -648.65941    1093.6884    3479.6978    9.6873346   0.17565199 
   24800   -688.19354    38.388693   -649.80485    1164.6583   -2331.1707    9.6893518   0.15504203 
   24900   -689.55516    35.115827   -654.43934    1065.3642     2086.803     9.769808   0.14313298 
   25000   -684.55764    34.950257   -649.60739     1060.341   -2733.7549    9.6287986   0.17282777 
   25100   -686.39412    37.719861   -648.67426    1144.3668   -9336.9033    9.5841756   0.18192275 
   25200   -688.34847    35.986873    -652.3616    1091.7905    9266.9738    9.8227837   0.16841563 
   25300   -686.05374    36.816173   -649.23757    1116.9502    -2990.185    9.6550238   0.20305819 
   25400    -682.8702     37.21918   -645.65102    1129.1769   -7681.2817    9.5505099   0.21450925 
   25500   -687.52731    36.307142   -651.22017     1101.507    1077.4349    9.7292484   0.16699109 
   25600   -685.40135     33.47161   -651.92974    1015.4809    6677.6569    9.7523032   0.18447469 
   25700   -682.60689    36.158073   -646.44882    1096.9844   -8638.7085    9.5220836   0.21484309 
   25800   -689.53222    38.148094   -651.38413    1157.3588   -1.2307556    9.7340115   0.16623523 
   25900   -688.61893    35.625557   -652.99338    1080.8286   -2919.3947    9.6978222   0.17336344 
   26000   -682.72062    35.070763   -647.64986     1063.997    1595.6824    9.6424698    0.2089806 
   26100   -688.09845    37.799757   -650.29869    1146.7908   -9192.6561    9.6123954   0.16065506 
   26200   -688.90426     34.82534   -654.07892    1056.5512    9329.2484     9.832154   0.12706042 
   26300   -686.11635    37.217572   -648.89878    1129.1281   -3754.1364     9.630475   0.18153108 
   26400   -685.15127    36.558585   -648.59268    1109.1354   -6114.8266    9.6025957    0.1651938 
   26500   -690.41565    36.168892   -654.24676    1097.3126    3813.6306    9.7914965   0.13668353 
   26600   -687.48779    36.783073   -650.70471     1115.946   -1979.8929    9.6751931     0.156589 
   26700   -684.13341    36.233126   -647.90029    1099.2614   -5042.4979    9.5895311   0.20123382 
   26800   -687.32198    35.163035   -652.15895    1066.7964    312.69924    9.7101554   0.17444002 
   26900   -688.37787    34.768902   -653.60897     1054.839    7454.0075    9.8069565    0.1459941 
   27000   -686.02359    38.873337   -647.15025    1179.3616   -5351.5249    9.6165504   0.16879667 
   27100   -686.26726    35.856985   -650.41027    1087.8498   -471.84692    9.6656622   0.17336376 
   27200   -688.65612    36.648807   -652.00732    1111.8726   -3204.7197    9.6748899   0.16723904 
   27300   -684.04495    38.409033   -645.63591    1165.2754     6086.609    9.7089127   0.16128551 
   27400   -683.59588    34.992825   -648.60305    1061.6324   -1076.8738    9.6367251   0.20885313 
   27500   -689.83849    36.487757   -653.35074    1106.9866    -2926.399    9.7092801   0.14888696 
   27600   -687.87157      34.7586   -653.11297    1054.5264    3973.7193    9.7637973   0.15689058 
   27700   -686.02529    38.231145   -647.79415    1159.8785    -6341.928    9.6050705   0.19517334 
   27800   -688.33161    37.100576   -651.23104    1125.5786    -4422.189    9.6813737   0.17127683 
   27900   -690.03555    34.851646    -655.1839    1057.3493    2739.6702    9.7768599   0.16898975 
   28000   -685.65113    36.829335    -648.8218    1117.3495   -2277.1005    9.6500801   0.20032299 
   28100   -686.02305    36.611465   -649.41159    1110.7397   -2904.3841    9.6462117   0.18265288 
   28200   -689.60382    35.302967   -654.30085    1071.0417    8512.8378    9.8381059   0.14216873 
   28300   -683.59798    34.123808   -649.47417    1035.2677   -1678.6093    9.6372727   0.18764645 
   28400   -687.72825    38.893607   -648.83464    1179.9766   -29.922383     9.704272   0.16539945 
   28500   -689.17142    36.312982   -652.85844    1101.6841    5824.2341    9.7930061   0.13293648 
   28600   -686.89685    36.282198   -650.61465    1100.7502   -7583.2225    9.6216245   0.17526269 
   28700   -683.05632    36.150236   -646.90608    1096.7467    560.19491    9.6348876   0.20039151 
   28800   -686.95339    35.646721   -651.30667    1081.4707    602.69325    9.7007315   0.17852364 
   28900   -687.37815    35.921457   -651.45669    1089.8058    1644.4966    9.7215469   0.19069194 
   29000   -684.16118    38.366419   -645.79476    1163.9825    -3815.019     9.604088    0.2089694 
   29100   -687.54056    36.164688   -651.37587    1097.1851   -2652.8053    9.6833782   0.18240821 
   29200   -691.79829    38.593523   -653.20477    1170.8725    -7965.311    9.6927509    0.1638082 
   29300   -685.58416    38.676666   -646.90749    1173.3949    6550.1346    9.7431373   0.17419164 
   29400   -685.00127    36.258836   -648.74243    1100.0414   -11829.048    9.5434133   0.19511789 
   29500   -688.76898    35.376515   -653.39247    1073.2731   -38.672212    9.7346931   0.17132405 
   29600   -685.45825    36.956556   -648.50169    1121.2093   -977.77775    9.6519588   0.19640284 
   29700   -682.40463     35.12809   -647.27655    1065.7362   -4428.8602    9.5738535   0.22212184 
   29800   -690.80919    37.434055   -653.37514    1135.6959    1724.6967    9.7796736   0.13746396 
   29900   -687.43553    36.136801   -651.29873    1096.3391    10370.691    9.8182142   0.14911955 
   30000   -684.03712     37.00782    -647.0293    1122.7645   -10172.562    9.5249141   0.18827704 
   30100    -687.2341    34.566756   -652.66734    1048.7061    9479.1392    9.8083566   0.16256554 
   30200   -687.99907    35.981275    -652.0178    1091.6206   -5281.2171    9.6645084   0.16550609 
   30300   -685.12844    37.448219   -647.68022    1136.1256   -3205.5891    9.6119585   0.18140329 
   30400   -688.22658    34.885144   -653.34143    1058.3656    3021.7003     9.759435   0.15835173 
   30500   -689.63025    38.054718   -651.57553    1154.5259   -4692.0709    9.6796171   0.15566793 
   30600   -681.13313     34.02816   -647.10497    1032.3659   -2276.2271    9.5662079    0.2001519 
   30700   -688.54522    38.765152   -649.78007    1176.0795    1844.4261    9.7351293   0.16137835 
   30800   -690.97879    37.585572   -653.39322    1140.2927   -4380.7489    9.7127538   0.15485677 
   30900   -685.79651    35.860968   -649.93554    1087.9707   -2871.1316    9.6483076   0.17457782 
   31000   -684.47436    36.740459    -647.7339    1114.6532     1908.598    9.6794516   0.18239749 
   31100   -689.47065    35.147151    -654.3235    1066.3145     1571.723    9.7613402   0.15255819 
   31200   -688.44098    36.863479    -651.5775    1118.3854   -1469.1147    9.7051356   0.16254719 
   31300   -681.33548    32.933756   -648.40172    999.16324    9047.0485    9.7051617    0.1997059 
   31400   -687.13239    35.322389      -651.81    1071.6309   -6258.4289    9.6328485   0.15869634 
   31500   -686.67676     32.31082   -654.36594    980.26424    12544.801    9.8396756   0.13636499 
   31600   -684.83674    35.593074   -649.24366    1079.8432    987.23237    9.6661527   0.17151799 
   31700   -682.27794    33.996105   -648.28184    1031.3934   -9222.2907    9.5229331   0.23424191 
   31800    -689.4638    36.485865   -652.97794    1106.9292      3693.73    9.7714803   0.16980458 
   31900   -689.06737    35.355552   -653.71182    1072.6371   -2535.2656    9.7112706   0.15761916 
   32000   -686.09208    36.861564   -649.23052    1118.3273   -792.82807     9.670286   0.16635953 
   32100   -685.96911     37.22085   -648.74826    1129.2275    9398.5311    9.7760279   0.16700358 
   32200   -689.71119    34.857806   -654.85339    1057.5362   -6190.1032    9.6845056   0.17907299 
   32300   -687.02013    32.373942   -654.64619    982.17927   -400.48676    9.6936088   0.18565028 
   32400   -685.11698    35.475429   -649.64155     1076.274    6897.9972    9.7432319   0.18419273 
   32500   -683.89888    34.361809   -649.53707    1042.4883    4900.7179    9.7064173    0.1795541 
   32600   -689.46879    34.907495   -654.56129    1059.0437   -3375.8976    9.7058734   0.15444449 
   32700   -688.32375    33.759107   -654.56465    1024.2032    7181.7775    9.7977244    0.1549713 
   32800   -682.67433    32.918193   -649.75614    998.69109   -1867.7927    9.6092839   0.19706713 
   32900   -684.30004    34.611581   -649.68846     1050.066    2382.7892    9.6824207   0.18720626 
   33000   -690.81021    36.998197   -653.81201    1122.4726    4525.0443    9.8119057   0.13693339 
   33100   -688.75418    33.463088   -655.29109    1015.2224    2455.6146    9.7610705   0.14792162 
   33200   -687.33557     36.73975   -650.59582    1114.6317   -457.03318    9.6899091   0.16289589 
   33300   -684.26604    34.676319   -649.58972    1052.0301   -1579.6412    9.6272141   0.17999884 
   33400   -683.35953    33.144542   -650.21498    1005.5582   -865.55692    9.6334695   0.19415335 
   33500   -689.41069    32.811891    -656.5988    995.46601     4312.334    9.7896027   0.14369057 
   33600   -687.44145    34.934542   -652.50691    1059.8642    1044.0195    9.7226309   0.14977626 
   33700    -687.8138    37.545691   -650.26811    1139.0828   -1259.8791    9.7011419   0.16553953 
   33800   -684.45351     35.96187   -648.49164    1091.0319     3507.727     9.696289   0.17170972 
   33900   -681.64942    39.960904   -641.68851    1212.3569     5167.239    9.6467733   0.19830892 
   34000   -680.99036    34.356739   -646.63362    1042.3345   -11239.111    9.4831073   0.23968027 
   34100   -684.85741    35.320693   -649.53672    1071.5795    3188.1585    9.6919451    0.1830029 
   34200    -688.4583     37.63085   -650.82745    1141.6664    3485.4925    9.7609634   0.16165218 
   34300   -690.58114     34.40473   -656.17641    1043.7905   -6092.6289    9.7006576   0.16072374 
   34400   -686.78962    32.829769   -653.95985    996.00842   -1173.0028    9.6949983   0.17485385 
   34500   -686.14896    36.121169    -650.0278    1095.8648    2516.3042    9.7124049   0.17621125 
   34600    -684.8072    35.161553   -649.64564    1066.7514    464.92737    9.6757187   0.18645977 
   34700    -687.0839    38.330388   -648.75351    1162.8894   -3860.1338    9.6526693   0.16654772 
   34800   -689.15154    34.089109   -655.06243     1034.215    3219.1511    9.7793362   0.17311166 
   34900   -687.18913    34.547955   -652.64118    1048.1357    2341.0543    9.7267607   0.18093792 
   35000   -684.35653    35.606086   -648.75044    1080.2379   -5592.5159    9.6023496   0.18942666 
   35100   -685.98216    34.445679   -651.53648    1045.0328    5074.0844    9.7392925   0.18165262 
   35200   -687.99886    32.844208   -655.15466    996.44647   -243.64341    9.7208707   0.18810796 
   35300   -684.12315    34.482729   -649.64042    1046.1569    2185.4411    9.6698818   0.20998154 
   35400   -685.47897    36.395635   -649.08333    1104.1917   -2432.1169    9.6413328   0.17972077 
   35500   -689.19419    33.954861   -655.23933    1030.1421    3821.4467     9.787827   0.15166271 
   35600   -685.52983     35.02973    -650.5001    1062.7521   -554.03787    9.6682349   0.17877671 
   35700    -685.7674    36.974597    -648.7928    1121.7566    2333.2158     9.695174   0.18213085 
   35800   -689.44956    35.870264    -653.5793    1088.2527   -9618.7186    9.6389096   0.15265811 
   35900    -688.8204    35.935675   -652.88472    1090.2372    11777.249    9.8599977   0.16058775 
   36000   -686.43586    38.016874   -648.41899    1153.3778   -4696.9898    9.6357666   0.19083732 
   36100   -686.25773    36.149196   -650.10853    1096.7151    -1742.171     9.660605   0.17578536 
   36200   -689.95932    33.457612   -656.50171    1015.0563   -851.66275    9.7424041   0.14224523 
   36300   -688.25901    36.110172   -652.14884    1095.5312    1807.2078    9.7316587    0.1620485 
   36400   -685.31737    35.530634   -649.78674    1077.9488   -2653.1646    9.6425904   0.17075408 
   36500   -686.34966    35.413502   -650.93616    1074.3952   -1387.2269    9.6678624   0.17819391 
   36600   -692.54805    35.119674   -657.42838    1065.4809   -337.25347    9.7846319   0.13674817 
   36700   -687.92521    35.717028   -652.20818    1083.6038   -2303.7416     9.695874    0.1600342 
   36800   -687.27412    37.140771   -650.13335    1126.7981   -9758.1482    9.5981457   0.17730389 
   36900   -685.01462    34.870879   -650.14374    1057.9328    8046.4657    9.7566505   0.16898591 
   37000   -690.79153    34.156533     -656.635    1036.2605    194.54267     9.774616   0.15703488 
   37100   -686.78705    34.392478   -652.39458    1043.4188   -1199.2689    9.6849164   0.17743737 
   37200   -685.45547     35.99895   -649.45652    1092.1569    9962.8518    9.7757273   0.17277797 
   37300   -685.17144    34.138402   -651.03303    1035.7105   -4479.7693    9.6199552   0.18886739 
   37400   -687.57563     29.99472   -657.58091    909.99708    991.97653    9.7378686   0.16473898 
   37500   -686.21357    34.445454   -651.76812     1045.026    8238.2783    9.7818739   0.16213672 
   37600   -684.94997    34.955566    -649.9944    1060.5021    -5280.624    9.5981015   0.19512861 
   37700   -683.34004     35.45724    -647.8828    1075.7221    -5602.991    9.5744842   0.19663887 
   37800   -682.91164     40.01574    -642.8959    1214.0205    3582.7302    9.6617545   0.19252982 
   37900   -688.72445    38.666591   -650.05786    1173.0893    2060.1944    9.7458604   0.16860701 
   38000    -687.8098    37.038186   -650.77162    1123.6858    1196.9647    9.7207137   0.16820174 
   38100   -684.26868    34.034877    -650.2338    1032.5697   -3161.1536    9.6145686   0.21436229 
   38200   -680.24072    36.291474   -643.94924    1101.0316    410.90624    9.5766137   0.21057745 
   38300   -686.82077    37.940203   -648.88056    1151.0517    2908.5318    9.7136853   0.17284241 
   38400   -687.83612    36.452917    -651.3832    1105.9296   -498.12667    9.7084913   0.16300552 
   38500   -685.29897    37.331517   -647.96746     1132.585   -6566.2748    9.5954609   0.18791306 
   38600   -681.64214    37.609569   -644.03257    1141.0207   -2072.9882    9.5885553   0.20254826 
   38700    -688.6259    38.688299    -649.9376    1173.7479    14598.123     9.873497    0.1445465 
   38800   -687.64311    36.820194   -650.82292    1117.0722   -3882.9883    9.6720415   0.15481157 
   38900   -685.80523    34.874841   -650.93038     1058.053   -3859.5375     9.635023   0.17522473 
   39000   -683.91575    39.900981   -644.01477    1210.5389   -4593.6622    9.5892383    0.2137474 
   39100    -686.4271    37.155155   -649.27195    1127.2345    1736.8165    9.6995378   0.18365514 
   39200   -684.61624    32.195099   -652.42114    976.75343    2244.2075    9.6891035   0.18436734 
   39300   -686.34682    38.382074   -647.96475    1164.4574   -4128.3998    9.6314009    0.1763417 
   39400   -685.05687    37.397884   -647.65899    1134.5985   -2094.5282    9.6485039   0.21455157 
   39500   -688.51121     35.54303   -652.96818    1078.3249    2409.7454    9.7526269   0.16126566 
   39600   -684.35118     35.54916   -648.80202    1078.5108    4527.3013     9.702124   0.16657495 
   39700   -684.30625    36.361053    -647.9452    1103.1425   -7578.9439    9.5673211   0.19491325 
   39800   -689.85364    35.488057   -654.36559    1076.6571    1391.2948    9.7559866   0.15367927 
   39900   -687.45874    37.087131   -650.37161    1125.1707   -721.00749    9.7005508   0.17420723 
   40000     -685.038    37.293758   -647.74424    1131.4395   -3937.6081    9.6183523   0.18992396 
   40100   -688.61659    34.759556   -653.85703    1054.5554    8435.9965    9.8195848   0.15149677 
   40200   -688.60934    37.206087   -651.40325    1128.7797   -14146.956    9.5652895   0.16919796 
   40300   -685.97718    37.579949   -648.39723    1140.1221    4850.4305    9.7382505   0.18012834 
   40400   -686.99567    34.436985   -652.55868    1044.7691    6453.3596    9.7749276   0.17451767 
   40500   -684.48721    33.675426   -650.81179    1021.6644    464.28211    9.6701059   0.19563376 
   40600   -684.57826    38.915632   -645.66263    1180.6448   -6599.5928    9.5760881    0.1956945 
   40700   -685.58503    35.172348   -650.41268    1067.0789   -361.66802    9.6781114   0.17602879 
   40800   -687.33837    36.098538   -651.23983    1095.1782    3840.6668    9.7560467   0.15354187 
   40900   -681.61846    36.115676   -645.50278    1095.6981   -9801.9944    9.5040606   0.22140009 
   41000   -684.16997    37.233017   -646.93695    1129.5967   -7211.1708    9.5756818   0.21230214 
   41100   -686.88603    36.149637   -650.73639    1096.7285    6208.6127    9.7570268   0.17886482 
   41200   -686.51339    36.420029   -650.09336    1104.9318    5175.9303    9.7441385   0.16888249 
   41300   -683.77517    38.204915   -645.57026    1159.0827   -7352.0513    9.5512767   0.20579701 
   41400   -681.15394    37.089423   -644.06452    1125.2403    782.59534    9.6015833   0.22045523 
   41500   -685.15121    35.598958   -649.55225    1080.0217    1764.0799    9.6933832   0.17542467 
   41600    -687.5708    35.846533   -651.72427    1087.5328   -1963.6773    9.6840097   0.17479695 
   41700   -687.19559    37.860175   -649.33541    1148.6238    4816.4578    9.7538128     0.178915 
   41800   -682.46374    38.582092   -643.88165    1170.5257    -7631.494    9.5315389   0.20705613 
   41900   -684.66007    34.975075   -649.68499    1061.0939   -1811.9594       9.6494   0.19917315 
   42000   -687.60092    36.878206   -650.72271    1118.8322     6597.928    9.7714565   0.17009784 
   42100   -682.57021    35.726441   -646.84377    1083.8893   -12095.837    9.4940409   0.20885021 
   42200   -683.45311    37.495924   -645.95719    1137.5729    2689.3009    9.6631709   0.20381828 
   42300    -687.0866    35.338237   -651.74836    1072.1117   -1174.3458    9.6924628   0.18564978 
   42400   -685.15659    34.369743   -650.78684     1042.729   -3860.9624    9.6242306   0.18457863 
   42500   -683.51401    38.026362   -645.48765    1153.6657   -753.23444    9.6317779   0.19146963 
   42600   -684.50096    36.163186   -648.33777    1097.1395   -215.00953    9.6568398   0.20039723 
   42700   -683.45162    32.334112   -651.11751     980.9709   -842.01307    9.6412002    0.1863345 
   42800   -688.53071    38.141585   -650.38912    1157.1613    2160.9239    9.7409223   0.14249421 
   42900   -683.95891    37.133028   -646.82589    1126.5632    5646.0352    9.7006799   0.17844305 
   43000   -679.34403    38.648057   -640.69598     1172.527   -2743.4381    9.5321484    0.2434558 
   43100   -682.40356    34.387678   -648.01588    1043.2732    6221.1309    9.6760837   0.18107499 
   43200   -686.46208    36.102157   -650.35993     1095.288   -4194.5777      9.64331   0.17602187 
   43300    -686.7885    35.536918   -651.25158    1078.1394    3031.4355    9.7304916   0.16730406 
   43400   -683.57068    39.345206   -644.22547    1193.6775    2537.7706    9.6604487   0.20579047 
   43500   -684.28092    35.974851   -648.30607    1091.4257    1563.4702    9.6685268   0.19860106 
   43600   -686.59235    34.827489   -651.76486    1056.6164    7305.5859    9.7766057   0.15938295 
   43700   -687.40185    37.823854     -649.578    1147.5218   -2704.7238    9.6694449   0.15940737 
   43800   -682.54684    38.379003   -644.16784    1164.3643    238.80809    9.6124445   0.20586639 
   43900   -685.37115     35.16691   -650.20424     1066.914    3996.3658    9.7107735    0.1796156 
   44000   -687.78342    37.603616   -650.17981    1140.8401    8561.4215    9.8023792   0.14999968 
   44100   -683.92368    37.352468   -646.57121    1133.2207    -11424.86    9.5188543   0.22505795 
   44200   -685.73245    40.931346   -644.80111    1241.7987   -7604.3337    9.5793273   0.18439199 
   44300   -691.49135    41.643106   -649.84825    1263.3925    1532.3177    9.7707113   0.14299949 
   44400   -687.59465    36.827656     -650.767    1117.2986     912.5238    9.7272705   0.17573725 
   44500   -686.10185    36.686777   -649.41507    1113.0246   -8239.5169    9.6011736   0.20979204 
   44600   -682.86794     39.81069   -643.05725    1207.7996     6427.078    9.6766624   0.21606675 
   44700   -687.91332    37.868416   -650.04491    1148.8738   -682.27896    9.7016598   0.16178026 
   44800   -689.14001    38.302418   -650.83759    1162.0408   -2311.5441    9.7072412   0.15271376 
   44900   -686.75781    37.910145   -648.84766    1150.1398    2017.0512    9.7036114    0.1511365 
   45000    -683.4414    40.835467   -642.60594    1238.8899    2634.1116    9.6489345   0.17953903 
   45100   -685.23191    35.615007   -649.61691    1080.5086   -5717.4561    9.6070928   0.20163273 
   45200   -684.50367    33.881947   -650.62173      1027.93    914.36799    9.6767771   0.19729326 
   45300   -684.60823    35.615542   -648.99268    1080.5248    8462.8024    9.7560534   0.16169329 
   45400   -689.41648    33.583098   -655.83338    1018.8633     1664.427    9.7628225   0.14749347 
   45500   -690.42262    37.337241   -653.08538    1132.7587    -1658.371    9.7359232    0.1452475 
   45600   -685.61315    36.152361   -649.46078    1096.8111    3190.2178    9.7058916   0.17156309 
   45700   -687.61382    36.870651   -650.74316     1118.603   -8300.7203    9.6214492   0.15969692 
   45800    -689.4685    33.224778   -656.24372    1007.9924    3492.1998    9.7892909   0.13046893 
   45900   -687.37135    36.614857    -650.7565    1110.8426    4011.5027    9.7512882   0.14512481 
   46000   -686.45934    37.282833   -649.17651     1131.108   -8463.4691     9.592958   0.16988325 
   46100   -688.91904    34.868743    -654.0503     1057.868    1719.9318    9.7511574   0.13703023 
   46200   -688.96938    36.061924   -652.90746    1094.0674    12601.499    9.8723504    0.1494185 
   46300   -684.26766    36.042248   -648.22541    1093.4704   -4965.3136    9.5880961   0.19372633 
   46400   -687.49121    36.811828   -650.67938    1116.8184    118.77581    9.6958434   0.16805233 
   46500   -689.50759    36.272754   -653.23484    1100.4637    3390.4985    9.7785616   0.15948604 
   46600   -680.46581    33.960959   -646.50485    1030.3271    -2275.638    9.5768745    0.2187428 
   46700   -685.59576    35.717164   -649.87859    1083.6079   -513.77211    9.6844075   0.18952359 
   46800   -686.72313    34.864631    -651.8585    1057.7432    2648.4361    9.7330951   0.17397033 
   46900    -686.0808    38.793205   -647.28759    1176.9306    -4090.148      9.63339   0.16682853 
   47000   -685.62198    39.734444   -645.88754    1205.4864     4076.312    9.7052828   0.19792234 
   47100   -687.37558    33.932897   -653.44268    1029.4758    821.24999    9.7175778   0.18510572 
   47200   -684.08471    33.779143   -650.30557    1024.8111   -6686.8391    9.5744888   0.20731923 
   47300   -684.86237    37.189837   -647.67253    1128.2867    1408.7441    9.6757134   0.18441636 
   47400   -689.29609    36.246506   -653.04959    1099.6673    2849.8406    9.7706724   0.16796564 
   47500   -688.13422    34.845635   -653.28858    1057.1669   -3081.6334    9.6795857    0.1641325 
   47600   -683.94802    36.202211   -647.74581    1098.3235    -2771.826    9.6051668   0.19399444 
   47700   -685.62583    35.484678   -650.14116    1076.5546    1062.2824    9.6823193   0.16847419 
   47800   -689.29431    35.291067   -654.00324    1070.6807   -3909.2377    9.7041037   0.14596942 
   47900   -683.75078    35.537741   -648.21304    1078.1644   -3196.9019    9.6157806   0.18626337 
   48000   -685.10474    35.748954   -649.35578    1084.5723     718.8223    9.6688837   0.15640758 
   48100   -689.15892    35.615191   -653.54373    1080.5141    3395.6324    9.7646029   0.14150709 
   48200   -684.06748    35.929271   -648.13821    1090.0429    -98.64274    9.6387811   0.16714967 
   48300   -684.81984    36.761575   -648.05826    1115.2938   -2038.0925    9.6360502   0.18063259 
   48400   -686.72387    33.059502   -653.66436    1002.9782    8228.3291     9.789273   0.15638457 
   48500   -684.98544    35.674593   -649.31084    1082.3163   -1828.4821    9.6492007   0.17485695 
   48600   -682.30363    34.864225    -647.4394    1057.7309    1556.5473    9.6334437   0.19300575 
   48700   -687.60185    33.904774   -653.69708    1028.6225    1677.2813    9.7360616   0.17306096 
   48800   -686.10113    36.242149   -649.85898    1099.5352    1538.0975    9.7140359   0.17676441 
   48900   -685.03149    38.387768   -646.64372    1164.6302     2257.817    9.6824143   0.18770145 
   49000   -688.00834    34.795812   -653.21253    1055.6554    337.21528    9.7287287   0.16474298 
   49100   -687.62641    34.554495   -653.07192    1048.3341    4595.9272    9.7644327   0.16574216 
   49200   -685.99255    38.517638   -647.47491    1168.5702   -127.44198    9.6762854   0.20345236 
   49300   -687.36276     39.06845   -648.29431    1185.2811   -5899.8015    9.6393918   0.18923832 
   49400   -688.59326    34.811806   -653.78145    1056.1406    6060.5891     9.784442   0.15114563 
   49500   -683.93056    34.523269   -649.40729    1047.3868   -8104.1898    9.5479245   0.20685922 
   49600   -685.21373    38.989187   -646.22454    1182.8764   -8203.2709    9.5806798   0.19938632 
   49700    -688.6093    37.091617   -651.51768    1125.3068    6266.9247     9.786188   0.17097007 
   49800   -684.80745    34.151342   -650.65611    1036.1031   -277.08285    9.6612009   0.17841116 
   49900   -681.47902    35.194486   -646.28454    1067.7506   -6459.9345    9.5358739   0.23141982 
   50000   -685.88476    36.002667   -649.88209    1092.2696    16512.957    9.8740597   0.16685104 
   50100    -688.8925    36.380118   -652.51238     1103.721   -443.13799    9.7251344   0.14096498 
   50200   -685.65651    34.933379   -650.72313    1059.8289   -5003.7142    9.6276508    0.1608774 
   50300   -685.62289    37.268699   -648.35419    1130.6792    5113.6228    9.7267874   0.17147792 
   50400   -682.56393    41.190234    -641.3737     1249.653   -7076.0248    9.5253231   0.22525928 
   50500    -685.3332    37.888306   -647.44489    1149.4772   -7382.6567    9.5892209   0.19598067 
   50600   -684.77214     34.97692   -649.79522    1061.1499    4247.2379    9.7051745   0.20211471 
   50700   -684.23118    33.307872   -650.92331    1010.5134    467.72458    9.6655319   0.18790882 
   50800   -685.98719    36.149313   -649.83788    1096.7186     8109.084    9.7743031   0.18555907 
   50900   -681.70298    38.518855   -643.18412    1168.6072   -5174.2124     9.548831   0.22640915 
   51000    -683.4296    35.482097    -647.9475    1076.4763   -1546.5919    9.6231763   0.20134721 
   51100   -687.56572    36.188397   -651.37733    1097.9044    2684.4026    9.7398969   0.15724024 
   51200   -687.17966    37.643609   -649.53605    1142.0535    7793.4969    9.7890122   0.15327472 
   51300   -681.71833    37.903376   -643.81496    1149.9344   -16510.254    9.4279163   0.21906152 
   51400    -685.0363    34.589257   -650.44704    1049.3888    7056.6024    9.7354974   0.17934632 
   51500   -684.14119     34.56452   -649.57667    1048.6383    2549.5997    9.6868205   0.18564598 
   51600   -686.70516    34.622194   -652.08297     1050.388   -6301.3399    9.6256543   0.18868068 
   51700   -690.94037    34.237256   -656.70311    1038.7096   -2590.6942    9.7326445   0.16738122 
   51800   -687.09018     37.02734   -650.06284    1123.3568    1468.1251    9.7099598   0.18843319 
   51900   -682.60982    33.314794   -649.29503    1010.7234    1174.3153    9.6410466   0.19100838 
   52000   -691.25988    37.602204   -653.65768    1140.7973   -6200.0916    9.7004764   0.14699539 
   52100   -689.46085    34.777558   -654.68329    1055.1016    6703.0137    9.8122677   0.14662154 
   52200   -685.29271     36.49521    -648.7975    1107.2127    765.91838    9.6738321   0.19953925 
   52300   -684.10515    35.203174   -648.90198    1068.0141   -3568.7855    9.6117739   0.19677796 
   52400   -687.91227    33.811202   -654.10107    1025.7837    3933.2531    9.7499887     0.153848 
   52500    -689.0912    37.852165   -651.23904    1148.3807     4570.846    9.7641767    0.1625795 
   52600   -684.24464    36.501905   -647.74273    1107.4158    -7647.779    9.5717164   0.19593211 
   52700   -685.32485     33.81966   -651.50518    1026.0403    4295.2957    9.7252162   0.14793873 
   52800   -689.76818    35.282019   -654.48616    1070.4062    11710.384    9.8725193   0.13437212 
   52900   -684.61073    36.085979   -648.52476    1094.7972    -7473.045    9.5670554   0.20512402 
   53000   -684.49519    35.423452   -649.07174    1074.6971   -2663.9461    9.6237768   0.19883945 
   53100   -688.06652    34.300107   -653.76641    1040.6164   -1689.4433    9.6986518   0.18252446 
   53200   -682.47064     33.95366   -648.51698    1030.1057   -756.50297     9.619158   0.19897485 
   53300    -686.8291    39.472757   -647.35634    1197.5472    2620.6448    9.7090156   0.17598752 
   53400   -688.18573    35.285566   -652.90016    1070.5138   -1878.8008    9.7011122   0.17126254 
   53500   -687.08407    35.850952   -651.23311    1087.6668     -4996.14     9.643398   0.18018172 
   53600   -684.90598    39.498325   -645.40765    1198.3229   -2226.8887    9.6315095   0.18589964 
   53700   -687.69036      36.6025   -651.08786    1110.4677    2662.0859    9.7424257   0.17413023 
   53800   -688.63325    36.276821   -652.35643     1100.587   -7184.9426    9.6588223   0.17967226 
   53900    -684.1432    37.851786   -646.29142    1148.3692   -6529.1723    9.5771904   0.20816091 
   54000   -684.39672    36.440058   -647.95666    1105.5394   -2335.5265     9.625986   0.21070951 
   54100   -686.69558    34.908165   -651.78742     1059.064   -4030.5271    9.6461639   0.20532841 
   54200   -686.04687    35.877257   -650.16962    1088.4649   -1350.0919    9.6639257    0.1939082 
   54300   -681.45366    37.657484   -643.79618    1142.4744    2857.4589    9.6315669   0.20602444 
   54400   -684.48081    37.998863   -646.48195    1152.8314   -8928.9503     9.559794   0.19333075 
   54500    -686.7589    36.310225   -650.44867    1101.6005   -528.61513    9.6929672   0.18096817 
   54600   -686.97729    36.223967   -650.75332    1098.9836    3958.5122    9.7294246   0.16597091 
   54700   -680.83942    35.615029   -645.22439    1080.5093     1655.779    9.6008223   0.19863664 
   54800   -683.79053    36.920524   -646.87001    1120.1161   -3632.1851    9.6057893   0.20168895 
   54900   -687.18639    35.539165   -651.64723    1078.2076     2381.337     9.728324    0.1588146 
   55000   -686.91161    34.844905    -652.0667    1057.1448   -5120.2362    9.6348609   0.17604861 
   55100   -682.25828    37.207894   -645.05039    1128.8345   -1791.7002    9.5871746   0.21450623 
   55200   -687.54479    39.141888    -648.4029    1187.5091    5494.7438    9.7620113   0.17631249 
   55300   -687.09375     34.83984   -652.25391    1056.9911   -4555.2389    9.6607953   0.18121876 
   55400   -684.68023    34.636448   -650.04379    1050.8205   -32.966745    9.6815062   0.18811439 
   55500   -684.83585    39.018611   -645.81723    1183.7691   -3077.2764     9.630686   0.19890651 
   55600   -687.55306    36.335582   -651.21748    1102.3698   -2473.4538    9.6622716   0.16927359 
   55700   -690.16953    37.759182   -652.41035    1145.5598   -4221.5112     9.697876    0.1448598 
   55800   -685.96705    35.672632   -650.29442    1082.2568   -1783.7015    9.6553975   0.16853467 
   55900   -684.11814    38.397527   -645.72061    1164.9262   -1979.7225    9.6254635   0.17646508 
   56000   -684.85388    34.957123   -649.89676    1060.5493    6664.8975    9.7359514    0.1708917 
   56100   -687.99914    35.536119   -652.46302    1078.1152    153.25183    9.7187805   0.16411758 
   56200   -684.19135    35.606576   -648.58478    1080.2528    3815.5791    9.6981133   0.17158029 
   56300   -684.96933     38.23236   -646.73697    1159.9153   -8782.6032    9.5637413   0.19160051 
   56400   -686.73119    34.709703   -652.02149    1053.0429    5452.5825    9.7539383   0.16935896 
   56500   -685.42328    34.248092   -651.17519    1039.0383    1446.3154    9.6878076    0.1829506 
   56600   -683.61706    38.674218   -644.94285    1173.3207   -5991.2907    9.5696743   0.21109063 
   56700   -686.75439    36.206578   -650.54781     1098.456    1434.9251    9.7142602   0.16844241 
   56800   -688.27134    36.259727   -652.01161    1100.0685    3692.3982    9.7568978   0.15058228 
   56900   -684.72586    37.232797   -647.49306      1129.59    4080.7809    9.6926955    0.1714203 
   57000   -684.68348    35.968756   -648.71473    1091.2408   -8214.9772    9.5802892   0.18989506 
   57100   -689.88162    37.480618     -652.401    1137.1086    12702.709    9.8843013   0.13362851 
   57200   -687.70086    39.038166   -648.66269    1184.3623    1376.1558    9.7232915   0.16134198 
   57300   -685.37761    36.394846   -648.98276    1104.1678   -2159.9676    9.6450595   0.19798029 
   57400   -688.46488    32.952118   -655.51276    999.72031   -2246.9018    9.7112482   0.15774516 
   57500   -686.87173    34.879263   -651.99247    1058.1872    598.78427    9.7055933   0.17280967 
   57600   -685.07782    36.331582   -648.74623    1102.2484    2413.3218    9.7091199   0.18643606 
   57700   -688.28455    38.147366   -650.13718    1157.3367     8252.522    9.7993221   0.15295999 
   57800   -689.24748    32.873752   -656.37373    997.34279   -4800.6958    9.6825183   0.16486856 
   57900   -685.53209    34.483845   -651.04825    1046.1907   -1729.3114    9.6668953   0.18109572 
   58000   -685.30943    36.428353   -648.88108    1105.1843    1120.3056    9.6684915   0.19142522 
   58100   -686.05891    33.965793   -652.09312    1030.4738   -4788.9475      9.64374   0.20078011 
   58200   -689.42207    34.301823   -655.12025    1040.6684    -712.7762      9.73804   0.15985897 
   58300   -685.77547    37.596394   -648.17908     1140.621    3274.5962    9.7111412   0.16547879 
   58400   -686.21508    36.215671   -649.99941    1098.7319     2553.894    9.7133313   0.17456423 
   58500   -686.86548    32.651591   -654.21389    990.60276    987.28991    9.7196835   0.16665732 
   58600   -690.25469    35.574318   -654.68038    1079.2741   -1116.3848    9.7406807   0.15797238 
   58700   -688.60619    39.790986   -648.81521    1207.2018   -1184.0607    9.7064124   0.17316252 
   58800   -685.55643    35.575948   -649.98048    1079.3236   -2158.1804    9.6451583   0.20806223 
   58900   -688.54501    36.653138   -651.89187     1112.004    -3222.964    9.6856525   0.17504953 
   59000   -693.06279    35.059573   -658.00322    1063.6575   -1953.2469    9.7858618   0.14416114 
   59100   -687.95293     35.55817   -652.39476    1078.7842   -3642.7227    9.6680077   0.18160525 
   59200   -683.91646    33.894936   -650.02152    1028.3241    2481.5622    9.6800878   0.16947327 
   59300    -688.4602    35.692481   -652.76772     1082.859    2417.2027    9.7565077   0.15646631 
   59400   -689.53795    34.828217   -654.70973    1056.6385    1756.5693    9.7710612   0.16089735 
   59500    -686.0915     38.10029   -647.99121    1155.9085    368.45321    9.6848627   0.17569381 
   59600   -687.69375    37.253712   -650.44004    1130.2245   -1113.5087    9.6924676   0.17225433 
   59700   -685.86946     32.24253   -653.62693    978.19241   -584.08909    9.6795623   0.18023118 
   59800    -684.0849    33.621585   -650.46331     1020.031   -1563.5473    9.6319864   0.17437247 
   59900   -682.84561    35.525427   -647.32018    1077.7908    3727.3635     9.675316   0.21946013 
   60000   -685.73686    35.745262    -649.9916    1084.4603   -4157.9185    9.6300904    0.1934645 
   60100   -686.98849    33.599025   -653.38946    1019.3466    1988.5632    9.7247009   0.17422407 
   60200   -683.89074    34.580255   -649.31049    1049.1157   -1748.9093    9.6375168   0.18816639 
   60300   -684.23916    36.510463    -647.7287    1107.6754     -4768.15    9.5979362   0.20560247 
   60400   -685.76271    34.044456   -651.71825    1032.8603    2789.2037    9.7091563   0.17832723 
   60500   -686.24188    33.555098   -652.68679    1018.0139    847.91015    9.7013075   0.18058976 
   60600   -684.81351    39.467094   -645.34641    1197.3754   -9939.4356    9.5343832   0.20159242 
   60700   -684.92256    35.662637   -649.25992    1081.9536    7504.0194    9.7400304   0.16949796 
   60800   -688.35768    36.403461   -651.95422    1104.4292    15.038623     9.728078   0.19018544 
   60900   -683.54892    36.217586   -647.33134    1098.7899   -4684.8427    9.5786582   0.21928931 
   61000    -684.5388    36.816727   -647.72208    1116.9671    5252.1997    9.7072215   0.17885516 
   61100   -687.35907    34.784616   -652.57446    1055.3157    1374.1947    9.7174588   0.17897867 
   61200   -686.24285     36.80877   -649.43408    1116.7256   -22.787339    9.7005626   0.16980556 
   61300   -684.94706     38.41625   -646.53081    1165.4943    522.64991    9.6589573   0.16652616 
   61400   -686.46822    32.503422   -653.96479    986.10752   -224.45521    9.6893442   0.17181755 
   61500   -688.32913    35.759267   -652.56987    1084.8852   -4775.8468    9.6684123   0.16241615 
   61600   -689.04384    39.404963   -649.63887    1195.4904     4627.882    9.7827333   0.15762518 
   61700   -684.93303    34.821841   -650.11119     1056.445   -3390.3656    9.6253069   0.19970957 
   61800   -688.30065    33.223157   -655.07749    1007.9433   -1294.9594    9.7083309   0.18297413 
   61900   -689.52297    34.422671    -655.1003    1044.3348     8540.867    9.8322082   0.16599345 
   62000   -684.47669    33.115019   -651.36167    1004.6625    1069.3241    9.6801414    0.1954791 
   62100   -686.20037    37.375235   -648.82514    1133.9114   -6493.0042    9.6155778   0.18875364 
   62200    -687.6903    35.406297     -652.284    1074.1766   -1661.0675    9.6941223   0.16806669 
   62300   -689.86672     35.39772     -654.469    1073.9164    3546.8224    9.7895112   0.15161612 
   62400   -687.18806    37.768526   -649.41954    1145.8433   -2401.2486     9.667902   0.17785618 
   62500   -685.72224    35.799979   -649.92226    1086.1204   -585.95089    9.6736627   0.17956714 
   62600   -688.32511    32.247716   -656.07739    978.34976   -267.81036    9.7328679    0.1721874 
   62700   -685.62462    35.158251   -650.46636    1066.6512    -5444.621    9.5996582   0.18488314 
   62800   -685.68729    36.830348   -648.85694    1117.3803    5881.5153    9.7362994   0.16417853 
   62900   -691.43356    37.746906   -653.68665    1145.1873    1015.0783    9.7848989   0.14743047 
   63000   -684.67137    31.287717   -653.38365    949.22477   -6950.3382    9.5856467   0.20294685 
   63100   -686.02279    37.482992   -648.53979    1137.1806    3028.1111    9.7126483   0.17943007 
   63200   -685.58895    35.213591   -650.37536    1068.3302    4896.5596    9.7280225   0.18213248 
   63300   -688.19821     33.37065   -654.82756     1012.418    -12701.52    9.5917245   0.16542433 
   63400   -691.75786    35.411077   -656.34678    1074.3216    7314.7467    9.8575211   0.13255907 
   63500   -686.26874    36.217937   -650.05081    1098.8006   -694.36891    9.6789302   0.16997678 
   63600    -686.6173    35.767784   -650.84952    1085.1436   -3251.8552    9.6618531   0.14797173 
   63700   -690.76095    37.300932   -653.46002    1131.6571    2226.7767    9.7820871   0.14356823 
   63800   -688.97327    40.573095   -648.40018    1230.9299   -1451.1601    9.7098383   0.16641323 
   63900   -684.45457    36.171517   -648.28306    1097.3923   -3869.9562     9.610095    0.1913972 
   64000   -685.25086    33.718219   -651.53264    1022.9627    496.21576    9.6693642   0.20502728 
   64100   -684.64927     34.18387    -650.4654    1037.0899    2827.3435    9.6966143    0.1814825 
   64200   -681.68072    38.584017    -643.0967    1170.5841   -3248.1453    9.5562525   0.21240447 
   64300   -687.41921    38.773619   -648.64559    1176.3364    3783.0582    9.7354949   0.17580969 
   64400   -687.74479    35.933616   -651.81118    1090.1747    -51.97098    9.7138602   0.17530976 
   64500   -684.66644    36.027317   -648.63913    1093.0175    -7276.137    9.5884258    0.1817827 
   64600   -681.21946     38.67102   -642.54844    1173.2237    10502.983    9.6994409   0.19077258 
   64700   -684.57715    37.307249    -647.2699    1131.8488   -1709.8571    9.6367623   0.18047644 
   64800   -687.43177    37.349859   -650.08191    1133.1415   -3238.3188    9.6655216   0.15857267 
   64900   -687.48065    35.712115   -651.76853    1083.4547    7188.2619    9.7842698   0.14433992 
   65000   -688.17624    34.749146    -653.4271    1054.2396   -461.40651    9.7118193   0.15622268 
   65100   -681.69911    36.035332   -645.66378    1093.2606   -6863.5879    9.5322004    0.2225298 
   65200   -685.47302    37.019533   -648.45348    1123.1199    11024.648    9.7942643   0.16540477 
   65300   -688.70774    37.919548    -650.7882    1150.4251   -2966.4228    9.6987795   0.16751795 
   65400   -684.19355    36.380043   -647.81351    1103.7187   -4972.3876    9.5965742   0.17614039 
   65500   -681.75572    38.358322    -643.3974    1163.7368    -1024.906    9.5863448    0.1954028 
   65600   -687.02983    36.042953   -650.98688    1093.4918     4057.233    9.7459954   0.14849109 
   65700   -685.54997    34.629942   -650.92003    1050.6231   -3912.8423    9.6370937   0.19632952 
   65800   -689.64313    40.166836   -649.47629    1218.6046   -8789.2033    9.6395328   0.17744899 
   65900    -691.3239    38.913931   -652.40997    1180.5932     5809.904    9.8272688   0.13877025 
   66000    -691.6252    33.662542   -657.96266    1021.2736    -4031.174    9.7385263   0.14748182 
   66100   -684.47079    33.136765   -651.33403    1005.3222   -779.78933     9.657525   0.17885718 
   66200   -686.56717    35.804169     -650.763    1086.2475    7123.6789    9.7703418    0.1674875 
   66300   -685.31281    34.091295   -651.22151    1034.2813   -2161.1804    9.6548472    0.1849255 
   66400   -680.29619    36.353168   -643.94302    1102.9033   -5724.9406    9.5176781   0.22564417 
   66500   -688.48706    39.715904   -648.77116     1204.924    7721.0038    9.8004624   0.15496257 
   66600   -689.66185    37.372921   -652.28893    1133.8412    -1560.325    9.7244491   0.14996928 
   66700   -684.92725    35.366173   -649.56108    1072.9593   -3690.3552    9.6214288   0.18784817 
   66800   -683.84086    37.627075   -646.21378    1141.5518   -2114.1865    9.6180698   0.19076933 
   66900   -690.28118    38.043184     -652.238     1154.176    402.31602    9.7468298   0.14083325 
   67000   -690.66562    39.058202   -651.60741    1184.9702   -6391.6828    9.6866553   0.16255888 
   67100   -684.01648    36.745109   -647.27137    1114.7943    499.07945    9.6450624   0.18157691 
   67200   -687.14291    34.163636   -652.97927     1036.476    1162.4083    9.7155287    0.1804171 
   67300   -685.95588    35.120003   -650.83588    1065.4909   -2989.7406    9.6527255   0.18648148 
   67400   -684.93468    36.919455   -648.01523    1120.0837    5205.0458    9.7243197   0.17394066 
   67500   -688.98997    35.394971     -653.595     1073.833    -3928.607    9.6970194   0.16122032 
   67600    -685.6554    33.020477   -652.63492    1001.7942    2941.2966    9.7189448   0.16781228 
   67700   -685.85448     38.31329   -647.54119    1162.3706     514.5202    9.6765607   0.16958153 
   67800   -689.43984    37.488578   -651.95126      1137.35    3526.9209    9.7710005   0.13792722 
   67900   -688.78542    35.140893   -653.64453    1066.1246   -5724.0516    9.6636589   0.15045422 
   68000   -682.87879    35.215582   -647.66321    1068.3906   -675.83868    9.6241357   0.18561484 
   68100   -687.07511    36.438344   -650.63676    1105.4875    6736.3747    9.7741956   0.15237869 
   68200   -688.74673    34.778636    -653.9681    1055.1343   -1510.4597    9.7144253    0.1703748 
   68300   -682.26449    34.384769   -647.87972    1043.1849   -3023.1653     9.575964   0.21638896 
   68400   -685.10838    35.445413   -649.66297    1075.3633   -1735.8399    9.6431345   0.21183871 
   68500   -688.47906    35.931998   -652.54706    1090.1256    3538.7969    9.7602653   0.16436625 
   68600   -683.85925    37.372989   -646.48627    1133.8432    -582.0687    9.6314302    0.1890678 
   68700   -684.06307    36.982211   -647.08086    1121.9876   -3974.7361    9.6043562   0.18067278 
   68800    -686.3442    35.193021   -651.15118    1067.7061    4991.0216    9.7268788   0.17628521 
   68900   -685.50747    34.697845   -650.80962    1052.6832   -4354.9548    9.6338469   0.18185536 
   69000   -681.73079    39.145469   -642.58532    1187.6178   -1594.9166    9.5848465   0.21922281 
   69100   -684.28307     38.00836   -646.27471    1153.1195    7200.0707    9.7193598   0.19335802 
   69200   -686.04781      35.4486   -650.59921      1075.46   -2381.5793    9.6511028    0.1955495 
   69300   -687.43342    36.871032   -650.56239    1118.6146   -3786.2375    9.6563498   0.16512437 
   69400   -683.92056    38.262685   -645.65787    1160.8353    11073.283    9.7545563   0.15789199 
   69500   -681.55145    38.048518   -643.50293    1154.3378   -6314.6916    9.5202088   0.21317957 
   69600    -684.3582    33.588312   -650.76989    1019.0215   -1360.4444    9.6400799   0.17702155 
   69700   -684.39001    33.640528   -650.74948    1020.6057     6937.026     9.735757   0.17496273 
   69800   -685.31915     36.59998   -648.71917    1110.3912   -3173.8124    9.6516406   0.17247872 
   69900   -681.55678    39.044104   -642.51268    1184.5425    1813.8842    9.6107168   0.19347697 
   70000   -685.60386     35.61925   -649.98461    1080.6373   -1915.0883    9.6518235   0.17468828 
   70100   -686.53242    35.713937   -650.81848      1083.51    908.38958     9.692257   0.16571528 
   70200   -685.37814    34.936274   -650.44187    1059.9168    3044.7983    9.7136897   0.16944302 
   70300   -680.53237    37.258284   -643.27409    1130.3632   -5804.9132    9.5058207   0.24119947 
   70400   -683.75441    36.412729   -647.34168    1104.7103    3966.8481    9.6862411   0.18869949 
   70500   -686.54258    36.087182    -650.4554    1094.8337    7265.4553    9.7797687   0.17721558 
   70600     -687.709    37.433859   -650.27514    1135.6899   -10274.716    9.5947021   0.19853233 
   70700   -682.02137    36.933959   -645.08741    1120.5237   -9300.3196    9.5009255   0.23598929 
   70800   -686.65171    37.529283   -649.12242     1138.585    6449.6558    9.7654667   0.16571413 
   70900    -687.5045    35.052327   -652.45217    1063.4376    669.77357    9.7223324   0.17293302 
   71000   -684.02795     34.30595     -649.722    1040.7936   -714.60807    9.6454582   0.16806046 
   71100    -683.7641    36.014412   -647.74969    1092.6259    5437.3504    9.6967969   0.17550188 
   71200   -680.91245     39.22211   -641.69034    1189.9429   -4615.3282     9.535874   0.23985713 
   71300   -687.31577    37.264777   -650.05099    1130.5602    237.79809    9.7083473   0.16256643 
   71400   -687.21324    36.679038    -650.5342    1112.7897    7117.9574    9.7783689   0.16903786 
   71500   -685.94358    34.690713   -651.25287    1052.4668    1798.8359    9.6962137   0.19940147 
   71600   -683.00747    35.476484   -647.53098     1076.306   -9838.0682    9.5258253   0.21557974 
   71700   -681.07659    36.824222   -644.25237    1117.1944    245.40411    9.6027907   0.18599278 
   71800   -686.45026    35.381891   -651.06836    1073.4361    7066.4995    9.7768638   0.15753673 
   71900   -687.07176    36.044662    -651.0271    1093.5437    -1105.535    9.6808734   0.16284821 
   72000   -685.30344    35.116805   -650.18664    1065.3938    4962.8707    9.7180504   0.18133218 
   72100   -682.32817    37.749125   -644.57904    1145.2547   -5112.7206    9.5743184   0.23755114 
   72200   -688.57259     37.00841   -651.56418    1122.7824   -11133.775    9.6020076    0.1912699 
   72300   -685.06133    34.437732   -650.62359    1044.7917    6641.6451     9.739013   0.16951919 
   72400   -685.60732    36.955544   -648.65178    1121.1785    3815.4559     9.725972   0.16465841 
   72500   -685.27781     34.98475   -650.29306    1061.3875    1797.6334     9.698579   0.19669353 
   72600   -690.47741    34.697231   -655.78018    1052.6645   -5451.4326    9.7007248   0.17056973 
   72700   -688.42085     37.09054   -651.33031    1125.2741   -945.36909     9.701451   0.16368017 
   72800   -686.66312    38.294311   -648.36881    1161.7948    8493.9261    9.7702359   0.14981337 
   72900   -687.20264     34.88548   -652.31716    1058.3758   -4885.6066    9.6623709   0.16373364 
   73000   -687.53796     33.35814   -654.17982    1012.0384   -5617.2334    9.6537321   0.16055472 
   73100    -684.9139     36.10145   -648.81245    1095.2666   -1700.1659    9.6553921   0.17035413 
   73200   -687.48937    36.923833   -650.56554    1120.2165    3654.1125    9.7377435   0.16795329 
   73300   -690.22672    33.961503   -656.26522    1030.3436   -2018.5292    9.7303643   0.16477578 
   73400   -685.33393    34.777816   -650.55611    1055.1094    -9988.449    9.5757653   0.19853817 
   73500   -686.10637    37.098729   -649.00764    1125.5226   -8692.9489    9.5905426   0.19046154 
   73600    -687.9177    35.281511   -652.63618    1070.3908    10819.212    9.8260883   0.16399417 
   73700   -688.01809    32.196628   -655.82147    976.79983   -5126.6187    9.6721345   0.16606597 
   73800   -684.47682    35.626263   -648.85056      1080.85   -1751.9207    9.6492726   0.20009921 
   73900   -687.11891    37.243083   -649.87583    1129.9021    7105.6807    9.7670004   0.16783796 
   74000   -686.90136    34.812971   -652.08839    1056.1759   -3077.4877    9.6725044   0.17100547 
   74100   -686.91375    33.634468   -653.27928    1020.4218    998.53167    9.7253319    0.1642182 
   74200   -683.10254     37.23987   -645.86267    1129.8046    4535.7238    9.6661505   0.18972962 
   74300   -686.59237    37.759077    -648.8333    1145.5566   -7705.1275    9.6055711   0.18618748 
   74400   -687.38851    35.641205    -651.7473    1081.3034   -2360.8652    9.6849919   0.17067169 
   74500    -686.1069    35.426065   -650.68083    1074.7763    10472.435    9.7900942   0.16360822 
   74600    -684.1349    38.541102    -645.5938    1169.2821   -12858.992    9.5175453   0.20150988 
   74700   -687.76324    37.526696   -650.23654    1138.5065    1495.6053    9.7278676   0.17277446 
   74800   -689.18723    36.743991   -652.44324    1114.7603   -978.73224    9.7197503   0.16495819 
   74900   -683.84014    34.811563   -649.02858    1056.1332   -2248.2262    9.6165343   0.18705497 
   75000   -684.15944    38.003485   -646.15596    1152.9716    3511.8724    9.6829523   0.19336422 
   75100   -686.48375    35.355412   -651.12834    1072.6328    1479.2661     9.699511   0.16900551 
   75200   -687.01928    33.954776    -653.0645    1030.1395   -7319.6926     9.632352   0.18094764 
   75300    -681.3226    35.420571   -645.90203    1074.6097    12359.089    9.7459013   0.19762575 
   75400   -684.94825    36.552759   -648.39549    1108.9586    1726.6805     9.680325   0.17483694 
   75500   -687.75651    35.459594   -652.29692    1075.7936   -4689.6723    9.6638273   0.17202234 
   75600   -686.51373    37.749976   -648.76375    1145.2805    4908.7011     9.736824   0.16433624 
   75700   -682.69364    37.539611   -645.15403    1138.8983   -1184.9114    9.6153566   0.19661791 
   75800   -687.55727    36.316673   -651.24059    1101.7961   -6007.6512    9.6385506   0.17293492 
   75900    -687.3009    36.009835   -651.29106    1092.4871    5830.4043    9.7742818   0.14548619 
   76000   -682.66626    37.621598   -645.04466    1141.3857    3076.0502    9.6507323   0.18210483 
   76100   -684.36876    35.442477   -648.92629    1075.2742   -4784.0988    9.6144797   0.20326711 
   76200    -687.9234    36.410774   -651.51262     1104.651    4850.2236    9.7672762   0.16426316 
   76300   -685.64281    35.900941   -649.74187    1089.1834   -1800.7566    9.6555713   0.21331651 
   76400   -680.71685    35.254655   -645.46219     1069.576   -7252.2723    9.5136131   0.23428707 
   76500   -686.66431    36.038433   -650.62588    1093.3547      7698.62    9.7764355   0.16175938 
   76600   -685.18209    34.304728   -650.87737    1040.7566     8688.455    9.7687722   0.17982468 
   76700   -682.61961    36.465551   -646.15406    1106.3129   -7874.9113    9.5330967   0.22356676 
   76800   -684.91819    33.159062   -651.75913    1005.9987     3634.881    9.7010965   0.20472011 
   76900   -687.02455    35.379826   -651.64472    1073.3735   -251.42156    9.6985589   0.17920627 
   77000   -682.81602    35.713729   -647.10229    1083.5036    1198.8971    9.6419954   0.20967156 
   77100   -687.89015    39.436105   -648.45404    1196.4352   -6111.0307    9.6262587   0.18826049 
[...]
  481400   -685.83122    32.592845   -653.23837    988.82049   -6164.4637    9.6162281   0.20195635 
  481500   -685.65528    36.824464   -648.83082    1117.2018   -7059.0196    9.5951133   0.20581416 
  481600   -684.34152    34.531844   -649.80968    1047.6469    8810.9502     9.755495   0.19415969 
  481700   -687.26372    36.711036   -650.55269    1113.7605   -7724.8123    9.6161101   0.18164893 
  481800   -690.83142    33.937273   -656.89415    1029.6085   -286.24001    9.7656051    0.1433885 
  481900   -686.52743    34.785583   -651.74185     1055.345   -3462.9464    9.6606031   0.19256523 
  482000   -683.59004    34.260302   -649.32974    1039.4087   -1628.5312    9.6237157   0.19405013 
  482100   -687.91448    36.357728   -651.55675    1103.0417    4133.5218    9.7529524   0.15855664 
  482200   -689.80596    34.240264   -655.56569    1038.8008    2144.2634    9.7731519   0.15462934 
  482300   -684.36108    35.361726   -648.99935    1072.8244   -8397.0881      9.55818   0.19669077 
  482400   -686.31181     37.05375   -649.25806     1124.158    9586.6877     9.787349   0.16464169 
  482500   -687.59062    34.138573   -653.45204    1035.7157   -3623.9512    9.6717133   0.16507902 
  482600   -690.12937     32.95125   -657.17812    999.69397    425.75352    9.7682101   0.14439789 
  482700   -685.70535    36.141691   -649.56366    1096.4874    2913.6119    9.7105981    0.1757442 
  482800   -685.74275    35.224178   -650.51858    1068.6514   -3985.2536    9.6379332   0.18017793 
  482900   -685.14646    32.897086   -652.24937    998.05073    1501.8974    9.7037603   0.17413377 
  483000   -687.80154    32.987324   -654.81422    1000.7884   -472.20953    9.7132857   0.14981362 
  483100   -682.94624    35.758911   -647.18733    1084.8744    1177.1855    9.6440676   0.19436379 
  483200   -685.96161    38.346009    -647.6156    1163.3633    860.05088    9.6946596   0.16199877 
  483300   -686.31302    36.325975   -649.98704    1102.0783   -2884.7921    9.6653714   0.16482994 
  483400    -687.2248    35.771599    -651.4532    1085.2593    2951.2821    9.7263234   0.16612577 
  483500   -682.30663    37.934712   -644.37191    1150.8851   -1759.3302    9.5989666   0.21635691 
  483600   -684.62806    36.535314   -648.09275    1108.4294     -2075.71    9.6441434   0.19513774 
  483700    -688.3222    36.262092   -652.06011    1100.1402    5862.1776    9.7847586   0.15567413 
  483800   -687.29396    37.287144   -650.00681    1131.2388   -5635.5685    9.6395887   0.18735942 
  483900   -681.09113    35.198112   -645.89302    1067.8606   -5648.8357    9.5481226   0.22557904 
  484000   -686.93644    35.208194   -651.72824    1068.1664    8192.6756     9.786446   0.16345247 
  484100    -686.4413    34.834947   -651.60635    1056.8426   -4092.1734    9.6410848    0.1822746 
  484200   -683.42468    37.494333   -645.93034    1137.5246   -7863.4195    9.5443222   0.19620859 
  484300   -689.03946    38.371432   -650.66803    1164.1346    9775.7308    9.8240947   0.14641445 
  484400   -688.55136    35.558324   -652.99304    1078.7889    1604.9224    9.7380142   0.16652698 
  484500   -684.03518     36.65133   -647.38385    1111.9491   -5885.5609    9.5821058   0.19861213 
  484600   -687.23697    38.061842   -649.17513     1154.742    4542.3845    9.7394156   0.16725138 
  484700   -687.54692    32.928835   -654.61808    999.01393    2839.4512     9.741935   0.17029944 
  484800   -684.90523    35.911074   -648.99415    1089.4908   -5271.1285    9.6119484   0.20383299 
  484900   -683.56284    35.817488   -647.74535    1086.6515     6298.937    9.7112814   0.21067821 
  485000   -686.09126    31.898671   -654.19259    967.76023   -719.33719     9.680061   0.21043868 
  485100   -686.21839    35.241939   -650.97645    1069.1902   -3052.3841    9.6642676    0.2003586 
  485200   -682.47431    36.715764   -645.75854     1113.904     5090.783    9.6752095   0.20723882 
  485300   -685.09103    33.916861   -651.17417    1028.9892    815.94964    9.6701919   0.18390196 
  485400   -689.65901    37.498217    -652.1608    1137.6425   -541.28804    9.7434119   0.16019941 
  485500   -686.98319    39.348664   -647.63453    1193.7824    916.69641    9.7016923   0.17224743 
  485600   -685.06354    37.414046    -647.6495    1135.0888   -2604.9941    9.6233727   0.19170667 
  485700    -686.0383    33.256267   -652.78203    1008.9478   -394.64184    9.6819544   0.15913938 
  485800   -687.52417    37.745065   -649.77911    1145.1315    2972.8327     9.736943   0.15098573 
  485900   -685.41534    40.678086   -644.73725    1234.1152    1335.5765    9.6673678   0.18048022 
  486000   -686.96398    35.509053   -651.45492    1077.2941   -1989.4637    9.6767443   0.17762704 
  486100   -687.31985     35.84078   -651.47907    1087.3582   -751.42067    9.7079588   0.18375783 
  486200   -684.08564    36.315426   -647.77022    1101.7583    4072.3342    9.6963406   0.20320603 
  486300   -683.20093    39.202174   -643.99876    1189.3381    -3620.979    9.5827802   0.19476209 
  486400    -687.2434      35.6908    -651.5526     1082.808    180.77446    9.6959282   0.16768714 
  486500   -685.74003     35.16253    -650.5775    1066.7811   -1446.4979     9.657449   0.19641373 
  486600   -684.97556    38.773543   -646.20201    1176.3341    4090.8781    9.7125473   0.17425493 
  486700   -686.75403    34.141823   -652.61221    1035.8143    3775.4075    9.7413109   0.16600281 
  486800   -687.42969    35.148096   -652.28159    1066.3432   -7746.4877    9.6240864   0.19917311 
  486900   -683.52148    34.675354   -648.84613    1052.0008   -2435.6786    9.6114687   0.21401558 
  487000   -683.62369    36.258068   -647.36562    1100.0181    6328.7821    9.6995225   0.18037267 
  487100   -689.45893    35.025019   -654.43391    1062.6092    7202.6372    9.8180528   0.13681309 
  487200   -687.24827    35.843682   -651.40458    1087.4462   -11352.049    9.5732789   0.17020968 
  487300    -685.5292    37.898746   -647.63045     1149.794    5231.2461    9.7304313   0.17213679 
  487400   -686.05491    34.330757   -651.72415    1041.5463    2372.5244     9.710879   0.18153566 
  487500   -688.66002     34.58841   -654.07161    1049.3631   -6264.2997    9.6494119   0.18285174 
  487600   -684.28155    35.659727   -648.62183    1081.8653     7677.857    9.7457877   0.18469508 
  487700   -686.12725    34.838645   -651.28861    1056.9549   -2163.3787    9.6671303   0.17149741 
  487800   -688.13561    33.908979   -654.22663    1028.7501   -5982.7888    9.6522998   0.15485643 
  487900   -684.39057    37.287792   -647.10278    1131.2585    5973.9914    9.7184446   0.16471212 
  488000   -687.63017    37.654255   -649.97591    1142.3764     2546.608    9.7412711   0.15047676 
  488100   -687.11519    34.516297   -652.59889    1047.1753   -8103.1791    9.6033744   0.18757041 
  488200    -684.3178    36.818867   -647.49893     1117.032   -551.87315    9.6472115   0.16728964 
  488300   -689.22374     37.00362   -652.22012    1122.6371    1729.7953    9.7540759   0.15387991 
  488400   -685.33817    31.995947   -653.34222    970.71145    1349.7126    9.6980844   0.19656883 
  488500   -685.96882    37.318911   -648.64991    1132.2026   -8594.9959    9.5905124   0.20414469 
  488600   -687.28395    35.285081   -651.99887    1070.4991    1607.6932    9.7244399   0.16951408 
  488700   -690.30086    35.265021   -655.03583    1069.8905   -2058.0029    9.7283841   0.15046337 
  488800   -686.01098    38.179382    -647.8316     1158.308    1102.6028    9.6889622    0.1611007 
  488900   -685.67588    36.637606   -649.03827    1111.5328   -144.13261    9.6783243   0.18248812 
  489000   -689.39438    36.991816   -652.40256     1122.279   -4666.6153    9.6746635   0.16437027 
  489100   -689.28596    34.902122   -654.38384    1058.8807    7770.0198    9.8277194   0.16465005 
  489200    -681.5636    33.996215   -647.56739    1031.3967    2707.7296    9.6410671   0.22141264 
  489300   -685.37286    35.897711   -649.47515    1089.0854   -9240.8657    9.5558734   0.19656537 
  489400   -686.92273     35.45504   -651.46769    1075.6554    2738.2554    9.7325152   0.16473677 
  489500   -687.85756    39.715661    -648.1419    1204.9166    3349.8118    9.7356708   0.15172114 
  489600   -685.52288    39.183706   -646.33918    1188.7778   -6446.0706    9.5942116   0.20089197 
  489700   -686.62075    34.747987   -651.87276    1054.2044   -3821.2256     9.656008   0.18944389 
  489800   -688.04442    37.823681   -650.22074    1147.5166    3923.0102    9.7568234   0.18119249 
  489900   -684.75973    38.792611   -645.96712    1176.9125   -11634.082    9.5184085   0.21370274 
  490000   -685.37451    33.496877   -651.87763    1016.2475    4621.8439    9.7248208    0.1570934 
  490100   -687.99456    35.553071   -652.44149    1078.6295    402.89779    9.7219954   0.14505325 
  490200   -683.61184      37.7144   -645.89744    1144.2011   -3326.5436    9.6000096   0.19103112 
  490300   -684.63128    36.074397   -648.55688    1094.4458    1436.3246    9.6728848   0.18312588 
  490400   -687.54974    34.337719   -653.21202    1041.7575    2016.3486    9.7349205   0.16025748 
  490500   -683.80247    34.624149   -649.17832    1050.4474    -2537.633    9.6287863   0.19061007 
  490600    -680.8812    33.306349   -647.57485    1010.4672    1975.6337    9.6166372   0.21635999 
  490700   -688.65464    35.551367   -653.10327    1078.5778    1539.0893    9.7484209   0.16096862 
  490800   -686.81299    37.599519   -649.21347    1140.7158    9823.9336    9.8013655   0.14766645 
  490900   -684.11026     35.41033   -648.69993    1074.2989   -1174.9817    9.6370684   0.19294412 
  491000   -687.88586    35.564484   -652.32138    1078.9758    -1516.406    9.7004186   0.17337205 
  491100   -688.70719    34.159243   -654.54795    1036.3428    2336.8711    9.7647793   0.14951693 
  491200   -686.43371    37.665258   -648.76845    1142.7103    -4646.186    9.6321945   0.19500978 
  491300   -685.92319    36.481011   -649.44218    1106.7819   -938.30867     9.674916   0.20073512 
  491400     -687.793    32.783407   -655.00959    994.60187    4326.0879    9.7673835   0.16222453 
  491500   -685.38104    33.778262   -651.60278    1024.7843   -6638.7641    9.6069656   0.18462907 
  491600   -686.88778    39.522009   -647.36577    1199.0414    4694.8984    9.7470218    0.1549268 
  491700   -686.41944    34.763729   -651.65571     1054.682       4644.8    9.7347665   0.18027397 
  491800   -683.85912    32.050598   -651.80853    972.36946   -5316.0149    9.5938598   0.19089653 
  491900    -682.6969     37.42002   -645.27688    1135.2701   -5023.9017    9.5627879   0.19224528 
  492000   -685.88202    36.311962   -649.57006    1101.6532    8546.3521    9.7620095   0.15812068 
  492100   -689.19973    35.761026    -653.4387    1084.9386   -5775.3842    9.6691509   0.15345135 
  492200   -685.24522    36.536033   -648.70919    1108.4512    3617.6269    9.6991496   0.17454183 
  492300   -687.45617    41.136959   -646.31921    1248.0367    4974.7029    9.7494769   0.16318845 
  492400   -686.09927    34.673513   -651.42576     1051.945    -13691.04     9.535204   0.18304174 
  492500   -685.69121    34.942054   -650.74916    1060.0921    4102.6892    9.7131513   0.17088661 
  492600   -686.47809    39.854599   -646.62349    1209.1318    6405.1533    9.7386388   0.17835191 
  492700   -686.90803    33.786248   -653.12178    1025.0266   -7095.1047    9.6229726   0.18208315 
  492800   -687.22093    35.764709   -651.45622    1085.0503   -560.00802    9.7021144   0.16821468 
  492900   -684.86666    38.913773   -645.95288    1180.5884    4281.2125    9.6956155   0.18528068 
  493000   -689.00906    37.533083   -651.47598    1138.7003   -7327.4253    9.6450478   0.15779728 
  493100   -687.46427    34.316292   -653.14798    1041.1074    374.76239    9.7107512   0.17835385 
  493200   -685.37024    36.756272   -648.61397    1115.1329    -2733.289      9.63735   0.17769106 
  493300   -688.23815    39.955618   -648.28253    1212.1965    2792.8537    9.7263431   0.17231884 
  493400   -688.14726    32.770044   -655.37722    994.19646   -10150.339    9.6147111   0.17126416 
  493500   -685.13759    33.983585     -651.154    1031.0136    4715.8497     9.723318    0.1996521 
  493600   -686.25299    38.222107   -648.03088    1159.6043    5732.9139    9.7382498   0.18618067 
  493700   -686.72775    35.531124   -651.19662    1077.9637   -5638.2195    9.6299816   0.18029152 
  493800   -689.36278    34.206199   -655.15658    1037.7673   -1202.9886    9.7312925   0.13292635 
  493900   -685.33262    36.305624     -649.027    1101.4609    4159.8642     9.703341    0.1745923 
  494000   -684.80403    35.902087   -648.90194    1089.2182   -1841.6492    9.6460868   0.17275372 
  494100   -688.90633    34.524685   -654.38165    1047.4298     4035.223    9.7755035   0.16091248 
  494200   -686.57826    36.121198   -650.45706    1095.8657   -2933.5164    9.6538278   0.17155422 
  494300   -684.31153    36.758385   -647.55315     1115.197   -4008.8452    9.6126329   0.18682955 
  494400   -689.14346    36.660407   -652.48305    1112.2245    4372.4924    9.7845128    0.1671741 
  494500   -685.35655    35.291543   -650.06501    1070.6951   -1051.9418    9.6641863   0.20396894 
  494600   -680.79351    34.607031   -646.18648     1049.928   -4475.4524    9.5380761    0.2434821 
  494700   -687.38162     36.08718   -651.29444    1094.8336    6290.5417    9.7734581   0.17517771 
  494800   -687.53777    35.812589   -651.72518    1086.5029   -8031.4102    9.6214615    0.1770771 
  494900   -682.80513    34.926429    -647.8787    1059.6181   -5831.2997    9.5594928   0.19002355 
  495000   -689.14665    37.236569   -651.91008    1129.7044    5133.5918    9.7828167   0.13720222 
  495100   -688.57599    35.542491    -653.0335    1078.3085    1850.6135    9.7498623   0.14691407 
  495200   -685.65274    36.891965   -648.76078    1119.2497   -210.27205    9.6692264   0.17723742 
  495300   -685.43862    36.338534   -649.10008    1102.4594   -1516.7547    9.6500297   0.18359093 
  495400   -689.41999    34.889207   -654.53079    1058.4888    1741.0796     9.749461   0.16923564 
  495500   -686.81739    36.592756   -650.22463    1110.1721    937.89418    9.7067329   0.19427524 
  495600   -681.31169     33.41332   -647.89837    1013.7125   -2117.8745    9.5809204   0.20281934 
  495700    -689.2427    34.879187   -654.36351    1058.1848    5677.8406    9.8027088   0.13486095 
  495800   -686.02548    33.861441   -652.16404    1027.3079    5298.7094    9.7441035   0.15953503 
  495900   -683.90141    35.007677   -648.89373     1062.083   -4500.3567    9.5928947   0.18296258 
  496000   -689.33256    36.218479   -653.11408     1098.817    2881.3073    9.7755997   0.16207882 
  496100   -689.87207    36.971029   -652.90104    1121.6483   -4484.7961    9.6960018   0.16589143 
  496200   -686.06456    39.434715   -646.62984    1196.3931    1600.6718    9.6919762   0.18311945 
  496300   -684.79273    34.646803   -650.14593    1051.1346    4807.6198    9.7086959   0.21372456 
  496400   -686.98632    35.851196   -651.13512    1087.6742   -10070.959    9.5988114   0.19904375 
  496500   -690.36291    34.175107    -656.1878    1036.8241    4915.7946     9.810862    0.1352231 
  496600   -688.41406    39.120014   -649.29404    1186.8455    844.00031    9.7253926   0.14796703 
  496700   -686.07165    36.340506   -649.73115    1102.5192   -4676.0291    9.6351113   0.16025591 
  496800   -686.92406    35.078808   -651.84525    1064.2411    135.44759    9.6965305   0.16069088 
  496900   -689.32896     37.13188   -652.19708    1126.5283     1162.302    9.7501487   0.15816434 
  497000   -680.93199    36.312413   -644.61957    1101.6669   -149.42247    9.5911389   0.22883374 
  497100   -684.01815    36.654465   -647.36368    1112.0443   -8347.0934    9.5654495   0.21154635 
  497200   -689.52128    39.497491   -650.02379    1198.2976    3910.8926    9.7778868   0.15327437 
  497300   -686.75035    34.579968   -652.17039    1049.1069    7838.2999    9.7900521   0.15886302 
  497400   -682.42377    35.966243   -646.45753    1091.1646   -4028.1721    9.5628799   0.19454226 
  497500   -685.27442    38.643364   -646.63105    1172.3846    2414.2375    9.6886191   0.15218474 
  497600   -686.94022    35.999226   -650.94099    1092.1652    1411.1761    9.7082817   0.15792364 
  497700   -686.11799    35.216103   -650.90189    1068.4064   -6249.7468     9.621381   0.16837218 
  497800   -682.70522     38.52251   -644.18271    1168.7181    8115.0542    9.7217736   0.17840132 
  497900    -687.5473     37.33363   -650.21366    1132.6491    2964.5532    9.7376702   0.16856557 
  498000   -686.72639    35.434265   -651.29213    1075.0251   -5756.9328     9.612055    0.1882855 
  498100   -684.75091    36.209046   -648.54186    1098.5309   -3700.0088    9.6151467   0.18729289 
  498200   -683.31802    38.276321    -645.0417     1161.249    4270.3111    9.6747779   0.17477654 
  498300   -688.73415    36.026827   -652.70732    1093.0026   -1047.6088    9.7140328   0.15899722 
  498400   -684.71181    32.910878   -651.80094    998.46916    2320.9928    9.6864904   0.18348635 
  498500   -686.31147    36.449181   -649.86229    1105.8162   -2231.9245    9.6639455   0.19219311 
  498600   -683.87367    36.423209   -647.45046    1105.0283    3506.2337    9.6860062   0.18852881 
  498700   -689.52937    34.414218   -655.11515    1044.0783    -3316.476    9.7199821   0.15939599 
  498800   -689.96213    36.972755   -652.98938    1121.7007    -915.5677    9.7392201   0.15698321 
  498900   -686.56364    36.061289   -650.50236    1094.0481    5513.1135    9.7532254   0.17099652 
  499000   -686.65786    39.727924   -646.92994    1205.2886    -4567.118    9.6293322   0.19464666 
  499100   -685.58305    36.501771   -649.08128    1107.4117   -646.70635    9.6682668   0.16638969 
  499200   -687.39425     33.43558   -653.95867    1014.3879    5389.4987    9.7718967   0.14619723 
  499300   -686.65748    35.997253   -650.66022    1092.1054   -5987.4829    9.6256924   0.16146945 
  499400   -687.37489    38.575928   -648.79896    1170.3387    -2361.589    9.6730564   0.15547918 
  499500   -686.79172     37.15848   -649.63324    1127.3353    10837.112    9.8013944   0.16074351 
  499600   -687.73412    32.579754   -655.15437    988.42331   -11228.067    9.5889164   0.17371558 
  499700   -685.81639    35.116251   -650.70013     1065.377    6654.5911     9.747331   0.16123913 
  499800   -687.04861    37.066003    -649.9826    1124.5297    2106.0885    9.7182121   0.17694917 
  499900   -688.05883    32.826508   -655.23232    995.90949   -4839.6504    9.6828207   0.17700351 
  500000   -691.05455    37.571696   -653.48285    1139.8717   -1286.1843    9.7478395   0.15382917 
Loop time of 357.771 on 1 procs for 500000 steps with 256 atoms

Performance: 603.737 ns/day, 0.040 hours/ns, 1397.540 timesteps/s
100.0% CPU use with 1 MPI tasks x no OpenMP threads

MPI task timing breakdown:
Section |  min time  |  avg time  |  max time  |%varavg| %total
---------------------------------------------------------------
Pair    | 214.6      | 214.6      | 214.6      |   0.0 | 59.98
Neigh   | 12.372     | 12.372     | 12.372     |   0.0 |  3.46
Comm    | 3.7661     | 3.7661     | 3.7661     |   0.0 |  1.05
Output  | 0.15281    | 0.15281    | 0.15281    |   0.0 |  0.04
Modify  | 126.03     | 126.03     | 126.03     |   0.0 | 35.23
Other   |            | 0.85       |            |       |  0.24

Nlocal:    256 ave 256 max 256 min
Histogram: 1 0 0 0 0 0 0 0 0 0
Nghost:    1431 ave 1431 max 1431 min
Histogram: 1 0 0 0 0 0 0 0 0 0
Neighs:    11649 ave 11649 max 11649 min
Histogram: 1 0 0 0 0 0 0 0 0 0

Total # of neighbors = 11649
Ave neighs/atom = 45.5039
Neighbor list builds = 22520
Dangerous builds = 0
    
Total wall time: 0:05:57
