LAMMPS (3 Mar 2020)
Reading data file ...
  orthogonal box = (0 0 0) to (16.36 16.36 16.36)
  1 by 1 by 1 MPI processor grid
  reading atoms ...
  256 atoms
  read_data CPU = 0.0010383 secs
Reading potential file /usr/share/lammps-stable/potentials/Ag_u3.eam with DATE: 2007-06-11
Neighbor list info ...
  update every 1 steps, delay 10 steps, check yes
  max neighbors/atom: 2000, page size: 100000
  master list distance cutoff = 7.55
  ghost atom cutoff = 7.55
  binsize = 3.775, bins = 5 5 5
  2 neighbor lists, perpetual/occasional/extra = 1 1 0
  (1) pair eam, perpetual
      attributes: half, newton on
      pair build: half/bin/atomonly/newton
      stencil: half/bin/3d/newton
      bin: standard
  (2) compute rdf, occasional, copy from (1)
      attributes: half, newton on
      pair build: copy
      stencil: none
      bin: none
Setting up Verlet run ...
  Unit style    : metal
  Current step  : 0
  Time step     : 0.001
Per MPI rank memory allocation (min/avg/max) = 3.744 | 3.744 | 3.744 Mbytes
Step PotEng KinEng TotEng Temp Press Density c_msdall[4] 
       0       -729.6    32.961337   -696.63866         1000    8040.2746    10.472245            0 
     100   -709.85613    20.327187   -689.52894    616.69789    33333.272    10.472245  0.057161418 
     200   -703.07667    30.553972    -672.5227    926.96398    46227.119    10.472245   0.07130556 
     300    -693.6017    35.314513   -658.28719     1071.392    59128.521    10.472245  0.093886973 
     400   -693.03357    34.806918   -658.22665    1055.9923    60934.581    10.472245  0.087946183 
     500   -700.53648    31.995987    -668.5405    970.71266     49612.93    10.472245  0.065419306 
     600   -699.14646     31.24448   -667.90198    947.91299    51745.131    10.472245  0.065962488 
     700   -697.01366    36.133042   -660.88061     1096.225    56053.015    10.472245  0.074741145 
     800    -696.5951    32.961347   -663.63376    1000.0003    55465.916    10.472245  0.088575997 
     900   -696.45441    33.961385   -662.49302      1030.34     55579.09    10.472245  0.090138323 
    1000   -696.40876    35.278188   -661.13057      1070.29    57256.032    10.472245  0.080275121 
    1100   -699.99192    33.960804   -666.03112    1030.3224    51175.085    10.472245  0.065390935 
    1200   -698.21761    31.156584   -667.06102    945.24638    52891.997    10.472245  0.075428024 
    1300   -695.33951    32.564231   -662.77528    987.95238    57666.765    10.472245  0.085157537 
    1400   -696.34412    34.472081   -661.87204    1045.8338    56401.661    10.472245  0.081584255 
    1500   -700.10251    33.586402   -666.51611    1018.9636    50598.619    10.472245  0.068900913 
    1600   -699.84106    34.072157    -665.7689    1033.7007    51566.525    10.472245  0.068816353 
    1700   -694.95965    34.356793   -660.60286    1042.3361    58056.201    10.472245  0.089127504 
    1800   -695.37685    35.880575   -659.49628    1088.5655    58384.883    10.472245  0.090561887 
    1900   -696.91203    32.295728    -664.6163    979.80637    55026.989    10.472245   0.07958477 
    2000   -697.85583    30.621294   -667.23454    929.00643    53646.069    10.472245  0.069008119 
    2100   -698.60555     30.87009   -667.73546    936.55454    52781.366    10.472245  0.069231849 
    2200   -697.27407    33.979615   -663.29445    1030.8931    55101.262    10.472245  0.078535681 
    2300   -695.63881    32.010631   -663.62818    971.15694    56870.869    10.472245  0.090992174 
    2400   -693.18382     31.96737   -661.21645    969.84446    60536.294    10.472245  0.089476792 
    2500   -698.79612    33.395869   -665.40025    1013.1831    53070.376    10.472245  0.074165112 
    2600   -700.21334    32.271859   -667.94148    979.08221    50384.699    10.472245  0.072823161 
    2700   -697.81364     35.18005   -662.63359    1067.3126    54144.813    10.472245   0.07852745 
    2800   -697.45612    34.109479   -663.34664     1034.833    54478.562    10.472245  0.076209568 
    2900   -700.17493    31.856293   -668.31864    966.47453    50686.632    10.472245  0.068345349 
    3000   -698.58941    33.097121   -665.49228    1004.1195      53051.6    10.472245  0.071807164 
    3100    -696.1503    33.254958   -662.89534     1008.908    56649.423    10.472245  0.077073127 
    3200   -697.10741     32.45942   -664.64799    984.77255    55230.918    10.472245  0.079260903 
    3300   -699.74029    32.899667   -666.84062    998.12903    51758.474    10.472245   0.07327108 
    3400   -694.44471    31.873669   -662.57104    967.00169    58875.861    10.472245  0.073587821 
    3500   -694.43291    30.261108   -664.17181    918.07889    59065.361    10.472245  0.075077358 
    3600   -695.57229    29.829123   -665.74317    904.97308    57027.536    10.472245  0.074609467 
    3700   -694.98325    34.069614   -660.91364    1033.6235    58602.402    10.472245  0.076362044 
    3800   -693.58726    32.188752   -661.39851    976.56087    60554.401    10.472245  0.078207042 
    3900   -700.02264    32.620318   -667.40232    989.65396    51631.258    10.472245  0.062228972 
    4000   -697.17559    31.897593   -665.27799    967.72753     54594.19    10.472245  0.063954213 
    4100   -695.27786    31.968639   -663.30922    969.88297    57984.818    10.472245  0.075558351 
    4200   -693.01856    33.688938   -659.32963    1022.0744    61595.565    10.472245  0.081988643 
    4300   -696.01957    31.345155   -664.67442    950.96733    56511.587    10.472245  0.073606979 
    4400   -699.30683    33.523714   -665.78312    1017.0617    52503.036    10.472245  0.064844903 
    4500   -697.91106    29.083659    -668.8274    882.35676    52734.368    10.472245  0.077743009 
    4600   -696.87244    34.127743    -662.7447    1035.3871    55331.436    10.472245  0.084339408 
    4700   -696.39481    37.001993   -659.39282    1122.5877    57322.442    10.472245  0.078239631 
    4800   -697.28266    33.494989   -663.78767    1016.1902    55357.261    10.472245   0.07155099 
    4900   -700.42428    35.358299   -665.06598    1072.7204    51546.043    10.472245  0.071439752 
    5000   -699.15979    34.845885   -664.31391    1057.1745    52656.423    10.472245  0.076780087 
    5100     -696.172    33.334534   -662.83747    1011.3223    56619.603    10.472245  0.079825621 
    5200   -696.49675    32.752931   -663.74382    993.67727     56144.79    10.472245   0.07617205 
    5300   -700.09349    30.409016   -669.68447    922.56622     50603.12    10.472245  0.070878423 
    5400   -698.33696    33.981144   -664.35582    1030.9395    53199.025    10.472245  0.070918373 
    5500   -697.51022    33.864644   -663.64558     1027.405    54360.771    10.472245  0.074592853 
    5600   -695.32885     30.36694   -664.96191     921.2897    58034.455    10.472245  0.081430407 
    5700    -694.4057    33.376481   -661.02922    1012.5949    59200.094    10.472245  0.074206503 
    5800   -696.62762    30.645394   -665.98223     929.7376    55648.226    10.472245  0.071043262 
    5900   -698.47996    32.772633   -665.70733      994.275     53601.35    10.472245  0.064878732 
    6000    -698.4582     32.16576   -666.29244    975.86334    53642.952    10.472245  0.072372201 
    6100   -694.92924    34.413289   -660.51595    1044.0501    59282.779    10.472245  0.077041791 
    6200   -697.04175    32.111601   -664.93015    974.22023    55467.245    10.472245  0.071188155 
    6300    -696.9441    32.369917   -664.57418    982.05716    55818.811    10.472245  0.069214736 
    6400    -698.1094    32.963868   -665.14553    1000.0768    53178.467    10.472245  0.068846107 
    6500   -698.47851    34.200387   -664.27813     1037.591    53812.496    10.472245  0.071741846 
    6600   -698.60994    35.208122   -663.40182    1068.1643    53575.323    10.472245  0.070716402 
    6700   -698.30959    36.894583     -661.415    1119.3291    54439.986    10.472245  0.066615015 
    6800   -698.08323    32.179402   -665.90382     976.2772    53909.534    10.472245  0.072650368 
    6900   -696.64333    35.071929    -661.5714    1064.0324     56677.43    10.472245  0.075576396 
    7000   -695.34905    33.165347    -662.1837    1006.1894    57396.763    10.472245  0.079716441 
    7100   -697.22191    33.246319   -663.97559     1008.646    55593.329    10.472245  0.070643832 
    7200   -698.86546    31.445758    -667.4197     954.0195     52543.45    10.472245  0.065151218 
    7300    -699.5062    31.974762   -667.53143    970.06873    51326.777    10.472245  0.065230352 
    7400   -695.80433    32.552908   -663.25142    987.60885    56933.824    10.472245  0.081521078 
    7500   -693.81674    34.921291   -658.89545    1059.4622    60814.697    10.472245   0.08710463 
    7600   -694.56735    34.034619   -660.53273    1032.5619     59257.07    10.472245  0.076647681 
    7700   -697.87411    31.764447   -666.10967    963.68806    54030.302    10.472245  0.070756006 
    7800   -696.31754    32.116226   -664.20132    974.36053    56673.589    10.472245  0.073554805 
    7900   -693.63775    31.484001   -662.15375    955.17973    59790.327    10.472245  0.082168434 
    8000   -697.03198     32.95747   -664.07451    999.88269    55626.318    10.472245  0.073751611 
    8100   -699.64317    33.212061   -666.43111    1007.6066    52135.561    10.472245  0.068224957 
    8200   -695.68461     34.55141    -661.1332    1048.2406     56913.87    10.472245  0.078184462 
    8300    -696.2636     35.29514   -660.96846    1070.8042    56791.526    10.472245  0.079160349 
    8400   -699.20049    33.486858   -665.71363    1015.9436     52169.61    10.472245  0.071910468 
    8500   -697.52127    33.619136   -663.90214    1019.9567    54475.296    10.472245  0.075789444 
    8600   -696.03902    35.603019     -660.436    1080.1449    57164.194    10.472245  0.078066147 
    8700   -697.06153    31.913872   -665.14766    968.22142    54878.716    10.472245  0.074228288 
    8800   -698.65098    33.096393   -665.55458    1004.0974    53412.977    10.472245  0.066196458 
    8900   -695.52762     32.61948   -662.90814    989.62855    57131.265    10.472245  0.071278298 
    9000   -692.94113    30.754725    -662.1864    933.05455    60425.233    10.472245  0.082416931 
    9100   -695.75153     31.12463    -664.6269    944.27693    56813.928    10.472245  0.075509174 
    9200   -698.15746    32.417643   -665.73981    983.50511    53686.998    10.472245  0.068034716 
    9300   -697.53291    32.493692   -665.03922    985.81231    54140.889    10.472245  0.073055631 
    9400    -695.0229    35.784588   -659.23831    1085.6534    58275.017    10.472245  0.083458524 
    9500   -694.91176     32.30414   -662.60762    980.06157    57785.352    10.472245  0.085119531 
    9600   -696.20678    31.562563   -664.64422     957.5632    55968.401    10.472245  0.076707219 
    9700   -695.98394    30.169756   -665.81419     915.3074     55983.56    10.472245  0.073828948 
    9800   -696.76309    31.750229   -665.01286    963.25672    55499.269    10.472245  0.076910232 
    9900   -692.38904    32.242883   -660.14615    978.20313    61363.348    10.472245  0.084782305 
   10000   -696.25415    32.497347    -663.7568     985.9232    56646.554    10.472245  0.076088349 
Loop time of 4.83919 on 1 procs for 10000 steps with 256 atoms

Performance: 178.542 ns/day, 0.134 hours/ns, 2066.463 timesteps/s
100.0% CPU use with 1 MPI tasks x no OpenMP threads

MPI task timing breakdown:
Section |  min time  |  avg time  |  max time  |%varavg| %total
---------------------------------------------------------------
Pair    | 3.2557     | 3.2557     | 3.2557     |   0.0 | 67.28
Neigh   | 0          | 0          | 0          |   0.0 |  0.00
Comm    | 0.061975   | 0.061975   | 0.061975   |   0.0 |  1.28
Output  | 0.0023383  | 0.0023383  | 0.0023383  |   0.0 |  0.05
Modify  | 1.5034     | 1.5034     | 1.5034     |   0.0 | 31.07
Other   |            | 0.01578    |            |       |  0.33

Nlocal:    256 ave 256 max 256 min
Histogram: 1 0 0 0 0 0 0 0 0 0
Nghost:    1431 ave 1431 max 1431 min
Histogram: 1 0 0 0 0 0 0 0 0 0
Neighs:    11008 ave 11008 max 11008 min
Histogram: 1 0 0 0 0 0 0 0 0 0

Total # of neighbors = 11008
Ave neighs/atom = 43
Neighbor list builds = 0
Dangerous builds = 0
Total wall time: 0:00:04
