LAMMPS (3 Mar 2020)

    # ---------- Initialize simulation ---------------------
    units metal
    atom_style atomic
    dimension  3
    boundary   p p p
    read_data /home/modeler/RemLabs/Lab4/Problem1A/timestep_0.020000000000000004/lammps.data
  orthogonal box = (0 0 0) to (12.27 12.27 12.27)
  1 by 1 by 1 MPI processor grid
  reading atoms ...
  108 atoms
  read_data CPU = 0.00091144 secs

    pair_style eam
    pair_coeff * * /usr/share/lammps-stable/potentials/Ag_u3.eam
Reading potential file /usr/share/lammps-stable/potentials/Ag_u3.eam with DATE: 2007-06-11

    velocity  all create 300 87287 dist gaussian

    # ---------- Describe computed properties------------------
    compute msdall all msd
    thermo_style custom step pe ke etotal temp press density c_msdall[4]
    thermo 100

    # ---------- Specify ensemble  ---------------------
    fix  1 all nve
    #fix  1 all nvt temp 300 300 1.0000000000000002

    # --------- Compute RDF ---------------
    compute rdfall all rdf 100 1 1
    fix 2 all ave/time 1 125 125 c_rdfall[*] file /home/modeler/RemLabs/Lab4/Problem1A/timestep_0.020000000000000004/lammps.rdf mode vector

    # --------- Run -------------
    timestep 0.020000000000000004
    run 500
Neighbor list info ...
  update every 1 steps, delay 10 steps, check yes
  max neighbors/atom: 2000, page size: 100000
  master list distance cutoff = 7.55
  ghost atom cutoff = 7.55
  binsize = 3.775, bins = 4 4 4
  2 neighbor lists, perpetual/occasional/extra = 1 1 0
  (1) pair eam, perpetual
      attributes: half, newton on
      pair build: half/bin/atomonly/newton
      stencil: half/bin/3d/newton
      bin: standard
  (2) compute rdf, occasional, copy from (1)
      attributes: half, newton on
      pair build: copy
      stencil: none
      bin: none
Per MPI rank memory allocation (min/avg/max) = 3.723 | 3.723 | 3.723 Mbytes
Step PotEng KinEng TotEng Temp Press Density c_msdall[4] 
       0       -307.8    4.1492507   -303.65075          300     2399.079    10.472245            0 
     100   -305.41112    1.8812141    -303.5299    136.01594    9683.7426    10.472245  0.010698049 
     200   -305.48129    1.9573775   -303.52391    141.52272    9563.2103    10.472245  0.010260552 
     300    -305.3522    1.8263716   -303.52583    132.05071     9795.845    10.472245  0.010843719 
     400   -305.62859    2.0886831   -303.53991    151.01641    8858.5303    10.472245  0.010993028 
     500   -305.68006    2.1475025   -303.53255    155.26918    8882.7545    10.472245 0.0094479557 
Loop time of 0.0959663 on 1 procs for 500 steps with 108 atoms

Performance: 9003.161 ns/day, 0.003 hours/ns, 5210.163 timesteps/s
100.0% CPU use with 1 MPI tasks x no OpenMP threads

MPI task timing breakdown:
Section |  min time  |  avg time  |  max time  |%varavg| %total
---------------------------------------------------------------
Pair    | 0.064479   | 0.064479   | 0.064479   |   0.0 | 67.19
Neigh   | 0          | 0          | 0          |   0.0 |  0.00
Comm    | 0.0020692  | 0.0020692  | 0.0020692  |   0.0 |  2.16
Output  | 6.1575e-05 | 6.1575e-05 | 6.1575e-05 |   0.0 |  0.06
Modify  | 0.028883   | 0.028883   | 0.028883   |   0.0 | 30.10
Other   |            | 0.0004733  |            |       |  0.49

Nlocal:    108 ave 108 max 108 min
Histogram: 1 0 0 0 0 0 0 0 0 0
Nghost:    990 ave 990 max 990 min
Histogram: 1 0 0 0 0 0 0 0 0 0
Neighs:    4644 ave 4644 max 4644 min
Histogram: 1 0 0 0 0 0 0 0 0 0

Total # of neighbors = 4644
Ave neighs/atom = 43
Neighbor list builds = 0
Dangerous builds = 0
    
Total wall time: 0:00:00
