LAMMPS (3 Mar 2020)
Reading data file ...
  orthogonal box = (0 0 0) to (17.469 17.469 17.469)
  1 by 1 by 1 MPI processor grid
  reading atoms ...
  217 atoms
  read_data CPU = 0.000993726 secs
Reading potential file library.meam with DATE: 2012-06-29
Reading potential file LiSi.meam with DATE: 2020-11-07
1 atoms in group Li
216 atoms in group Si
Neighbor list info ...
  update every 1 steps, delay 10 steps, check yes
  max neighbors/atom: 2000, page size: 100000
  master list distance cutoff = 6
  ghost atom cutoff = 6
  binsize = 3, bins = 6 6 6
  2 neighbor lists, perpetual/occasional/extra = 2 0 0
  (1) pair meam/c, perpetual
      attributes: full, newton on
      pair build: full/bin/atomonly
      stencil: full/bin/3d
      bin: standard
  (2) pair meam/c, perpetual, half/full from (1)
      attributes: half, newton on
      pair build: halffull/newton
      stencil: none
      bin: none
Setting up Verlet run ...
  Unit style    : metal
  Current step  : 0
  Time step     : 0.003
Per MPI rank memory allocation (min/avg/max) = 8.895 | 8.895 | 8.895 Mbytes
Step Temp E_pair E_mol TotEng Press Volume 
       0         1400   -951.04357            0    -911.9553   -116399.41    5330.9442 
    3200    1466.9464   -954.99599            0   -914.03857    13176.204    4522.4981 
Loop time of 2.31832 on 1 procs for 3200 steps with 217 atoms

Performance: 357.776 ns/day, 0.067 hours/ns, 1380.308 timesteps/s
100.0% CPU use with 1 MPI tasks x no OpenMP threads

MPI task timing breakdown:
Section |  min time  |  avg time  |  max time  |%varavg| %total
---------------------------------------------------------------
Pair    | 2.265      | 2.265      | 2.265      |   0.0 | 97.70
Neigh   | 0.0058939  | 0.0058939  | 0.0058939  |   0.0 |  0.25
Comm    | 0.013465   | 0.013465   | 0.013465   |   0.0 |  0.58
Output  | 2.5852e-05 | 2.5852e-05 | 2.5852e-05 |   0.0 |  0.00
Modify  | 0.029232   | 0.029232   | 0.029232   |   0.0 |  1.26
Other   |            | 0.004711   |            |       |  0.20

Nlocal:    217 ave 217 max 217 min
Histogram: 1 0 0 0 0 0 0 0 0 0
Nghost:    957 ave 957 max 957 min
Histogram: 1 0 0 0 0 0 0 0 0 0
Neighs:    4176 ave 4176 max 4176 min
Histogram: 1 0 0 0 0 0 0 0 0 0
FullNghs:  8352 ave 8352 max 8352 min
Histogram: 1 0 0 0 0 0 0 0 0 0

Total # of neighbors = 8352
Ave neighs/atom = 38.4885
Neighbor list builds = 10
Dangerous builds = 1
Setting up Verlet run ...
  Unit style    : metal
  Current step  : 3200
  Time step     : 0.003
Per MPI rank memory allocation (min/avg/max) = 9.663 | 9.663 | 9.663 Mbytes
Step PotEng KinEng TotEng Temp Press Density c_msdli[4] c_msdsi[4] 
    3200   -954.99599    40.957425   -914.03857    1466.9464    13176.204    2.2300304            0 4.6150988e-32 
    3300   -954.15955    38.888709   -915.27084    1392.8525    9354.7196    2.2193665   0.24350026  0.086116938 
    3400   -955.75205    38.553757   -917.19829    1380.8558   -9327.0214    2.1792163   0.28651018  0.090762002 
    3500   -957.79904    33.587827   -924.21122    1202.9941   -10048.393       2.1822  0.049888319  0.088215121 
    3600   -956.77129    38.604708   -918.16658    1382.6807   -874.69706    2.1994897   0.06803295  0.098302755 
    3700   -955.47986    40.735112   -914.74474     1458.984    9636.1949    2.2223148  0.031875543   0.07851394 
    3800   -954.14933    39.954829    -914.1945    1431.0371    5417.9495    2.2096293  0.028267763  0.098339825 
    3900    -952.6546     33.55233   -919.10227    1201.7228   -5352.0657    2.1817657   0.16606068   0.11583096 
    4000   -957.42654    37.033609   -920.39293    1326.4096   -10325.863    2.1780844  0.055326177    0.1117621 
    4100   -954.57514    39.018246   -915.55689    1397.4921    3570.2663    2.2020848  0.088180941  0.081316826 
    4200   -956.32214    42.698418   -913.62373    1529.3025    10154.585    2.2227686  0.061631419  0.083708348 
    4300    -959.9696    39.841013   -920.12859    1426.9606     2100.259    2.2102916   0.13506227  0.090116407 
    4400   -955.80726    36.687497   -919.11976    1314.0131   -9510.9576    2.1777376   0.37388793  0.090823744 
    4500   -955.13304    40.197321   -914.93572    1439.7223   -7490.4137    2.1774089  0.055840393   0.10198651 
    4600   -955.17988    39.821325   -915.35856    1426.2554      4829.45    2.2082978   0.11150606  0.089842138 
    4700   -959.15342    37.906459   -921.24696    1357.6719    9935.7164    2.2324783  0.061068929  0.095179964 
    4800   -955.82478    40.541346   -915.28343     1452.044   -656.15818    2.1999833   0.11153206   0.10581813 
    4900   -951.73694    37.376008   -914.36093    1338.6731   -6067.0372    2.1799949  0.054365794   0.11609372 
    5000   -954.62737    38.277503   -916.34987    1370.9613    -4936.847    2.1860903  0.016040498   0.11689546 
    5100   -957.36473    39.608867   -917.75586     1418.646    2488.4792    2.2102523   0.12174875   0.10299853 
    5200   -949.75816    40.853013   -908.90514    1463.2068    5837.8681    2.1994781   0.15379205   0.12152934 
    5300   -953.45616    40.179347   -913.27681    1439.0785    2322.8399    2.1979424   0.15438301   0.11188017 
    5400   -955.00491     38.37577   -916.62914    1374.4809   -4442.6941    2.1897054    0.1251807   0.08998989 
    5500   -954.49858    39.527869   -914.97071    1415.7449   -4938.6745    2.1878625  0.083640254  0.098570783 
    5600   -951.22939    42.227824   -909.00157    1512.4475   -461.75499    2.1854547     0.397365   0.10041666 
    5700   -957.74855    42.040487   -915.70807    1505.7378    2047.8528    2.2081774  0.061046984   0.09280635 
    5800   -952.24687    36.331196   -915.91567    1301.2517    5688.2493    2.2059059  0.026915645   0.11175632 
    5900   -951.28918    42.486996   -908.80218    1521.7301   -2257.6841    2.1809941 0.0052985358   0.10000341 
    6000   -954.17539    39.627371   -914.54802    1419.3087   -4551.4264    2.1852376   0.14158195   0.11014321 
    6100   -954.76852    38.340738   -916.42778    1373.2262   -924.22877    2.1965738   0.19165598   0.10863373 
    6200   -952.84874    39.599849   -913.24889     1418.323    5116.2449    2.2059435   0.12893636   0.11177536 
    6300    -948.8746    40.589893   -908.28471    1453.7828    3681.2728    2.1951936  0.062869471   0.11733692 
    6400   -954.82684    37.727632   -917.09921     1351.267   -27.237155    2.1993247   0.14710359   0.10970803 
    6500   -954.20989    38.024083   -916.18581    1361.8848   -5295.1343    2.1863139   0.16770994   0.10364079 
    6600   -954.68934    40.683839    -914.0055    1457.1476   -3578.6289    2.1899951  0.079002758  0.096645995 
    6700   -957.29289    43.882344   -913.41054    1571.7064    1440.4506     2.206032   0.16070905     0.111126 
    6800   -956.78712    35.579344   -921.20778    1274.3231    9518.5174    2.2289553 0.0030976319  0.096750817 
    6900    -956.1084    39.629872   -916.47853    1419.3983    425.04706    2.1994176  0.028589507   0.10150162 
    7000   -955.22432    40.852203   -914.37212    1463.1778   -9415.4465    2.1749612   0.15881914   0.11299392 
    7100   -954.55588    39.453625   -915.10226    1413.0858   -5716.9753     2.185017   0.14557596   0.10902858 
    7200   -956.30735    34.750578   -921.55678    1244.6397    8882.3043    2.2274836  0.057801716   0.10121318 
    7300   -954.64509    40.027489    -914.6176    1433.6395    8553.2387    2.2187744   0.10710872    0.1020965 
    7400   -953.50799    39.025717   -914.48227    1397.7597   -1002.0061    2.1949144   0.15139813   0.11472504 
    7500    -957.7246    37.952408   -919.77219    1359.3176    -10330.28    2.1809011  0.087007639   0.10188884 
    7600   -957.22518    38.461207   -918.76397     1377.541   -3212.1147    2.1942363  0.089473687   0.10382579 
    7700   -954.31184    40.716349   -913.59549     1458.312     5445.709    2.2095679     0.141869   0.10249064 
    7800   -956.06628    40.245636   -915.82065    1441.4527    4154.8935    2.2086098  0.095520062  0.097511242 
    7900   -956.95263    36.210321   -920.74231    1296.9224   -2604.9675     2.197151  0.022194591  0.093851891 
    8000   -953.86579    36.384052   -917.48174    1303.1448   -2752.8432    2.1910348   0.20713134   0.10170372 
    8100   -954.94273    40.800573   -914.14216    1461.3286     323.5433    2.1965418  0.041638902   0.10172914 
    8200   -955.03598     39.77354   -915.26244    1424.5439    1755.2538    2.2027544   0.21715647   0.08904361 
    8300    -956.2781    38.022288   -918.25581    1361.8205   -94.657924    2.2016989   0.19476909  0.099181374 
    8400   -959.73695    35.003676   -924.73328    1253.7047   -1128.8508    2.2080881   0.18310675  0.094383937 
    8500   -959.41711    42.741705    -916.6754    1530.8529   -5207.3189    2.1930709   0.14654352  0.093362012 
    8600   -956.87053    41.345374   -915.52515    1480.8413   -560.56396     2.198298  0.089556659   0.11145171 
    8700   -956.21145    41.303106   -914.90835    1479.3275    1073.1654    2.1999043  0.059890176  0.086487343 
    8800   -954.59307    39.459022   -915.13404    1413.2791    583.59797    2.1967562   0.22874583  0.093099591 
    8900   -957.30609    34.456262   -922.84983    1234.0984    1828.0115      2.21004  0.043464583   0.10489944 
    9000   -955.23863    37.421885   -917.81675    1340.3162    241.10935    2.1980312  0.073873032   0.10082174 
    9100   -952.52375    37.533328   -914.99042    1344.3077   -1434.3379     2.191977  0.026628473    0.1044985 
    9200   -952.59152    38.700096   -913.89142    1386.0971     1546.944    2.1945451  0.056203015  0.099620158 
    9300   -957.77768      35.4365   -922.34118    1269.2069    3938.4118    2.2148346   0.12341095  0.093517479 
    9400   -956.16973    39.311874   -916.85786    1408.0088     -3134.68    2.1926404   0.15095792  0.097349012 
    9500   -950.94727    36.523632   -914.42364     1308.144   -3606.5531    2.1789794    0.1396031    0.1066293 
    9600   -954.58294     38.23315   -916.34979    1369.3728   -3402.8574    2.1897549  0.036662628   0.10861848 
    9700   -958.92281    37.586127   -921.33668    1346.1988    9843.6984    2.2279559   0.31064141  0.084681241 
    9800   -955.49969    41.659693      -913.84    1492.0991    5367.2065    2.2131427    0.1996658   0.11901174 
    9900   -953.51038    38.519792   -914.99058    1379.6392    -5330.533    2.1779343    0.2703241   0.10298823 
   10000   -957.73201    38.717793   -919.01422    1386.7309   -13650.758    2.1681326  0.063810659  0.097760917 
   10100   -957.00622    36.980779   -920.02545    1324.5174   -200.25663    2.2038611   0.11899103   0.10155901 
   10200   -953.54191    40.383649   -913.15826    1446.3959    10209.976    2.2223977   0.10303093   0.10509722 
   10300   -955.85088    40.728273   -915.12261     1458.739    3858.6873    2.2067947   0.26413421   0.10410989 
   10400   -955.72726     36.82499   -918.90227    1318.9376   -6511.1952    2.1858552  0.055021214  0.092835719 
   10500   -957.45128    34.990367   -922.46092    1253.2281    -4654.889    2.1928831    0.2347136  0.088925811 
   10600    -954.1242    39.915197     -914.209    1429.6176   -1234.3213    2.1929752   0.21572935  0.091338556 
   10700   -953.30299    38.471799   -914.83119    1377.9203    5608.5414    2.2077378 0.0099596605    0.1117144 
   10800   -955.30838    39.367547   -915.94084    1410.0028    2232.0077    2.2042482   0.12644928   0.10409976 
   10900   -953.24217    40.587017   -912.65516    1453.6798   -2583.3377    2.1875901  0.026588311   0.11007323 
   11000   -951.17653    41.788102   -909.38843    1496.6983   -5061.3837    2.1761256  0.010227724    0.1152697 
   11100   -953.08228    37.817662   -915.26462    1354.4915   -721.78318    2.1918331   0.20087881   0.10447747 
   11200   -957.49269    41.387347   -916.10534    1482.3447    1405.3803    2.2053456   0.10230567   0.11462061 
   11300   -952.94156    42.274985   -910.66657    1514.1367    5184.7269    2.2041737   0.12773971  0.099015666 
   11400   -949.18956    37.871709   -911.31785    1356.4273    585.70464    2.1892834   0.15109827   0.12116684 
   11500   -953.97903    37.431964   -916.54706    1340.6772   -5415.5711    2.1823138   0.30659295   0.10055702 
   11600   -955.51803    40.866958   -914.65108    1463.7062   -2855.6821    2.1905107  0.075965683  0.097488021 
   11700   -951.39738    43.696621   -907.70076    1565.0545    5759.1778     2.199055   0.31122854   0.10470046 
   11800   -954.70975    38.992195   -915.71756     1396.559    12941.399    2.2260324   0.23312313  0.093126931 
   11900   -955.26728    39.315044   -915.95223    1408.1223   -5103.0457    2.1852094   0.19217779   0.10662427 
   12000   -950.38871    36.425717     -913.963    1304.6371   -20305.484    2.1356049   0.15001693   0.12438716 
   12100   -950.09726    35.760973   -914.33629    1280.8284   -4797.7021    2.1767405   0.17381198   0.12356796 
   12200    -959.5711    37.699422   -921.87168    1350.2566    16970.723    2.2503255   0.20370626   0.10155941 
   12300   -956.75598    40.689431   -916.06655    1457.3478    8089.0704    2.2201533  0.028171884   0.10991484 
   12400   -954.39052    39.616092   -914.77443    1418.9047    -6058.539    2.1824644  0.095729679   0.10818375 
   12500    -953.7302    38.132971   -915.59723    1365.7847   -9095.4033    2.1712317  0.099211343   0.10628932 
   12600   -958.73657    35.966133   -922.77044    1288.1765    1146.3889    2.2105089    0.1263597  0.097744673 
   12700   -952.11467    36.870141   -915.24453    1320.5548    10119.447    2.2175526   0.16358652  0.093158884 
   12800   -954.11585    39.565435   -914.55042    1417.0904    4519.1105    2.2074953  0.025268225  0.099108235 
   12900   -956.48563    38.024093   -918.46154    1361.8851   -5149.4559    2.1867355  0.036237845  0.094028232 
   13000     -955.524    33.260959   -922.26304    1191.2869   -4611.1637    2.1916216  0.034207743   0.10426435 
   13100   -951.47694    36.650482   -914.82646    1312.6874    2108.3624    2.1939581   0.15647493    0.1176253 
   13200   -953.79027    38.933693   -914.85657    1394.4637    6634.1763    2.2095512  0.036617677   0.10297269 
   13300   -952.74728    35.448829   -917.29845    1269.6485    4641.6111    2.2065826   0.16268245   0.10713866 
   13400   -959.28685    34.340447    -924.9464    1229.9503   -4135.3282    2.1983966  0.038784931  0.095746107 
   13500   -956.24153    38.547427    -917.6941    1380.6291   -9131.5583    2.1759892   0.31202895   0.10089265 
   13600   -954.62136    39.083129   -915.53823    1399.8159    807.41631     2.198497   0.19026944   0.10451475 
   13700   -954.35628    40.379841   -913.97644    1446.2595    11103.503    2.2223599    0.1143155  0.094311118 
   13800   -956.94358    37.203846   -919.73974    1332.5069    3313.5438     2.212283  0.037681715  0.090699618 
   13900   -956.73454    36.401503   -920.33304    1303.7698   -8033.7508    2.1845179   0.29025702  0.095146345 
   14000   -954.07481     38.35561    -915.7192    1373.7588   -7050.2978    2.1787492  0.088022052   0.10616075 
   14100   -955.93469    41.712722   -914.22196    1493.9984    780.01928    2.2005832  0.035520319  0.094160104 
   14200   -956.45383    35.689148   -920.76468    1278.2558    6874.0923    2.2203493  0.094561398  0.092775728 
   14300   -957.68552     38.84462    -918.8409    1391.2734    266.91429    2.2035341  0.045465217   0.09815429 
   14400   -954.51644    39.693592   -914.82285    1421.6805   -2819.0677    2.1888265   0.01542017  0.099537236 
   14500   -952.65501    37.018508    -915.6365    1325.8687   -1010.5214    2.1925893  0.074123458   0.11316966 
   14600    -957.4571    34.907042   -922.55006    1250.2436    2810.6389    2.2099304  0.023214238  0.093037037 
   14700   -953.92079    38.173805   -915.74698    1367.2473   -104.79696    2.1965897   0.19055646   0.10167158 
   14800   -953.16139    38.579347   -914.58205    1381.7723    870.39537    2.1971483   0.19662893   0.10468226 
   14900   -955.02018    38.417209   -916.60297    1375.9651   -640.38352     2.199257   0.12221232  0.094890954 
   15000    -957.8249    34.454813   -923.37009    1234.0465   -186.90323    2.2064996  0.028416418  0.098734491 
   15100   -954.89447    37.792017   -917.10245     1353.573   -2428.4184    2.1926581  0.075220391   0.10804885 
   15200   -951.71407    36.558093   -915.15598    1309.3783    4036.4037    2.2006027  0.056443727   0.10308067 
   15300   -953.44514    38.540825   -914.90431    1380.3926     4401.842    2.2065797   0.16379554  0.099207932 
   15400    -958.6422     38.94777   -919.69443    1394.9679   -2075.2265    2.2004218  0.066302343   0.10050633 
   15500   -957.28935    36.214067   -921.07528    1297.0565   -7142.2431    2.1860164   0.25317439  0.092441093 
   15600   -955.18585    39.201669   -915.98418    1404.0616   -831.90926    2.1933261  0.089508131  0.093674737 
   15700   -956.37021    42.353376   -914.01684    1516.9443    7771.6238    2.2182902   0.25987509   0.10363809 
   15800   -955.41761    36.619509    -918.7981     1311.578    7439.5262    2.2194078   0.23380371  0.096422158 
   15900   -956.65154     35.63778   -921.01376     1276.416     -5904.55    2.1883782   0.12304029    0.1030109 
   16000   -956.63541    41.070691   -915.56472    1471.0032    -11974.91    2.1704831   0.18460939   0.10807892 
   16100   -953.44517    38.887503   -914.55767    1392.8093     1151.648    2.1969909  0.065556687  0.099570669 
   16200   -957.38316    37.120453   -920.26271      1329.52    9785.6731    2.2290483  0.067988899  0.095225258 
   16300   -953.32481    34.054833   -919.26997    1219.7206    7547.0253    2.2160426    0.1117718  0.098196303 
   16400    -950.9498    36.287987   -914.66181    1299.7041   -3054.3364    2.1805913  0.018237666   0.10237351 
   16500   -952.68462    36.854207   -915.83041    1319.9841     -8247.43    2.1743417   0.12780194  0.099859823 
   16600   -954.09054    32.834608   -921.25593    1176.0166    1576.0185    2.2050639   0.11531171   0.10450862 
   16700   -956.33216     37.41051   -918.92165    1339.9088    8727.8428    2.2233114  0.069003378  0.096741108 
   16800    -955.1432    40.561287   -914.58191    1452.7582    4848.3694    2.2096442  0.076082064   0.09841395 
   16900   -954.29606    38.573429   -915.72263    1381.5603   -3897.4911    2.1861267  0.018109172  0.096027195 
   17000   -954.25461    37.825338   -916.42927    1354.7664   -6127.6969    2.1840119  0.069769639   0.10129371 
   17100     -959.061    33.997055   -925.06394    1217.6512    1615.0787    2.2146853   0.01266042   0.10097477 
   17200   -954.36716    34.978322   -919.38884    1252.7967    2865.4421     2.205275   0.26762523   0.10468866 
   17300   -956.20845    40.356441   -915.85201    1445.4214    566.77755     2.196866  0.030831478  0.094815335 
   17400   -955.12936    40.780256   -914.34911    1460.6009   -2908.4241    2.1905534  0.072247443   0.10776217 
   17500   -957.15036    37.383673   -919.76669    1338.9476   -461.76639    2.1986361   0.10863629   0.08800576 
   17600   -958.31242    38.431481   -919.88094    1376.4763    91.760383    2.2045913   0.23897453  0.095109776 
   17700   -953.30857    38.652433   -914.65614      1384.39    4383.7921    2.2036914  0.075806532  0.088822555 
   17800   -952.09288    37.207307   -914.88558    1332.6308    2189.0372    2.1974097  0.023293713  0.099938906 
   17900   -958.78165    36.428593   -922.35305    1304.7401   -3009.1347    2.1972729  0.082255718   0.08241599 
   18000     -955.486    39.058792   -916.42721    1398.9443   -6598.7872    2.1807933   0.11032967  0.092955882 
   18100   -952.02276    37.760834   -914.26192    1352.4561    4313.6873    2.2037662   0.22716061   0.11013376 
   18200   -957.67075     41.27231   -916.39844    1478.2245    10518.198    2.2261661  0.038759988  0.092902687 
   18300   -957.99572    35.103338   -922.89239    1257.2743    2419.2856    2.2134463  0.070738166   0.10769531 
   18400    -953.9575    39.704151   -914.25335    1422.0587   -13351.789    2.1598127  0.013937895   0.10619231 
   18500   -952.96095    38.096436   -914.86452    1364.4762   -5726.2439    2.1757803   0.17049871  0.096610912 
   18600   -953.97256     38.28884   -915.68372    1371.3674    9477.2207    2.2161438   0.13296969  0.097011696 
   18700   -957.14722    34.696937   -922.45028    1242.7184    10429.904    2.2305533  0.010828066  0.079526937 
   18800   -956.60548    37.256895   -919.34858    1334.4069   -1608.5527    2.1988848   0.18404214   0.08965101 
   18900   -953.44162    37.547299   -915.89432    1344.8081   -4452.4335    2.1824402   0.06474367  0.092436977 
   19000   -953.21435     38.11555    -915.0988    1365.1608   -1581.3334    2.1904953   0.15289097   0.10104502 
   19100   -955.50373    39.712143   -915.79159     1422.345    4204.3292    2.2059317  0.097997292  0.099607514 
   19200   -956.92161    33.349456   -923.57215    1194.4566    7991.0354    2.2213193   0.10144496  0.093571064 
   19300   -953.19157    36.070022   -917.12154    1291.8974   -2308.1734    2.1886666   0.10889762   0.11338169 
   19400   -952.33091    37.237307    -915.0936    1333.7053   -6049.4304    2.1783534   0.11972301   0.12212636 
   19500   -952.38971    38.083333   -914.30638    1364.0069   -1573.1579    2.1921297  0.063442664   0.12685464 
   19600   -957.28499    34.666081   -922.61891    1241.6133    8510.0831    2.2277106  0.076045421    0.1039998 
   19700   -959.19665    42.257147    -916.9395    1513.4977   -118.89451    2.2042351  0.085079794  0.098577072 
   19800   -955.96143    41.207265   -914.75416    1475.8948   -5969.5263    2.1841446   0.20832674   0.09550743 
   19900   -952.52501    36.580062   -915.94495    1310.1652   -4503.6052    2.1842638   0.40330455  0.098548247 
   20000   -958.66421    35.798362   -922.86585    1282.1675    3174.6251    2.2168026   0.14356636  0.084187815 
   20100   -955.97485    40.795701   -915.17915     1461.154    3204.9638    2.2115076  0.010643243  0.091710559 
   20200   -951.71857      37.1409   -914.57767    1330.2523    3378.5278     2.200541  0.017325835   0.10209158 
   20300   -957.45727    39.434369    -918.0229    1412.3961   -8591.1748    2.1815215  0.027211346  0.093390364 
   20400   -957.16055    34.146901   -923.01365    1223.0181   -9229.1164    2.1825484   0.13260289   0.10503172 
   20500   -953.89279    38.617506   -915.27528     1383.139    9122.1889    2.2166124  0.078301105   0.10369037 
   20600   -954.34973    40.298437   -914.05129    1443.3439    16820.457    2.2387887  0.097549998   0.10458353 
   20700   -954.67644    37.757366   -916.91907    1352.3319    1278.4527    2.2020314  0.094364959    0.1112448 
   20800   -953.91473    42.239226    -911.6755    1512.8559   -13117.993    2.1609144   0.34764527   0.10805312 
   20900   -948.59703    38.196857   -910.40018    1368.0729   -5248.9088    2.1712871    0.1853823   0.10338749 
   21000   -956.31901    41.423039   -914.89597    1483.6231    3656.7116    2.2094851   0.26747257  0.087458109 
   21100   -954.73536    38.699199   -916.03616     1386.065    10534.816    2.2206199  0.031636775  0.082589514 
   21200   -951.83619    42.110413   -909.72577    1508.2423   -1195.7667    2.1902174  0.087810114   0.11148644 
   21300   -949.90122    37.870311   -912.03091    1356.3772   -5891.3039    2.1731818  0.064444119    0.1159957 
   21400   -953.50059    36.791438   -916.70915    1317.7359   -5186.1106    2.1847241  0.012367917  0.099965981 
   21500   -952.64004    38.237209   -914.40283    1369.5182    4582.3138    2.2079279   0.13704357  0.098518443 
   21600   -948.82865    41.817013   -907.01164    1497.7338    9276.0516    2.2022758  0.022474649   0.10801975 
   21700   -951.86479    36.681754   -915.18304    1313.8074     3011.022    2.2025109   0.21068591   0.11645836 
   21800   -955.39453    39.124671   -916.26985    1401.3038   -8125.4605    2.1774945   0.28896233   0.11645144 
   21900    -953.9271    41.372618   -912.55448    1481.8171   -5722.9459    2.1781768    0.2801168   0.11223191 
   22000   -949.46531    42.426296   -907.03901     1519.556    6064.9965    2.1999636   0.23935894   0.10625864 
   22100   -953.93918    37.819369   -916.11981    1354.5527    13425.476    2.2293274  0.014348583  0.091639258 
   22200   -953.35927    37.720037   -915.63923    1350.9949   -1707.1171    2.1917481   0.04743215   0.10204055 
   22300   -952.09225    37.339997   -914.75225    1337.3833   -8222.3204    2.1717391  0.078283311  0.099321569 
   22400   -954.35486    36.905808   -917.44905    1321.8322   -3117.7852    2.1912419   0.14070282   0.10582096 
   22500   -957.77613    36.379181   -921.39695    1302.9703    5472.7299    2.2199808   0.09456528  0.090609567 
   22600   -957.87269    42.279763   -915.59293    1514.3078    2635.9673    2.2099986   0.13556622  0.098483921 
   22700   -955.68734    41.180545   -914.50679    1474.9378   -2973.0624    2.1936189  0.098846863   0.10304357 
   22800   -956.53396    38.021759    -918.5122    1361.8015   -6175.9701    2.1878389   0.11764987   0.10052956 
   22900   -958.24775    37.650714   -920.59704     1348.512   -2418.8152    2.2006112    0.3502108  0.093319085 
   23000   -952.74207    38.338509   -914.40356    1373.1464    4207.9378    2.2061479   0.18075054  0.092115367 
   23100   -957.18721    42.133402   -915.05381    1509.0657    3279.7375    2.2073086   0.49947247  0.099438202 
   23200   -955.72637    34.172148   -921.55423    1223.9224   -80.994144    2.2020974  0.035305248  0.084178956 
   23300   -951.39477    35.160533   -916.23424    1259.3228    -3886.436    2.1838934  0.072019408   0.10512412 
   23400   -953.73545    39.452468   -914.28298    1413.0443    870.21867    2.1981906    0.1216098  0.095828095 
   23500   -957.45506    41.350212   -916.10484    1481.0146    5504.8648    2.2179863   0.06919751  0.083463455 
   23600   -955.36858    33.764179    -921.6044    1209.3105    6124.3053    2.2204832  0.017411769   0.10148924 
   23700   -954.48409    38.571127   -915.91297    1381.4779   -5068.6937    2.1836432    0.1174248  0.085241139 
   23800   -952.41954    37.760764   -914.65878    1352.4536   -6785.4507    2.1773915   0.30333085   0.10218143 
   23900   -952.38096    36.836012   -915.54495    1319.3323    4332.1277    2.2070933  0.091118434   0.10511442 
   24000   -956.70163    40.668709   -916.03292    1456.6057    13253.596    2.2356871  0.025632296  0.097528336 
   24100    -950.3835     43.42829   -906.95521    1555.4439     3248.109    2.1946113  0.064717549   0.10542913 
   24200     -953.822    41.435764   -912.38624    1484.0788   -10529.553    2.1699772   0.28463907   0.10786505 
   24300    -955.5711    39.477666   -916.09344    1413.9468    -9476.416    2.1763695  0.069164891  0.099745896 
   24400   -953.16322    37.713351   -915.44987    1350.7555    5477.4423    2.2079833 0.0092540303  0.094093249 
   24500   -948.83316    41.675855   -907.15731     1492.678    8303.1226    2.2089726 0.0078583628   0.10736391 
   24600   -953.17473    38.932361   -914.24237     1394.416    4391.9258    2.2067796    0.0339451  0.098789149 
   24700   -955.65498    39.025761   -916.62922    1397.7612   -6416.3299    2.1876064  0.028753351  0.096488141 
   24800     -953.499    41.296718   -912.20228    1479.0987   -5229.2529      2.18257   0.25504441   0.10021756 
   24900   -951.11086    41.442002   -909.66885    1484.3022   -147.77932    2.1899458   0.18841774   0.10911048 
   25000   -955.41233    38.999134    -916.4132    1396.8076    3384.5172    2.2093719   0.20938714   0.11211002 
   25100   -954.55401    39.710006     -914.844    1422.2684    3419.8739    2.2034543  0.073674054   0.10621856 
   25200   -949.33469    39.384306   -909.95038     1410.603   -973.86201    2.1847506  0.048821738   0.11570009 
   25300   -951.34329    36.464166   -914.87913    1306.0142   -3412.2484    2.1827004    0.1205096   0.10927741 
   25400   -954.00798    37.042282    -916.9657    1326.7202    -1225.483    2.1917151  0.019108154   0.09929252 
   25500   -955.74313    41.050422   -914.69271    1470.2772    2826.1805    2.2077291   0.03087117  0.098199281 
   25600   -951.03304    37.164159   -913.86888    1331.0854    6844.4401    2.2071423  0.030088041  0.094161101 
   25700   -960.10328    37.786593   -922.31668    1353.3787   -2413.5019    2.2049275   0.20229248  0.085893089 
   25800   -954.57043    37.066639   -917.50379    1327.5926    -9208.672    2.1749116   0.15686169    0.0965078 
   25900   -951.73424    37.053192   -914.68104     1327.111   -4503.7737    2.1813287  0.037887539    0.1002587 
   26000   -955.67272    41.312803   -914.35992    1479.6748    6191.0191    2.2143917  0.081567516   0.10145159 
   26100   -956.67372    34.899307   -921.77442    1249.9666    14463.398    2.2401088  0.075093619  0.090662707 
   26200   -952.94825    37.941846    -915.0064    1358.9393    -2832.381    2.1885762  0.050755856    0.1189187 
   26300   -953.69493    39.051253   -914.64368    1398.6743   -12855.933    2.1624389  0.071599232    0.1184864 
   26400   -956.69786    39.488447   -917.20942     1414.333   -3274.5026    2.1906034  0.029965878    0.1042308 
   26500   -959.04235    37.529146    -921.5132    1344.1579     6863.603    2.2263282  0.075231617   0.09794707 
   26600   -953.61108    40.298593   -913.31249    1443.3495    2610.8428    2.1977318  0.094942582  0.091226389 
   26700   -951.00712    35.937654   -915.06946    1287.1564    271.24981    2.1925735   0.15553378   0.10638479 
   26800   -955.64841    36.981395   -918.66701    1324.5395   -3451.4524     2.197043  0.018755879   0.11060962 
   26900   -956.84739    35.256882   -921.59051    1262.7736    355.81172    2.2085381  0.041202971    0.1037092 
   27000   -954.34878    41.325989    -913.0228    1480.1471   -2868.0284    2.1902046   0.14695693  0.090873254 
   27100   -955.27327    40.430378   -914.84289    1448.0695    -1249.437    2.1941129   0.21875098  0.097545942 
   27200   -953.47695    36.613858   -916.86309    1311.3756    1447.2359    2.2011495  0.074982098   0.10931087 
   27300   -956.64642    37.877747   -918.76867    1356.6435     3016.522    2.2107706  0.097448339   0.10920026 
   27400   -951.07981    41.299203   -909.78061    1479.1877   -3411.2203    2.1840032   0.15230004   0.13598815 
   27500   -950.83818    37.752754   -913.08543    1352.1668   -617.41397     2.188137   0.76123536   0.11841564 
   27600   -955.19963    39.567776   -915.63185    1417.1742    1751.9378    2.2009748   0.23830872   0.10311249 
   27700   -956.92196    39.804388   -917.11757    1425.6488    4473.0829     2.209392  0.047799523  0.092892115 
   27800   -947.98483    39.898347   -908.08649    1429.0141   -141.49532    2.1803978   0.21558881   0.10817721 
   27900   -953.44086    40.027221   -913.41364    1433.6299   -2509.5364    2.1874356  0.016719942   0.10284883 
   28000    -953.7784     37.20449   -916.57391    1332.5299    725.55741    2.1991146  0.098014035   0.10192577 
   28100     -952.259    37.871006     -914.388    1356.4021    6325.3064    2.2091749  0.049425363   0.10656385 
   28200   -952.14494    43.601752   -908.54319    1561.6567    110.40617    2.1895542 0.0091290142  0.099493761 
   28300   -954.51098    38.344337   -916.16664    1373.3551   -3025.9541    2.1881909  0.084209349  0.098328559 
   28400   -954.40901    38.472111    -915.9369    1377.9315   -3375.0324    2.1870259   0.10369152   0.11231575 
   28500   -950.37844    40.122282   -910.25616    1437.0346    2961.9951    2.1950209   0.10342979   0.11912996 
   28600   -953.16829    39.376622   -913.79167    1410.3278    6186.1871    2.2096343   0.11369845   0.11654004 
   28700   -957.45265     40.44205    -917.0106    1448.4876   -3300.1987    2.1952795  0.018177024   0.11677436 
   28800    -953.8227    39.054305   -914.76839    1398.7836   -6147.4033    2.1800279  0.044027479   0.10253687 
   28900   -949.52638    38.884248   -910.64213    1392.6928   -1477.6364    2.1823156  0.029750451   0.10686204 
   29000    -957.3538    38.601048   -918.75275    1382.5495    7296.7358    2.2199152   0.13601882    0.0958821 
   29100   -956.46685    39.075938   -917.39092    1399.5584    3516.1373    2.2108744 0.0061425413  0.094884837 
   29200   -954.09174    39.447357   -914.64439    1412.8613   -5962.1042    2.1810628   0.13200508   0.10541271 
   29300   -951.42745    38.118608   -913.30884    1365.2703   -9382.0457    2.1696907  0.035575611  0.095751491 
   29400    -961.5809    39.959175   -921.62173    1431.1927    990.73381    2.2152185   0.04882024  0.091931785 
   29500   -954.87332    39.541444   -915.33187    1416.2311    11849.532    2.2274247  0.036561278   0.10399192 
   29600   -951.04354    37.333164   -913.71038    1337.1385    5783.1306    2.2031738  0.051040513   0.10957737 
   29700    -951.8054    33.077968   -918.72743    1184.7329   -9112.4725    2.1728872   0.13479534    0.1203954 
   29800   -956.67432    37.420702   -919.25362    1340.2738   -9595.5698    2.1798658  0.032492217   0.10836693 
   29900   -954.22062    40.700309   -913.52031    1457.7375    2152.4461    2.2020191  0.097722273   0.11073477 
   30000   -953.13294    37.486224   -915.64672    1342.6206    7837.8062    2.2146733  0.091393325   0.10698934 
   30100   -959.04913    38.506908   -920.54222    1379.1778    1236.5485    2.2055544   0.35636445  0.092541242 
   30200   -952.43682    39.924917    -912.5119    1429.9657   -3690.4512    2.1806616  0.016767696  0.093330644 
   30300   -951.11095    37.281069   -913.82988    1335.2727    879.02051    2.1919411  0.075042068     0.104953 
   30400   -955.62965    38.721998   -916.90765    1386.8815    2283.9467    2.2051768  0.042491037  0.089686916 
   30500    -957.7017     39.86306   -917.83864    1427.7502    1382.5648    2.2044771 0.00067836984  0.091679416 
   30600   -953.14289    43.543775   -909.59911    1559.5801   -5914.2547    2.1756764   0.01424748   0.10007097 
   30700   -952.68378    37.845696   -914.83808    1355.4956   -3198.8202    2.1848604     0.117238   0.10010992 
   30800   -957.13411    40.243565   -916.89054    1441.3786    1033.4462    2.2022421  0.041511244  0.099340443 
   30900   -951.30413     40.15733    -911.1468    1438.2899    8328.3212    2.2109458  0.073975669   0.11405248 
   31000   -952.40765    40.872781   -911.53487    1463.9148    3953.6477    2.1970842  0.021493887   0.11026407 
   31100   -956.21196    39.135886   -917.07607    1401.7055   -10390.709     2.177615   0.21687862    0.1011852 
   31200   -955.31127    40.690645   -914.62062    1457.3913   -9299.4194    2.1743423   0.11618402   0.10264509 
   31300   -951.30426    42.877183   -908.42707    1535.7052    4373.9834    2.1980153   0.13674436   0.10730239 
   31400   -954.99656    38.360521   -916.63604    1373.9348    16789.552    2.2421085  0.040838415   0.10301767 
   31500   -956.74616    40.755096   -915.99106    1459.6997    755.05175    2.2020829   0.10494404  0.096130598 
   31600    -950.2707    37.423504    -912.8472    1340.3742   -12230.927    2.1584781  0.012766867   0.10545095 
   31700    -956.8435    37.219679   -919.62382    1333.0739   -7984.8405    2.1828566  0.075813513  0.096602261 
   31800    -958.8733    40.548063   -918.32524    1452.2846    2008.1914    2.2099128   0.16685754  0.099773721 
   31900   -954.56835    41.209802   -913.35855    1475.9857    3352.6575    2.2067433   0.21369554    0.1158327 
   32000    -953.9574    37.194178   -916.76322    1332.1606   -701.84926    2.1946447   0.15520272   0.11908961 
   32100   -957.35915    36.547675   -920.81147    1309.0052   -3709.7339    2.1946548  0.025574067   0.11059779 
   32200   -954.49762    40.862112    -913.6355    1463.5327   -3229.9764    2.1866057  0.079555273   0.10545145 
   32300   -953.76709    38.290925   -915.47617    1371.4421    3132.0794    2.2009602  0.060850514   0.10371698 
   32400   -958.53539    38.302283   -920.23311    1371.8489    4174.8316      2.21464  0.036512063  0.091437966 
   32500   -953.02409    41.088061   -911.93603    1471.6253   -2056.2203     2.186572   0.11707284   0.10267706 
   32600   -953.27046    38.655323   -914.61514    1384.4935   -2799.8017    2.1844543  0.072723662   0.10464053 
   32700   -952.54816    34.583418   -917.96475    1238.6526    2477.8085    2.2005982  0.089011994   0.10242393 
   32800   -955.28261     42.93085   -912.35176    1537.6274    4211.7294    2.2058198   0.10079356   0.10213862 
   32900   -955.80965    43.845028   -911.96462    1570.3699    2399.9664    2.2025884   0.10923308   0.10121856 
   33000   -954.55508    37.239714   -917.31537    1333.7915   -5590.1274    2.1841053   0.14000683   0.11890393 
   33100   -955.69176    41.614576   -914.07718    1490.4832   -11395.082    2.1713866   0.16348697   0.11437152 
   33200   -949.23337    39.381281   -909.85209    1410.4947    1603.8964    2.1895424    0.2843605   0.13773162 
   33300   -958.30634    41.740487   -916.56585    1494.9929    9331.8145    2.2302257   0.15146435   0.11582149 
   33400    -956.3296    41.113371   -915.21623    1472.5319    5072.8907      2.21333  0.062715484  0.099442711 
   33500   -952.43315    41.669024   -910.76413    1492.4333    -9139.459    2.1667537  0.091559275    0.1224792 
   33600   -957.30981    38.060871   -919.24894    1363.2024   -9820.0022    2.1806633  0.035380965   0.10158636 
   33700   -955.72255    39.088104   -916.63444    1399.9941    957.26712    2.2041493  0.029507313   0.10587504 
   33800   -952.58465    40.414039   -912.17061    1447.4843    8435.1526    2.2131819  0.086467827   0.10464502 
   33900   -955.43245    37.417425   -918.01502    1340.1565    2204.8073    2.2068988   0.10763957  0.099969387 
   34000   -958.01101    39.417757   -918.59325    1411.8011   -6251.0631    2.1898227   0.26626233  0.096047364 
   34100   -952.31951    38.816857   -913.50266     1390.279   -3131.6147    2.1869011   0.13974823   0.12165689 
   34200   -957.33698    40.607242   -916.72973    1454.4041   -1696.8629    2.2008229   0.18584344   0.12252745 
   34300   -958.19862    37.906423    -920.2922    1357.6706    3734.2146    2.2159915  0.053843147    0.1082988 
   34400   -955.67007     42.70596   -912.96411    1529.5726   -473.55119     2.196826   0.10803013   0.11953907 
   34500   -955.86635    39.950942   -915.91541    1430.8979   -4255.8089    2.1921423  0.070461372   0.12076081 
   34600   -957.21647    37.175947   -920.04052    1331.5076   -2446.3878    2.1996225   0.18451697  0.096448597 
   34700   -951.65467    39.718116   -911.93655    1422.5589   -161.32673    2.1923185  0.042880953   0.11709209 
   34800   -953.92626    39.752708   -914.17355    1423.7978    6183.2683    2.2096758  0.048912395     0.101631 
   34900   -956.79272    38.982052   -917.81067    1396.1957    3781.6196    2.2121857  0.016570472  0.092968497 
   35000   -950.31489    39.522201   -910.79269    1415.5419   -3185.0449    2.1826982  0.049351208   0.11068276 
   35100   -954.38386    41.864999   -912.51886    1499.4525   -8447.5403    2.1765083  0.081134234   0.10452126 
   35200   -957.59331    40.161851   -917.43146    1438.4518   -3272.7736    2.1979926   0.10524085   0.10287681 
   35300   -957.27677    43.920664    -913.3561    1573.0789    8787.0953    2.2276721  0.034843775   0.11417512 
   35400   -955.43301    45.789989   -909.64302    1640.0314     4986.119    2.2090427  0.038895254   0.11577667 
   35500   -953.41272    36.000381   -917.41234    1289.4031    -5477.044    2.1849904  0.028124737   0.12194788 
   35600   -954.34345    38.594286   -915.74916    1382.3074   -11190.699    2.1701086   0.06646427   0.11638563 
   35700   -950.69242    39.609268   -911.08315    1418.6603   -23.946032     2.190689  0.097579265   0.10487591 
   35800   -957.80008    38.818725   -918.98136    1390.3459    10746.601    2.2316144  0.043412594  0.095813245 
   35900   -953.12046     35.99619   -917.12427     1289.253    4839.1698    2.2111681   0.16527693   0.10201598 
   36000   -953.92306    40.415013   -913.50805    1447.5192   -6911.4925    2.1822397  0.093024703   0.10116913 
   36100   -953.45976    37.026169   -916.43359    1326.1431   -5901.4878    2.1817459 0.0031688607  0.097474922 
   36200    -956.8655    37.093032   -919.77247    1328.5379    1114.8918     2.209814   0.20929632  0.095322682 
   36300   -951.32662    38.341489   -912.98513    1373.2531    7604.6983    2.2111036  0.029182497   0.10589111 
   36400   -951.52391    35.700504   -915.82341    1278.6626    3533.4141    2.2022519   0.10559224   0.10751332 
   36500   -957.65064    36.559924   -921.09072    1309.4439    -3146.248    2.1977411   0.14635513   0.10343215 
   36600    -954.5238    41.433152   -913.09065    1483.9853   -5557.1473    2.1817369  0.036273721    0.1083573 
   36700   -955.91179    41.176372   -914.73542    1474.7883     517.3781    2.2003385    0.2713256   0.10391455 
   36800   -956.61631    37.703446   -918.91287    1350.4007    3965.5918    2.2139418  0.086179733   0.10832581 
   36900   -953.13784    41.742846   -911.39499    1495.0774    909.61012    2.1944061  0.050274971  0.098893224 
   37000   -954.37958    41.107408   -913.27217    1472.3183   -2225.1056    2.1939148 0.0095394946  0.099240385 
   37100   -955.59265    38.003734   -917.58892    1361.1559   -1656.0468    2.1965564   0.10379069  0.092982071 
   37200   -953.97904    41.059723   -912.91931    1470.6104    546.82562     2.195364   0.14755951  0.096307271 
   37300   -955.73161    44.408011    -911.3236    1590.5339   -393.24574    2.1943797   0.19063336  0.093862308 
   37400   -956.03133    38.866486   -917.16484    1392.0566    5.1630014    2.2000202   0.15422739  0.098020715 
   37500    -952.6087     38.47724   -914.13146    1378.1152    733.96165    2.1941329   0.14310424   0.10389606 
   37600   -948.50795    38.793936   -909.71401    1389.4581    1012.6823    2.1879242  0.055550968   0.11353529 
   37700    -955.4213    37.659413   -917.76189    1348.8236    3703.2055    2.2096995  0.064186507   0.11538724 
   37800   -953.81836    38.848205   -914.97016    1391.4018    2026.9575    2.2004647   0.14454592   0.11254498 
   37900   -948.93619    37.807604   -911.12859    1354.1313   -45.328011    2.1859937  0.049198815   0.11145486 
   38000     -956.749    37.218633   -919.53036    1333.0365   -208.74674      2.20098   0.10622162  0.095530206 
   38100   -952.53102    36.214881   -916.31614    1297.0857    266.25907    2.1953773   0.20420021   0.10029761 
   38200   -953.21398    40.486727   -912.72726    1450.0877    421.12803    2.1941834  0.019832493  0.093313241 
   38300   -956.24653    36.332015   -919.91451     1301.281    3363.7406    2.2107404  0.054345889  0.092292337 
   38400   -952.82751    35.780312    -917.0472     1281.521    201.05234    2.1953216   0.11547788  0.098005744 
   38500   -953.02712    39.512846   -913.51428    1415.2069   -6287.2579    2.1805567  0.078535132   0.10038488 
   38600   -958.73283    40.171676   -918.56116    1438.8037   -2808.5453    2.1975114  0.036341996  0.092775285 
   38700   -955.09031    37.138203    -917.9521    1330.1557    7296.7182    2.2190662 0.0064174895   0.10125066 
   38800   -953.71702    41.712501   -912.00452    1493.9905    5440.2785    2.2090762   0.27401376  0.099759529 
   38900   -955.07552    37.939201   -917.13632    1358.8446   -4035.3702    2.1888602 0.0053543856   0.10977845 
   39000   -954.97826    36.765582   -918.21268    1316.8098   -8764.3583    2.1781199  0.093816665   0.11650932 
   39100   -949.08303    38.001945   -911.08108    1361.0919   -2470.3164     2.179113  0.095714755   0.11057016 
   39200   -955.01212    38.989793   -916.02233     1396.473    7258.7795    2.2170975   0.22589691   0.10378964 
   39300    -956.7363    39.580434   -917.15587    1417.6276    6061.6768    2.2209613   0.14573885    0.1000976 
   39400   -950.94855    41.152337   -909.79621    1473.9275   -5608.3034    2.1789422  0.091602541   0.10512925 
   39500   -952.99302    36.580407   -916.41261    1310.1775    -6957.618    2.1767842  0.029225732   0.10505648 
   39600   -956.01125    39.125512   -916.88574    1401.3339    -3725.211    2.1926744  0.036251639   0.10603943 
   39700   -954.99803    44.456635    -910.5414    1592.2755    4848.3329    2.2058286  0.031676611  0.099972336 
   39800   -954.52288    38.124579    -916.3983    1365.4842    6345.4456    2.2126059   0.17697918  0.094691801 
   39900   -956.34665    38.588501   -917.75815    1382.1002   -4146.5963    2.1888799  0.063198531  0.089754807 
   40000   -953.37166    40.259368   -913.11229    1441.9446   -9447.9767    2.1707906   0.10731629   0.11442373 
   40100   -955.89547    40.521943   -915.37352     1451.349   -3392.7378    2.1906992   0.13467735   0.10248276 
   40200   -958.21826    38.991182   -919.22708    1396.5228    5001.9294    2.2194822  0.011605662   0.10031588 
   40300   -954.83936    41.692747   -913.14662     1493.283    4858.1614    2.2080667  0.012603315   0.10827304 
   40400   -954.21501    38.534271   -915.68073    1380.1579   -3975.5478    2.1878595  0.064057671  0.097686423 
   40500   -961.34206    40.162554   -921.17951     1438.477   -7561.5924    2.1893265   0.10736753  0.090842019 
   40600   -953.24496    39.589425   -913.65553    1417.9496   -3195.8631    2.1889137   0.15057767   0.10658173 
   40700   -953.95439    39.205975   -914.74841    1404.2159    2411.6411    2.2024438  0.094557135  0.095598819 
   40800   -958.10335    37.834625   -920.26872     1355.099    1758.1396    2.2095627  0.032102794  0.099346996 
   40900   -954.41212    41.738867   -912.67326    1494.9348   -1146.4749    2.1905207  0.029327019  0.096729956 
   41000    -953.2192    39.189796    -914.0294    1403.6364   -864.27487    2.1924389   0.17295744  0.098950013 
   41100   -954.46705     36.51443   -917.95262    1307.8145    1721.5882     2.200574   0.12356563   0.09829737 
   41200   -952.66563    41.032585   -911.63304    1469.6384    860.29074     2.193481  0.047482887  0.092520016 
   41300   -951.06429    38.657249   -912.40704    1384.5625    2351.2319    2.1952388   0.27210878   0.10310852 
   41400   -955.74909    38.332598   -917.41649    1372.9346   -1313.3817     2.196788  0.025069211   0.10525923 
   41500   -952.48403    38.868273   -913.61575    1392.1206    659.22169    2.1922724  0.036520006    0.1133908 
   41600   -953.53618    43.023878    -910.5123    1540.9593   -2667.2648    2.1877423  0.067306284   0.11534817 
   41700   -956.35017    38.853541   -917.49663    1391.5929    1560.2542    2.2043474  0.039367747  0.097199665 
   41800   -955.63769    41.167337   -914.47036    1474.4647    2811.6921    2.2036069  0.023865107  0.091487765 
   41900   -951.59314    41.285417   -910.30773    1478.6939   -429.63276    2.1878399  0.026021512   0.11400105 
   42000   -956.05451    37.377618   -918.67689    1338.7307   -3850.4156    2.1920946   0.02684561  0.093551898 
   42100   -954.76976      38.7894   -915.98036    1389.2956   -2856.5335    2.1919595  0.082990893  0.091821925 
   42200   -953.08868     41.16437   -911.92431    1474.3585    4142.7699    2.2028396  0.060327219   0.10071733 
   42300    -956.1413    36.451948   -919.68935    1305.5766    7803.3505    2.2234781  0.018760824  0.091758618 
   42400   -956.45872    39.421093   -917.03763    1411.9206   -4394.6504    2.1962091   0.15296725   0.10939892 
   42500   -952.01147    38.444568    -913.5669     1376.945   -9348.6205    2.1732754  0.045302987   0.11216739 
   42600   -956.67967    38.264143   -918.41553    1370.4828   -4636.6616    2.1923033  0.075785339  0.099318976 
   42700   -957.23912      38.6749   -918.56422    1385.1946      4007.91    2.2174916  0.086916391   0.10464784 
   42800   -952.42231     40.16511    -912.2572    1438.5686    9868.8975    2.2144756  0.039323495  0.099432604 
   42900   -954.88853    37.640326    -917.2482      1348.14    -2414.238    2.1935846   0.08102714   0.11350975 
   43000   -954.36753    35.015647   -919.35189    1254.1335   -8270.0068    2.1770947  0.039953947  0.095320128 
   43100   -950.06776    38.214336   -911.85342    1368.6989   -4924.7643    2.1778311  0.075821197   0.10049871 
   43200    -954.4619    39.208838   -915.25306    1404.3184    7686.1276    2.2162913   0.11110377  0.099544906 
   43300   -955.01142    37.400955   -917.61047    1339.5666    9889.1303    2.2234838    0.1256033  0.089023315 
   43400   -950.89397    41.140701   -909.75327    1473.5107   -2767.6723    2.1832343    0.0267989   0.11317784 
   43500   -953.53768    38.444638   -915.09304    1376.9475   -4258.6078    2.1834596   0.11816714   0.10732216 
   43600   -954.54335    37.490419   -917.05293    1342.7708   -1064.3557    2.1948166   0.27039189   0.10698135 
   43700   -950.10011    39.698869   -910.40124    1421.8695    2586.2484    2.1974982   0.03741182   0.11464649 
   43800   -957.03151    41.511561   -915.51995    1486.7936   -115.18061    2.2040976  0.050146908   0.11589685 
   43900    -955.3345    37.810576   -917.52392    1354.2377   -1329.8558    2.1976415  0.026461692   0.10340756 
   44000   -953.78533    41.256957   -912.52838    1477.6746   -4068.4959    2.1881742   0.09289819   0.10594171 
   44100   -956.37053    41.465702   -914.90483    1485.1511   -2264.3787    2.1945365   0.14060751   0.10009046 
   44200   -957.04491    38.056754   -918.98816    1363.0549    1095.7167     2.207923  0.026224218   0.08959873 
   44300   -954.00912    40.533503   -913.47562    1451.7631    2910.5066    2.2027475  0.066828412   0.10798345 
   44400   -953.64767     38.66193   -914.98574    1384.7301    96.647646    2.1988417   0.11590936  0.089939586 
   44500   -956.08163    35.444456   -920.63717    1269.4919    -3167.874    2.1961507  0.033910794  0.090096661 
   44600   -952.58715     38.59409   -913.99305    1382.3004   -3671.5742    2.1849558    0.1306459   0.10114462 
   44700   -952.03781    37.539424   -914.49839     1344.526    6150.3962     2.204661  0.084788185   0.09649928 
   44800   -956.85134    36.544671   -920.30667    1308.8976    9439.6266    2.2280462  0.046442111  0.098096373 
   44900   -954.42928    41.809121   -912.62016    1497.4511   -1911.8963    2.1895499   0.22657753  0.090363642 
   45000   -950.78474    36.456782   -914.32796    1305.7497   -9361.7671    2.1643299   0.27599329   0.11466678 
   45100    -954.3252    36.111258   -918.21395    1293.3743   -3943.0043    2.1847309  0.080002601   0.10002093 
   45200   -957.05994    40.770129   -916.28981    1460.2381    9614.5458    2.2218807   0.14056578  0.087489397 
   45300   -953.13546    42.156054    -910.9794     1509.877    8916.7851    2.2137618  0.037452613  0.096599316 
   45400   -955.16534    38.857494   -916.30785    1391.7345   -2958.7128    2.1885248  0.084402409  0.091902981 
   45500   -954.44589     37.45387   -916.99202    1341.4618   -9226.4223    2.1750744   0.17223977   0.10180648 
   45600   -945.86868    36.989591   -908.87909     1324.833    711.02542    2.1770997   0.14023707   0.10112527 
   45700   -954.05067    38.855663   -915.19501    1391.6689    8672.6053    2.2138951   0.02805118   0.11117293 
   45800   -955.67459    39.122033   -916.55256    1401.2094    5210.8585    2.2098721   0.11072575  0.090386337 
   45900   -952.72847    41.306756   -911.42172    1479.4582   -3451.1835    2.1819345  0.091238921   0.10191799 
   46000   -950.97928    37.838822   -913.14046    1355.2494   -5464.9835    2.1748495  0.094919132   0.11461729 
   46100   -955.85642    38.083948   -917.77247    1364.0289   -1549.8389    2.1965233  0.032153959  0.096592084 
   46200   -956.22257    42.693032   -913.52954    1529.1096    4229.3226    2.2059661 0.0021112465   0.10428927 
   46300   -952.82313    40.107321   -912.71581    1436.4988    3303.3142    2.2009845  0.056896437   0.10037578 
   46400   -960.69618    40.641459   -920.05472    1455.6297   -3787.9524    2.2002718   0.07918424   0.10134463 
   46500   -958.33978    42.884447   -915.45533    1535.9654   -5563.7514    2.1891708  0.027310161  0.098415029 
   46600   -952.71127    39.398161   -913.31311    1411.0993    -94.86115    2.1930828   0.18701166  0.098318149 
   46700   -956.11079    35.159979   -920.95081    1259.3029    4155.3875    2.2152379   0.11210005  0.099427175 
   46800   -955.02078    39.102723   -915.91806    1400.5177   -684.25564    2.1977014  0.048668188  0.092372981 
   46900   -955.75497    41.889672   -913.86529    1500.3362   -4749.4586    2.1842488   0.13144904   0.10831645 
   47000   -956.50318    37.496229   -919.00695    1342.9789   -4958.5531     2.189483   0.12898817  0.093234012 
   47100   -956.22359    38.573628   -917.64997    1381.5675    4146.9262    2.2099024  0.065511737  0.094784702 
   47200   -953.52319    41.583163   -911.94002    1489.3581    11148.892    2.2206762   0.08566738   0.11192046 
   47300   -956.17611    39.849697   -916.32641    1427.2716    -1425.456    2.1935615   0.09516117  0.093668195 
   47400   -954.13782    36.438343   -917.69948    1305.0893   -13570.292    2.1628052  0.010065012   0.10813553 
   47500   -949.27776    39.886906   -909.39085    1428.6043   -6818.2786    2.1654752   0.18180129   0.10726273 
   47600    -955.9785    41.933331   -914.04517    1501.8998    7870.2926    2.2172513   0.15296539  0.094779816 
   47700   -956.55948    40.176367   -916.38311    1438.9718    8478.9331    2.2222788  0.011655396  0.088419741 
   47800   -950.11472    37.894098   -912.22062    1357.2292   -92.363231    2.1856624  0.031658455  0.093721737 
   47900   -948.49743    37.195341   -911.30209    1332.2022   -8208.5574    2.1646275    0.1963413   0.10208211 
   48000   -958.36961    40.628575   -917.74104    1455.1682   -6385.0454    2.1891591  0.013391431  0.087925642 
   48100   -953.95976    40.113216   -913.84654    1436.7099    5709.7265    2.2093772   0.12453982   0.10166827 
   48200   -951.92629    41.805046   -910.12124    1497.3051      6893.87    2.2057105  0.072404544  0.098295787 
   48300   -955.70238    37.049577   -918.65281    1326.9815    1058.6865    2.2020232   0.16628266   0.10063323 
   48400   -955.29536    39.286717   -916.00864    1407.1077   -7662.8963     2.176614  0.063423686   0.10765178 
   48500   -952.26546     39.60615   -912.65931    1418.5487   -4637.0193    2.1777376  0.089155251   0.10835798 
   48600   -957.97484    37.625018   -920.34982    1347.5917     2471.285    2.2131434  0.030660855  0.095456029 
   48700   -954.52159    36.807468   -917.71413      1318.31    5311.9254    2.2119721  0.040393966   0.10003951 
   48800   -953.40705    40.037382   -913.36967    1433.9938    493.42432    2.1921794  0.058253807  0.086703108 
   48900   -955.91023    39.281395   -916.62884    1406.9171     -6429.72     2.184345   0.16651086  0.099175403 
   49000   -954.62727    34.343258   -920.28401     1230.051    429.61503    2.1990515  0.045103525  0.090631349 
   49100    -953.4021    40.193161   -913.20893    1439.5733    2447.5947    2.1985331  0.053059943  0.096327028 
   49200   -954.72624    38.917378   -915.80886    1393.8794     4303.172    2.2046933   0.11059807  0.084512391 
   49300   -954.58584    34.200747   -920.38509    1224.9467    1831.9086     2.204191   0.17843151   0.09920282 
   49400   -952.29964    40.285095   -912.01454     1442.866   -5154.4666    2.1766797  0.063548178   0.10642026 
   49500   -953.33348    38.415299   -914.91818    1375.8967   -1829.0905    2.1896283  0.016290635   0.10806611 
   49600   -958.09293    40.056703   -918.03623    1434.6858    3546.6631    2.2100865   0.09140682   0.10556849 
   49700    -954.4403    44.135535   -910.30476    1580.7748    3541.2053    2.2016805  0.074032486  0.097259777 
   49800   -951.34881    37.956445   -913.39236    1359.4622      1988.14    2.1948874  0.010525869   0.10247466 
   49900   -954.05118     36.36551   -917.68567    1302.4807   -15123.196    2.1584439  0.041422078  0.098276157 
   50000   -950.27899    37.430383    -912.8486    1340.6206   -8760.2262    2.1636941  0.096677936   0.10802008 
   50100   -950.77587    41.847925   -908.92795    1498.8409    13489.338    2.2187749    0.0332819  0.091697312 
   50200   -953.71174    37.530641    -916.1811    1344.2114    18297.476    2.2399014  0.027059453  0.097102176 
   50300   -955.45125    40.141166   -915.31009     1437.711   -2218.6871    2.1921798      0.10863   0.09810396 
   50400   -949.21362    37.593628      -911.62    1346.4674   -10238.191    2.1566168   0.16100839   0.10336393 
   50500   -953.68689    33.231243   -920.45565    1190.2226   -3380.0733    2.1913458   0.03071101   0.10697286 
   50600   -955.88634    38.895021   -916.99132    1393.0786    4559.5094    2.2120989   0.12450187   0.10181351 
   50700   -952.50781     39.75782   -912.74999    1423.9809    9189.6606     2.213137  0.016520199   0.10722312 
   50800   -955.11638    37.622581    -917.4938    1347.5044   -1599.7766    2.1935197  0.091505438  0.096276997 
   50900   -954.43763    34.726651   -919.71098    1243.7827   -5594.3973    2.1833496   0.10001035  0.097827621 
   51000   -951.50062    37.843342   -913.65728    1355.4113   -624.90565    2.1854162  0.041101727  0.094026755 
   51100   -953.39888    37.858007   -915.54088    1355.9365    7131.0984    2.2117607    0.1001166  0.097060821 
   51200   -956.12072    35.629295   -920.49142    1276.1121    8967.7401    2.2223706  0.098002574   0.10110044 
   51300   -954.39818    41.990662   -912.40752    1503.9532   -5021.8092    2.1811647  0.033218737  0.093858378 
   51400   -954.71486    39.645019   -915.06984    1419.9408   -8189.5972    2.1750996  0.058743994  0.094038452 
   51500   -958.13592    39.456921     -918.679    1413.2038   -2029.3646    2.1976545  0.046957331  0.092658424 
   51600   -953.40294    41.490543   -911.91239    1486.0408    8048.9887    2.2113043  0.099155272  0.087767454 
   51700   -951.52179     39.07872   -912.44307     1399.658     8267.091    2.2103241  0.012604127   0.10719456 
   51800    -951.1471     33.76225   -917.38485    1209.2414   -3697.6642    2.1827452  0.034085972   0.11055352 
   51900   -953.55972    40.208022    -913.3517    1440.1055   -10736.812    2.1661106   0.21282271   0.10755006 
   52000   -952.57528    42.166077    -910.4092     1510.236   -2885.0224     2.182553   0.20185496   0.10721624 
   52100   -953.58334    36.848482   -916.73486     1319.779    8935.1574    2.2192739  0.039763663  0.096072849 
   52200   -952.52391    37.794601   -914.72931    1353.6655    7692.5893    2.2081649   0.11320484   0.10207137 
   52300   -948.57501     38.52607   -910.04894    1379.8641   -1928.9089    2.1799591  0.013983196   0.10094799 
   52400   -954.45059    35.981108   -918.46948    1288.7128   -1335.7506    2.1957576   0.11048976   0.10509961 
   52500   -954.37261    38.456624   -915.91598    1377.3768   -71.970581    2.1958028  0.075536515   0.10655377 
   52600   -948.80228    37.321746   -911.48053    1336.7296    4618.1203    2.1923919  0.076713041   0.09727724 
   52700   -955.21309    35.780298   -919.43279    1281.5205    1990.0665     2.204853  0.057403129  0.096570718 
   52800    -954.9287    37.829993   -917.09871    1354.9332   -1546.5341    2.1908919    0.0137745  0.099049699 
   52900    -952.3119    39.077027   -913.23487    1399.5974   -2789.6848    2.1832085  0.028420053   0.12302161 
   53000   -955.27401    36.934497   -918.33951    1322.8597    960.96802    2.2012983  0.089915394   0.10700398 
   53100    -956.4318    37.592784   -918.83902    1346.4372    4245.6934    2.2116407  0.074630047    0.1009979 
   53200   -953.30538    40.395239   -912.91015     1446.811    2192.8756    2.1985729   0.03631271  0.097644346 
   53300    -957.5602    40.543991    -917.0162    1452.1387   -4786.5669    2.1904951  0.093977328  0.092621233 
   53400   -955.77257    35.688532   -920.08403    1278.2338   -4469.9337    2.1909474 0.0074001015    0.1067062 
   53500   -955.58141     42.95104   -912.63037    1538.3505   -2318.8165    2.1919759  0.082056959    0.0986687 
   53600    -955.4303     40.17928   -915.25102    1439.0761     7284.805    2.2173322  0.055924074   0.10114281 
   53700   -956.36055    37.623057    -918.7375    1347.5215    5579.8999    2.2183326  0.087763788  0.086282879 
   53800   -950.86375    40.693011   -910.17074    1457.4761   -6739.1043    2.1721852   0.14778292   0.11224098 
   53900   -956.96061    42.145638   -914.81498    1509.5039   -11394.416    2.1741193  0.042028987   0.10277881 
   54000   -954.22657    37.170117   -917.05646    1331.2988    3078.8924    2.2074449    0.1105039  0.094171583 
   54100   -951.92837    41.289632   -910.63874    1478.8449    11976.983    2.2210855 0.0063212725   0.10471627 
   54200   -952.98749    40.084215   -912.90327    1435.6712    5060.0641     2.206124  0.050907783  0.095745863 
   54300   -954.78764    36.856455   -917.93118    1320.0646   -7690.8559    2.1795186  0.020924881   0.10916619 
   54400   -953.49531      39.9205   -913.57481    1429.8075   -7240.3808    2.1745385  0.026937032   0.10795081 
   54500   -951.02603    40.399185   -910.62685    1446.9523    2962.0267    2.1982762  0.072094453   0.10017113 
   54600    -956.0819    37.671763   -918.41014    1349.2659    8196.8902    2.2232633  0.064956542  0.096438991 
   54700   -951.64672    37.143733   -914.50299    1330.3538    4032.0679    2.1995605   0.12002553   0.09942743 
   54800   -951.11262    38.579199   -912.53342     1381.767    -3519.994    2.1813464  0.079863242   0.10263796 
   54900   -954.26663    33.974833    -920.2918    1216.8553    400.76414    2.1998605  0.028296415   0.10004296 
   55000   -953.44558    38.335077    -915.1105    1373.0234    1940.1856    2.2002727   0.08528318   0.10181254 
   55100   -954.67326    41.623533   -913.04972     1490.804    942.77463    2.2006657  0.055094675  0.095785318 
   55200   -955.81852    35.553428   -920.26509    1273.3949    2597.1569    2.2083892  0.046899165   0.10311472 
   55300    -954.3367    39.588392   -914.74831    1417.9126   -1236.8377    2.1905241  0.042945717   0.11264078 
   55400   -953.58319    39.998546   -913.58465    1432.6029   -2851.1936    2.1864592   0.12304738   0.10678302 
   55500   -956.66752    37.340105   -919.32741    1337.3872    1366.1293    2.2036202   0.12643028  0.093678921 
   55600   -954.53364    40.189578   -914.34406    1439.4449    4156.7422    2.2057995  0.017203649   0.10161679 
   55700   -952.51065     39.92355    -912.5871    1429.9168    3317.5005    2.2013509  0.032899026   0.10227946 
   55800   -956.68985    38.366068   -918.32378    1374.1334   -5600.1995    2.1891305 0.0090550202  0.098936154 
   55900   -952.86505    39.025511   -913.83954    1397.7523   -8775.0828    2.1705686  0.004998248    0.1027357 
   56000   -953.73317    41.964052   -911.76912    1503.0001    86.697546    2.1945614   0.26903584   0.09582461 
   56100   -957.48048    40.936262   -916.54422    1466.1885    11036.588    2.2282549  0.014289482   0.08976599 
   56200   -954.09528    38.152449   -915.94283    1366.4824    7965.9426    2.2150332   0.11650968   0.10308406 
   56300    -950.5154    40.356313   -910.15908    1445.4168   -8242.9966    2.1656093  0.033781925   0.10450876 
   56400   -954.90119     36.95165   -917.94954    1323.4741   -8346.0995    2.1777221   0.02838968   0.10491265 
   56500   -953.44636    37.457284   -915.98908    1341.5841    3251.6904    2.2008895   0.06513542   0.11364995 
   56600    -952.4518    41.767156   -910.68464    1495.9481    7424.9522    2.2101329   0.34954388   0.11165276 
   56700    -955.0547    37.121337   -917.93336    1329.5517    5614.7222    2.2098644   0.11870158   0.10454843 
   56800   -955.97957    38.787182   -917.19239    1389.2162    -6779.638    2.1841347  0.028981122     0.105555 
   56900   -952.18323    39.526813   -912.65642    1415.7071   -5345.6916    2.1781839  0.052676951   0.10835935 
   57000   -955.48082    36.241028   -919.23979    1298.0222    2333.9318     2.207985  0.080273906   0.10300179 
   57100    -956.9297    39.247065   -917.68263    1405.6875    3605.9071    2.2120297  0.088033962  0.090876714 
   57200   -952.52829     39.74136   -912.78693    1423.3914    281.49588    2.1948731  0.024567948  0.097703194 
   57300   -955.19378    37.149555   -918.04422    1330.5623    -2641.741    2.1911187  0.078497929  0.096353815 
   57400   -955.63891    37.439419   -918.19949    1340.9442   -1118.1536    2.1946876  0.013347541   0.10080413 
   57500   -952.53063    40.306598   -912.22403    1443.6362   -29.232174    2.1928051  0.012985464   0.11702813 
   57600    -951.5941    34.541304   -917.05279    1237.1442    5146.7913    2.2051946 0.0012958499   0.11150381 
   57700   -954.58117    36.062848   -918.51832    1291.6404    1348.4001    2.2025952  0.031915953   0.10599197 
   57800   -951.12852    39.875381   -911.25314    1428.1915   -1581.5301    2.1835048    0.2785499    0.1190374 
   57900   -956.27134    39.651268   -916.62007    1420.1646   -192.98046     2.198657  0.052664811  0.099021868 
   58000   -957.15459    39.712722   -917.44186    1422.3657    1586.7596    2.2040626   0.11245059  0.085923038 
   58100    -952.0527    41.888006    -910.1647    1500.2765   -652.27981    2.1885566   0.13997905   0.10350453 
   58200   -954.40269    37.572337   -916.83035    1345.7049   -795.98897    2.1955946   0.13726454  0.093877298 
   58300   -953.55525    36.933262   -916.62199    1322.8155    -1191.071    2.1956882   0.11680278  0.097965769 
   58400   -947.89237    37.908662   -909.98371    1357.7508    2578.9511    2.1885846  0.062566182   0.10611582 
   58500   -953.98007    36.608928   -917.37114     1311.199    2699.1254    2.2049819  0.059756551  0.096631759 
   58600   -953.07099    36.499367   -916.57163    1307.2749    2412.6994    2.1992811  0.090398461   0.10529523 
   58700   -953.52105    42.331961   -911.18909    1516.1773   -2520.6998    2.1847821  0.014565569   0.11776629 
   58800   -958.16182    39.705572   -918.45625    1422.1096   -2064.6124    2.1989849   0.14529576  0.097675342 
   58900   -956.27363    38.993203   -917.28042    1396.5951   -1515.0592    2.1984838  0.016996177   0.10613948 
   59000   -954.14986    41.863034   -912.28683    1499.3821   -503.29477    2.1935112   0.05708924    0.1068991 
   59100   -955.84038    37.397348   -918.44303    1339.4374    893.95595    2.2050172   0.18983181  0.086119072 
   59200   -955.76705    37.869506   -917.89755    1356.3484    1354.0842      2.20125  0.040329097   0.10179193 
   59300   -953.46944    40.717886   -912.75156     1458.367    -1700.249    2.1859229   0.21992135  0.096660949 
   59400   -955.94705    37.801442    -918.1456    1353.9106   -2289.2793    2.1945065  0.077417225  0.094383173 
   59500    -956.1053    38.250385   -917.85492    1369.9901    1908.8887    2.2047852   0.10982319  0.092737335 
   59600   -953.84317    41.809914   -912.03326    1497.4795    2448.7219    2.1990642  0.053239329   0.10558762 
   59700   -956.14042    38.411068   -917.72935    1375.7452   -594.95948    2.2003666  0.066556778   0.10902056 
   59800   -955.64848    38.281302   -917.36718    1371.0974   -909.56763    2.1938499  0.066645227  0.085593144 
   59900   -949.46158    37.972708   -911.48887    1360.0447   -1705.4077    2.1811781  0.046432131   0.11202668 
   60000   -954.00297    36.505209   -917.49776    1307.4842    2047.8942    2.1999177   0.21843008   0.10110666 
   60100   -958.45472     42.00994   -916.44478    1504.6437    2212.5831    2.2075911  0.024230733   0.10458635 
   60200   -952.59013    42.061427    -910.5287    1506.4878    1270.1872    2.1911101   0.31015945    0.1043435 
   60300   -955.75923     38.06928   -917.68995    1363.5035    -2451.661    2.1919083  0.052569322  0.085633958 
   60400    -955.1902    39.328943   -915.86126    1408.6201   -5875.1066    2.1847143  0.050337679  0.091264891 
   60500   -951.83383      41.2202   -910.61363    1476.3581   -2120.2374    2.1868831  0.015710489   0.10177711 
   60600   -957.09912    38.983959   -918.11517     1396.264    7086.3903    2.2202189  0.060548894   0.10030301 
   60700   -954.89593    39.236235    -915.6597    1405.2996     5115.628    2.2081677   0.21282098  0.090320158 
   60800    -952.1568    39.944267   -912.21253    1430.6588   -6281.8835    2.1721714   0.22403126   0.10836726 
   60900   -954.38399    34.674139   -919.70985    1241.9019   -5929.9734     2.180795  0.017547358  0.086000814 
   61000   -956.25163    39.965456   -916.28617    1431.4177   -661.99525    2.1964069   0.17407456  0.092375468 
   61100   -954.49748    42.630976    -911.8665     1526.887    7127.3247    2.2147451  0.032680084   0.10929196 
   61200   -956.91393    38.266658   -918.64727    1370.5729    6198.2608     2.218708  0.087735926   0.09370626 
   61300    -956.3082    39.781776   -916.52643    1424.8389   -8324.9767    2.1784693  0.043825316   0.10343895 
   61400   -953.77896    40.998161    -912.7808    1468.4055   -13301.543    2.1612878  0.050966227   0.10003593 
   61500   -956.59296    38.701183   -917.89178     1386.136   -1512.3739    2.2006127  0.026364753  0.098278578 
   61600   -958.87457    41.772429   -917.10214    1496.1369    8878.1271    2.2279272  0.048839077  0.097923594 
   61700   -953.62354    42.603773   -911.01976    1525.9126    2700.1779    2.1990179  0.065802765  0.098643843 
   61800   -956.08635    38.465963   -917.62039    1377.7113   -5763.2038    2.1870632    0.1381149  0.093132712 
   61900   -954.57225    38.634635   -915.93762    1383.7525   -3249.2981    2.1888618   0.22025366  0.096089801 
   62000   -951.31159    40.957671   -910.35392    1466.9552    146.39309    2.1912739  0.018965905   0.12393891 
   62100   -959.46547     41.65621   -917.80926    1491.9744    704.26099    2.2106193  0.053754871   0.10185524 
   62200   -953.48897    37.857634   -915.63134    1355.9232     2521.347    2.1990078   0.10012539  0.096635596 
   62300   -953.31527    42.173844   -911.14143    1510.5141   -3764.4273     2.179039   0.20403965  0.089792376 
   62400   -955.96338     37.02782   -918.93556    1326.2022   -656.60447     2.199969 0.0048115649   0.09803607 
   62500   -952.97915    37.454748    -915.5244    1341.4932    2977.9088    2.2005668   0.10683353   0.10587995 
   62600     -952.876    41.205297    -911.6707    1475.8243    1838.9945    2.1950187   0.10146882  0.095826132 
   62700   -958.06776    38.606765     -919.461    1382.7543   -225.21074    2.2023785   0.16828398  0.092709632 
   62800   -954.97898    39.501769   -915.47721    1414.8101   -3326.5934    2.1889533  0.018945705  0.090659075 
   62900   -954.71477    41.985749   -912.72902    1503.7773   -4354.0392    2.1853597   0.10367391   0.09534294 
   63000   -958.29427    38.671674    -919.6226    1385.0791    2442.0111    2.2091874  0.035735732  0.084982073 
   63100   -957.02039    42.166549   -914.85384    1510.2529      4452.79    2.2107877   0.21917715  0.087835655 
   63200   -951.87257     38.92499   -912.94758     1394.152    395.21798      2.19389   0.32374672   0.10294432 
   63300   -958.67569    39.242006   -919.43368    1405.5063   -7974.6564    2.1846422  0.012268701  0.085370957 
   63400   -955.15603    40.343407   -914.81263    1444.9545   -7416.0047    2.1819507  0.047265325   0.10519357 
   63500   -955.29292    42.966393   -912.32653    1538.9004    2026.3615     2.204831  0.055806942   0.10432766 
   63600   -957.86519    40.043977   -917.82121      1434.23    7943.0318    2.2255744  0.086544114  0.094185573 
   63700   -951.98166    38.488188   -913.49347    1378.5073    2403.3458    2.1979492  0.084337928   0.10676694 
   63800    -953.0525    40.715334   -912.33717    1458.2756   -8970.1079    2.1698039   0.27876398   0.10372868 
   63900   -955.45291    36.810126   -918.64279    1318.4052   -6168.3427     2.186829   0.22674803   0.09464188 
   64000    -951.8818    37.980813   -913.90099     1360.335    7013.9343    2.2069325   0.10002361  0.099321099 
   64100   -953.03073    41.791827   -911.23891    1496.8317    8209.2265    2.2138113  0.047359325  0.092930377 
   64200    -959.0342    40.603798   -918.43041    1454.2808   -723.33346     2.207096   0.13333002  0.090734532 
   64300   -955.39127    40.969901   -914.42136    1467.3933   -9198.5511    2.1780053   0.13941653   0.10167471 
   64400   -950.71885    38.723998   -911.99485    1386.9532   -4938.5488    2.1767044  0.090598105   0.11216089 
   64500   -956.10745       36.795   -919.31245    1317.8635    4878.6912    2.2169119  0.019240486   0.10332272 
   64600   -953.62672    39.610641   -914.01608    1418.7095    7297.7122    2.2151256  0.059001202    0.1055933 
   64700   -953.79334    40.653433    -913.1399    1456.0585   -728.89945    2.1944828   0.19105491   0.11332097 
   64800   -955.68073    35.598521   -920.08221    1275.0099   -3415.7868    2.1954685  0.089046733   0.10848643 
   64900   -951.45418    37.176126   -914.27805     1331.514    119.63752    2.1939422    0.0313412    0.1136147 
   65000   -950.86193    37.588267   -913.27367    1346.2754    2177.1242    2.1988308   0.24159727    0.1026245 
   65100   -956.49541    36.958096   -919.53731     1323.705    2022.4358     2.209958   0.11643749   0.10063428 
   65200    -954.3768    41.150774   -913.22602    1473.8715     145.4622    2.1959842  0.094894703   0.10436841 
   65300   -953.13603    39.548117   -913.58792    1416.4701   -1470.3185    2.1958436   0.11947248    0.1140863 
   65400   -957.66323    38.577505   -919.08573    1381.7063   -733.58478    2.2037616   0.13763592  0.098290499 
   65500   -950.57545    38.134514   -912.44093      1365.84    480.26698    2.1945428   0.12332462   0.10397023 
   65600   -953.01938    39.340846   -913.67853    1409.0464    2114.0519    2.1990492   0.14042335  0.098744945 
   65700   -957.40847    38.850307   -918.55817    1391.4771   -447.56355    2.2046392   0.05878528    0.1074788 
   65800   -950.42514    38.611807   -911.81334    1382.9349   -912.03169    2.1874752   0.18265098   0.11625763 
   65900   -951.56987    37.354151   -914.21572    1337.8902    -464.4172    2.1906925  0.045550681   0.11137399 
   66000   -956.01707    37.758116   -918.25895    1352.3588    685.67892    2.2036013  0.095459305   0.10973928 
   66100   -952.58973    40.965184   -911.62455    1467.2243    3812.7538    2.2009829    0.1179866   0.10520415 
   66200   -954.81806    40.081216   -914.73684    1435.5638    2860.4806    2.2052488  0.069250456   0.10406621 
   66300   -956.82043     38.35111   -918.46932    1373.5977   -4470.4581    2.1917135  0.079085244  0.091625075 
   66400   -951.49258    38.843476   -912.64911    1391.2324   -6857.7111    2.1757443   0.14301152  0.099547705 
   66500   -954.66134    39.976389   -914.68496    1431.8093    1481.5365     2.200425    0.1027196   0.10160302 
   66600   -958.09174    39.655013   -918.43673    1420.2988    7161.4198    2.2239848   0.02793496   0.10406366 
   66700   -952.78958      40.3349   -912.45468    1444.6499    2633.1489    2.2013151  0.026903451   0.10627652 
   66800    -951.9673    36.849286   -915.11802    1319.8078   -4240.1245    2.1811076  0.097773606   0.11636025 
   66900   -955.68293     35.73651   -919.94642    1279.9522   -7534.0063     2.181972   0.14062101   0.10296938 
   67000   -955.12178     41.98594   -913.13584    1503.7841   -2236.6656    2.1929439   0.13114496   0.10506179 
   67100    -955.3118    40.427479   -914.88432    1447.9657    9578.2612     2.219307  0.024821045   0.10971105 
   67200   -958.81584    39.271927   -919.54391     1406.578    4091.0561    2.2153992  0.070201694  0.097509701 
   67300   -948.90756    36.937599   -911.96996    1322.9708   -4448.6777    2.1692996   0.12920815   0.10733516 
   67400   -952.81139    37.693139   -915.11825    1350.0316    -8060.075    2.1706882  0.020605842   0.10865279 
   67500   -956.85364    38.364174   -918.48946    1374.0656    1072.0627    2.2037556  0.068541307  0.091494241 
   67600   -951.53741    40.789284   -910.74813    1460.9242    10293.554    2.2133591  0.026358667   0.10051898 
   67700   -955.80974    40.954818   -914.85493     1466.853    3391.6255    2.2077158  0.038080295   0.10218744 
   67800   -953.78853    35.074638   -918.71389    1256.2463   -4705.9821    2.1852495   0.23363424  0.098922186 
   67900   -951.90662    40.227414   -911.67921    1440.8001    -7853.039    2.1730496  0.084312935   0.11147821 
   68000   -952.24401    37.288279   -914.95573    1335.5309    1513.5788    2.1977046  0.044404031   0.10195092 
   68100   -952.83223     34.78663    -918.0456    1245.9309    6738.8336    2.2134598  0.053498413   0.10696287 
   68200   -950.95334    39.251428   -911.70191    1405.8438    2446.3175    2.1957758  0.047286371   0.10216961 
   68300   -950.74018     34.74836   -915.99182    1244.5602   -1158.0566    2.1919415   0.16313929    0.1184229 
   68400   -955.84424    37.300839    -918.5434    1335.9808   -1424.2533    2.1978814    0.4051897  0.093608724 
   68500   -955.19307    43.175548   -912.01753    1546.3916   -1123.1586     2.192191  0.062073615   0.10573049 
   68600   -953.18304    36.645636    -916.5374    1312.5138    3036.5263    2.2052497  0.023983363   0.10855266 
   68700   -955.41221    36.657719    -918.7545    1312.9465    1631.3178    2.2053179  0.018342091  0.095690017 
   68800   -949.80625    37.770813   -912.03543    1352.8136   -2969.8812    2.1842662    0.3730634   0.11013861 
   68900   -956.42606    39.489254   -916.93681    1414.3619   -3709.1512     2.194329   0.15643635  0.089069072 
   69000   -955.36864    37.521433   -917.84721    1343.8816    2808.6247    2.2072827  0.079637699  0.090869704 
   69100   -951.40466    40.346971   -911.05769    1445.0822    4390.5038     2.200331   0.01386107   0.10371264 
   69200   -957.24878    39.990695   -917.25809    1432.3217   -1760.8757    2.2021386  0.057666954   0.10286274 
   69300   -954.74209    37.028894   -917.71319    1326.2407   -7325.9215    2.1861783  0.057468025   0.12560371 
   69400   -953.79418    42.208577    -911.5856    1511.7581   -7489.6678    2.1791815  0.077705606   0.11257412 
   69500   -953.82498    36.120295   -917.70469     1293.698    5959.3241    2.2156878  0.010070773   0.10566287 
   69600   -954.44222    37.785018    -916.6572    1353.3223    10313.654    2.2252482  0.026107354   0.10062922 
   69700   -951.25844    40.197687   -911.06075    1439.7354    651.11863    2.1905044    0.0526243   0.10608727 
   69800   -950.93439    33.130291   -917.80409    1186.6069   -6885.5634    2.1767065   0.10155004   0.11023062 
   69900   -953.05478    36.267494   -916.78729    1298.9701   -5665.4409    2.1825135   0.05788428   0.10452926 
   70000   -951.16738     40.09084   -911.07654    1435.9085    4012.3091    2.2063731  0.040977231   0.11519513 
   70100   -954.46066    36.921067   -917.53959    1322.3787     12192.42    2.2316261  0.014700568  0.094673731 
   70200   -956.33917     38.91089   -917.42828     1393.647   -1877.0597    2.2009677   0.28469457   0.10182423 
   70300   -953.87825     41.47055   -912.40769    1485.3247   -10467.628    2.1675616  0.015670061    0.1041524 
   70400   -955.56391    36.928402   -918.63551    1322.6414   -4482.5922     2.189326  0.016861541   0.10329319 
   70500   -954.27406    37.291477   -916.98259    1335.6455    4748.9687    2.2097217  0.061805531   0.10506124 
   70600     -953.669    41.907504   -911.76149    1500.9748    2620.6608    2.2015477  0.097996882   0.12179212 
   70700   -956.59693    38.141551   -918.45538     1366.092   -1491.8184    2.2022169   0.35315267   0.10517058 
   70800     -954.979    38.588351   -916.39065    1382.0948   -2445.4239    2.1917533   0.13032669   0.10000805 
   70900   -952.63114    40.789677   -911.84146    1460.9383   -1210.8522    2.1865055   0.11341125   0.11065039 
[...]
  186800   -952.88624     40.07633   -912.80991    1435.3888    29.200093    2.1946468   0.19181188   0.10453721 
  186900   -955.61671    38.959361   -916.65735     1395.383   -2795.5571    2.1914994  0.060484951  0.096268448 
  187000   -955.16733    35.994551   -919.17278    1289.1943   -997.62636     2.197257   0.07025117  0.096350752 
  187100   -953.89186    42.406514   -911.48534    1518.8476    708.23902    2.1945471   0.55484733  0.098751377 
  187200   -954.54528    39.317767   -915.22751    1408.2198    4674.6014    2.2083311  0.068125545   0.10152285 
  187300   -956.34329    37.921287     -918.422     1358.203    794.14802    2.2047412  0.081792275   0.10283177 
  187400   -949.81265    39.800864   -910.01179    1425.5226   -4754.7312    2.1747061  0.014148706   0.12294439 
  187500   -953.50343    38.731309   -914.77212     1387.215   -1696.0933    2.1915854   0.12203954  0.097711916 
  187600   -955.15061    38.406168   -916.74444    1375.5697    6024.3716     2.214205  0.083696112  0.096719467 
  187700    -951.2323    40.886129   -910.34617    1464.3929    6851.0171    2.2056727   0.18128512   0.11233447 
  187800   -954.28574    40.705783   -913.57996    1457.9335   -4441.2294    2.1861495   0.11094449    0.1068582 
  187900   -954.40092    36.520156   -917.88076    1308.0195   -8261.7273    2.1770532   0.34665663   0.10666796 
  188000   -952.20625    39.422895   -912.78336    1411.9851   -948.51397    2.1879707   0.26391607  0.099481852 
  188100   -951.75325    40.009773   -911.74348     1433.005    9522.7998    2.2146824   0.14193268   0.10430185 
  188200   -958.00144    39.731727   -918.26972    1423.0464    7817.0515      2.22594  0.062900471    0.1034705 
  188300   -952.85414    38.351234   -914.50291    1373.6021   -2223.5756    2.1898815  0.089246413   0.11757454 
  188400   -951.66346     38.39945   -913.26401     1375.329   -9278.8143     2.168839  0.046254087   0.11889039 
  188500   -957.34565    36.195784   -921.14987    1296.4017   -2363.2585    2.2010408    0.1391114   0.10616715 
  188600   -954.82647    39.918706   -914.90777    1429.7433     6482.331    2.2142302  0.018837295   0.10423836 
  188700   -953.90557    40.529628   -913.37594    1451.6243    6112.7028    2.2094051  0.085606864  0.094393442 
  188800   -956.54511    36.197092   -920.34802    1296.4485   -1799.5991     2.200665   0.22419771   0.10249909 
  188900   -952.37241    36.479078   -915.89334    1306.5483   -4685.2413    2.1869831   0.31998536   0.10619861 
  189000   -955.41039    41.845915   -913.56447    1498.7689   -2686.5671    2.1928288   0.24026978   0.10708797 
  189100   -956.47627     38.35919   -918.11708    1373.8871    2964.3283    2.2088993  0.047401199   0.10449249 
  189200   -957.77081    39.497755   -918.27305    1414.6664    2312.9868    2.2099608  0.017831433   0.08511236 
  189300   -953.31366    41.427558    -911.8861    1483.7849   -1906.2131    2.1884685  0.049275891   0.10434834 
  189400   -958.25048    41.822795   -916.42769    1497.9409   -5273.0289    2.1896232  0.015211043  0.087632715 
  189500   -955.37382    38.115829   -917.25799    1365.1708   -179.02218    2.1980238  0.039099757   0.10321946 
  189600     -952.263    42.945376   -909.31763    1538.1476    1380.8425    2.1902612 0.00042512792   0.10685317 
  189700   -954.23981    38.791607    -915.4482    1389.3747    3815.3748    2.2042248  0.025431011  0.090970017 
  189800   -957.04023    39.999353   -917.04088    1432.6318   -1515.8448    2.1993786    0.1594859   0.09808637 
  189900   -954.45753    44.853764   -909.60377    1606.4992     -5139.61    2.1777141  0.091896616  0.090363888 
  190000    -954.6754    39.391025   -915.28437    1410.8437   -1042.7596    2.1939812  0.065653729   0.10383542 
  190100   -955.58235    38.741781   -916.84057    1387.5901    3633.3276    2.2047776  0.025096539  0.088647326 
  190200   -952.63395    40.791983   -911.84197    1461.0209    4429.3138    2.2047621    0.0496712   0.10489118 
  190300   -953.83973    39.321576   -914.51816    1408.3563   -1538.5313    2.1924556  0.054158821   0.11188085 
  190400   -956.07314    37.504144     -918.569    1343.2624   -8515.0949    2.1783483   0.14991737  0.096720657 
  190500   -955.44985    41.401335   -914.04851    1482.8457   -4068.3791    2.1870067 0.0069645885  0.097030338 
  190600   -953.59941    40.492809    -913.1066    1450.3056    8310.7406    2.2154848  0.073609648   0.10492124 
  190700   -958.84242    38.856012   -919.98641    1391.6814      9950.86    2.2283339  0.083688766   0.09479203 
  190800   -951.52123    37.387483   -914.13375    1339.0841    -2375.569    2.1839187   0.33563785   0.11057899 
  190900   -952.90397    38.659616   -914.24436    1384.6472   -10943.141    2.1679226   0.32174434    0.1146771 
  191000   -957.04328     36.45337   -920.58991    1305.6275   -1657.4931    2.1986147   0.10891703  0.096597949 
  191100   -953.20973    38.562746   -914.64698    1381.1777    8689.6679    2.2176262   0.22776031  0.098210231 
  191200   -956.47964    43.406652   -913.07299    1554.6689    5931.8441    2.2139067  0.025485959  0.095914096 
  191300   -958.06226    39.223555   -918.83871    1404.8455   -2919.8877    2.1946881   0.25550592   0.10526859 
  191400   -952.46463    38.426624   -914.03801    1376.3023   -5492.1366    2.1777976   0.03325325   0.10673694 
  191500   -951.80913    39.492917   -912.31621    1414.4931   -756.06733    2.1887666  0.032418948   0.10829853 
  191600   -957.17495    40.127903   -917.04704     1437.236    1951.8687    2.2063505  0.022897101  0.092944296 
  191700   -955.29503    39.865752   -915.42928    1427.8467    3853.2609    2.2068133   0.34574602  0.093133532 
  191800   -949.60508    39.697167   -909.90791    1421.8086    103.39076    2.1839459   0.46846546   0.10836632 
  191900   -957.82913    40.758793   -917.07033    1459.8321   -4696.9851    2.1903286   0.21092037  0.095649087 
  192000   -953.98721    38.309975   -915.67724    1372.1244    632.12809    2.1970631  0.082440955    0.1106107 
  192100   -950.93079     41.61834   -909.31245     1490.618   -84.232852    2.1902004   0.06018982   0.11228324 
  192200   -956.06694    38.777995   -917.28895    1388.8872    3866.0542    2.2082147   0.36664151  0.098011683 
  192300   -953.81441    37.625232   -916.18918    1347.5993   -660.49416    2.1959832    0.1078392   0.10048594 
  192400   -950.01704    38.640355   -911.37669    1383.9574   -1870.1987    2.1827781  0.032110728   0.10314522 
  192500   -955.81824    37.167692   -918.65055    1331.2119   -1625.2141    2.1993764  0.058386264   0.10973963 
  192600   -957.39412    39.775636   -917.61848     1424.619   -922.46856    2.2028814  0.019762948   0.10070082 
  192700   -951.70313    38.790344   -912.91278    1389.3295    3670.2305    2.2025736    0.2055073   0.11156149 
  192800    -957.3383    40.204492   -917.13381    1439.9791    690.89407    2.2069414   0.21197478  0.098943812 
  192900   -958.30032    38.810122    -919.4902    1390.0378   -5460.8733     2.192424   0.11032428  0.095125603 
  193000   -953.57517    39.422165     -914.153     1411.959   -6726.8125     2.181105   0.30295411   0.11125765 
  193100   -952.61251     37.65945   -914.95306    1348.8249    4899.9271    2.2056156   0.24855513   0.11024431 
  193200    -957.7126    37.034026   -920.67858    1326.4245    10718.497    2.2338498 0.0058196627   0.10483048 
  193300   -953.99368    41.063741   -912.92994    1470.7543     913.3915    2.1984483   0.10475949   0.10651647 
  193400   -954.54676    39.792536   -914.75423    1425.2243   -9382.7115    2.1751603 0.0080733054   0.11779882 
  193500    -957.0848    37.886235   -919.19856    1356.9475   -7872.8199    2.1836046  0.070727925  0.099950864 
  193600   -953.03969    38.815456   -914.22423    1390.2289    7952.0464    2.2103989  0.049042178   0.10496701 
  193700    -953.3295     41.17821   -912.15129    1474.8541    10036.823     2.219777   0.17159521   0.11486544 
  193800   -956.24771    39.146969   -917.10074    1402.1024    -331.7238    2.2000655   0.09727136   0.10228861 
  193900   -954.81864    39.959083   -914.85956    1431.1894   -10996.487     2.172906   0.31275785   0.12277882 
  194000    -949.1727    38.751606   -910.42109     1387.942   -4567.1318    2.1732031   0.13620927   0.10937433 
  194100   -956.66321    39.956292   -916.70692    1431.0895    3792.5313    2.2109153   0.16649395   0.10111233 
  194200    -953.2889    37.547879   -915.74102    1344.8289    9833.8496    2.2173475   0.30353206  0.099409099 
  194300   -947.90884    38.582015   -909.32683    1381.8679    738.82204    2.1842421  0.095328949   0.11826886 
  194400   -953.42072    36.304581   -917.11614    1300.2984   -5122.9258    2.1839934   0.16771433   0.12449798 
  194500   -953.55685    37.166436   -916.39042     1331.167   -3588.9463    2.1869418  0.052595104   0.11765056 
  194600   -953.10674    42.391358   -910.71539    1518.3047    1188.4457    2.1957463  0.036301788   0.12141271 
  194700   -954.93054    37.258879   -917.67166    1334.4779    6530.0834    2.2130486  0.032752048  0.099153147 
  194800   -956.47037    39.269605   -917.20077    1406.4948   -2456.5455    2.1946887   0.10653709    0.1067859 
  194900   -952.25613    39.176926    -913.0792    1403.1754   -7011.6114    2.1746858     0.110942   0.11068504 
  195000   -956.63166    39.016792   -917.61487      1397.44   -4923.4514    2.1917246   0.20085651   0.11089979 
  195100   -956.79297    37.948399   -918.84457     1359.174    5706.4044    2.2190362   0.03881029   0.10707978 
  195200   -954.54344    42.258205   -912.28524    1513.5356    11698.742    2.2223653   0.41630692  0.096196193 
  195300   -953.63511    37.350368   -916.28474    1337.7547   -3868.9321    2.1842985   0.11920853   0.11331072 
  195400   -955.38343    34.481036   -920.90239    1234.9857    -21290.43    2.1456328  0.075238479   0.11452945 
  195500   -952.24367    37.659515   -914.58415    1348.8273   -6833.3163    2.1729905   0.21865666   0.11963077 
  195600   -953.54005    40.268935   -913.27112    1442.2872    13294.153    2.2261507    0.3955692   0.11088423 
  195700   -957.74329    38.545926   -919.19736    1380.5753    10019.695    2.2273892   0.12289818  0.091645884 
  195800   -952.11208    39.328248   -912.78383    1408.5952    -2677.163    2.1840275  0.067617983   0.11215634 
  195900   -954.12131    40.732412    -913.3889    1458.8873   -7437.7707    2.1759459   0.37087343   0.10559068 
  196000   -952.10099    34.516596    -917.5844    1236.2593    341.18589    2.1944076  0.075811838   0.10918088 
  196100   -955.18337    40.179334   -915.00403     1439.078    5492.4921    2.2118034  0.073711442  0.085179985 
  196200   -953.89944    43.350176   -910.54927    1552.6461    2661.8293    2.2010874   0.17920422   0.10448556 
  196300    -952.5499     35.54749   -917.00241    1273.1822   -2024.4756    2.1882915   0.16995521  0.097237219 
  196400   -951.92536     36.52711   -915.39825    1308.2686   -4891.1454    2.1797275   0.18841878   0.11089789 
  196500   -953.66177    44.220561   -909.44121    1583.8201   -3500.9222    2.1847093    0.1228454   0.11918992 
  196600   -953.93476    36.539333   -917.39543    1308.7064    11185.349    2.2225883   0.11278179  0.093191381 
  196700   -953.99876    38.281529   -915.71723    1371.1056    4315.8122    2.2087777    0.1454336   0.10445585 
  196800   -953.62749    41.803917   -911.82358    1497.2647   -6552.9157    2.1745471     0.166011  0.093528613 
  196900   -957.16887    37.384278   -919.78459    1338.9693    -8176.236    2.1825781   0.24183953  0.093962486 
  197000   -953.89129    36.706407   -917.18488    1314.6904   -528.19777    2.1965232   0.19939806  0.097590576 
  197100    -955.2803    42.814298     -912.466    1533.4529    6561.8801    2.2113983  0.059018689  0.095588733 
  197200   -956.02772    37.560483   -918.46724    1345.2803    4388.6724    2.2137469   0.16319822   0.09291765 
  197300   -957.06437    38.284042   -918.78033    1371.1956   -5308.5138    2.1868671   0.12433447  0.086881216 
  197400   -954.09785     40.60262   -913.49523    1454.2386   -8626.4807    2.1699333   0.20864818  0.093084129 
  197500   -956.71686    40.215254    -916.5016    1440.3646   -2430.4924    2.1945678  0.042794694   0.10198797 
  197600    -957.4204    37.877298    -919.5431    1356.6274    10541.415    2.2288294   0.01285467   0.10128563 
  197700   -951.65321    40.251914   -911.40129    1441.6776    6223.6535    2.2017734  0.022780711   0.10231722 
  197800   -955.89592    40.376041   -915.51988    1446.1234    -9898.913    2.1729453  0.063146969   0.11140428 
  197900   -954.46766    35.945768   -918.52189     1287.447   -13329.485    2.1652241   0.34660954   0.10756522 
  198000   -952.51442    40.666729    -911.8477    1456.5347    4908.0477    2.2018359  0.074601947  0.094858978 
  198100   -949.64047    38.830705   -910.80976     1390.775    29297.616    2.2608789   0.28508255   0.11279851 
  198200   -953.76664    37.225697   -916.54094    1333.2895    6877.8735    2.2125001   0.14188584   0.10569792 
  198300   -952.20292    36.842815    -915.3601     1319.576   -7878.2124    2.1703496  0.066810349   0.10384768 
  198400   -949.80911    40.943224   -908.86588    1466.4378    -7236.561    2.1652898   0.40508413   0.10863938 
  198500   -956.28753    39.317168   -916.97037    1408.1984    2256.0498    2.2071773  0.049894686  0.096180192 
  198600   -954.49444    37.991724   -916.50272    1360.7258    5151.4931    2.2106303  0.040987473   0.09364807 
  198700   -952.17509    38.450829   -913.72426    1377.1692   -334.36159    2.1913191  0.041848063   0.11009805 
  198800   -951.02349    39.407195   -911.61629    1411.4228   -6081.5941    2.1747777  0.065706516   0.10776301 
  198900   -956.31214     36.46033   -919.85181    1305.8768    515.52636    2.2025414   0.16727517  0.096853015 
  199000   -957.40577    41.853465    -915.5523    1499.0393    4118.1226    2.2104655   0.20726657  0.094839596 
  199100   -953.25834    40.072503   -913.18584    1435.2517    3261.5034     2.199236  0.095258362   0.10073171 
  199200   -954.75762    35.974018    -918.7836    1288.4589   -5767.4876     2.186931  0.030019705  0.099131066 
  199300   -955.85388    36.695332   -919.15855    1314.2937   -5711.9847    2.1851958   0.11812468   0.10137397 
  199400   -953.22195    39.062198   -914.15975    1399.0663    2570.7373    2.2015176   0.06748699   0.10820549 
  199500   -951.80583    36.891613   -914.91421    1321.3238    9902.1302    2.2192059  0.098178556   0.09439871 
  199600   -956.84839    35.102946   -921.74544    1257.2602    4967.8927    2.2178707  0.023503006   0.10589087 
  199700   -953.45206    39.427879   -914.02419    1412.1636   -7921.9134    2.1739316   0.12462886   0.10185315 
  199800   -952.49163     37.76365   -914.72798     1352.557    -6556.327    2.1782346   0.05093036   0.10924354 
  199900   -955.55256    36.647824   -918.90474    1312.5921    4866.3353    2.2108442  0.021973755   0.10526907 
  200000   -957.58231    40.234516   -917.34779    1441.0544     8552.167    2.2269299   0.26271251  0.094815005 
  200100   -952.97298    40.319641   -912.65334    1444.1033    1436.5222    2.1958742   0.29140419   0.10481101 
  200200   -954.72773    38.167979   -916.55975    1367.0386   -6271.1495    2.1788863  0.070730049  0.099961607 
  200300   -957.09241    40.669241   -916.42316    1456.6247   -5436.1881    2.1855443   0.12210492  0.094459228 
  200400   -950.60609    41.543107   -909.06298    1487.9234    365.85967    2.1875127    0.1413999   0.10671412 
  200500   -955.01894    39.526504   -915.49244     1415.696    3066.1438     2.206445  0.022424249  0.099765221 
  200600   -956.89208    40.144351   -916.74773    1437.8251   -2131.8177    2.1988113  0.026291752   0.10208063 
  200700    -951.6431    42.148859   -909.49424    1509.6193   -4513.7626     2.180078   0.31802953   0.10939441 
  200800   -952.67227    37.182418   -915.48985    1331.7394    869.79428    2.1962952     0.221064  0.093129732 
  200900   -954.87749     38.01157   -916.86592    1361.4366   -295.88892    2.2003411   0.15280052  0.098036241 
  201000   -953.18201     40.87261    -912.3094    1463.9087    2046.9353    2.1981875  0.093703949   0.10167841 
  201100   -954.14164    40.474681   -913.66696    1449.6563   -1212.1317    2.1899636   0.13049083   0.10443449 
  201200   -955.47818    36.682417   -918.79576    1313.8312   -684.02517    2.1974145   0.18056714  0.093294784 
  201300   -955.18687    40.930579   -914.25629    1465.9849    2988.5454    2.2006813  0.016404177  0.092025587 
  201400   -952.71633    39.180521   -913.53581    1403.3042    4267.8242    2.2022819  0.064614083  0.094094381 
  201500   -958.41629    37.397478   -921.01882     1339.442   -1734.8242     2.200968   0.05742149  0.098956281 
  201600   -955.99213    40.904133     -915.088    1465.0377   -10505.274    2.1715565  0.068527637   0.09766719 
  201700   -954.24599     40.32904   -913.91695      1444.44   -3981.4648    2.1840666   0.37660688  0.094867791 
  201800   -958.35333    38.420499   -919.93283    1376.0829    9316.0679    2.2283467  0.097651439  0.094364038 
  201900   -953.90481    37.835393   -916.06942    1355.1266    11819.539    2.2223188   0.10067514  0.096263079 
  202000   -951.12799    37.556491   -913.57149    1345.1373    -1697.965    2.1838865   0.34731834   0.10957138 
  202100    -955.2084    37.512656   -917.69574    1343.5673   -11296.602     2.169651   0.13774632   0.10411817 
  202200   -955.49003    37.727137   -917.76289    1351.2492   -2474.5828    2.1931916  0.056993156  0.089167615 
  202300   -953.24826    42.253457    -910.9948    1513.3656    3944.1569    2.2049398  0.098046978   0.11088705 
  202400   -951.52537     36.13853   -915.38684    1294.3511    5479.9447    2.2085189  0.039848724   0.10549832 
  202500   -955.21379    37.356325   -917.85747    1337.9681   -2108.1441     2.195408   0.14044591    0.1035921 
  202600   -949.04533    39.684768   -909.36057    1421.3645   -4027.2445    2.1697072  0.033673183    0.1034476 
  202700   -955.85273    41.488465   -914.36426    1485.9664    180.93754    2.1983643   0.24263984  0.095404265 
  202800   -957.13355    40.615615   -916.51793     1454.704    6082.8159    2.2156597   0.04431818   0.08604684 
  202900     -955.624    43.532566   -912.09143    1559.1786    800.56523    2.2002444   0.11939024  0.098706465 
  203000   -953.20581    41.442566   -911.76324    1484.3224   -5133.6245    2.1773823  0.080963966  0.099409673 
  203100   -954.64332    36.731464   -917.91186    1315.5878   -5206.2761     2.184781   0.18472196  0.097796762 
  203200   -954.80687    40.717441   -914.08943    1458.3511    2876.7255    2.2046385  0.035451752   0.10332439 
Loop time of 144.076 on 1 procs for 200000 steps with 217 atoms

Performance: 359.810 ns/day, 0.067 hours/ns, 1388.157 timesteps/s
100.0% CPU use with 1 MPI tasks x no OpenMP threads

MPI task timing breakdown:
Section |  min time  |  avg time  |  max time  |%varavg| %total
---------------------------------------------------------------
Pair    | 140.86     | 140.86     | 140.86     |   0.0 | 97.77
Neigh   | 0.19264    | 0.19264    | 0.19264    |   0.0 |  0.13
Comm    | 0.83747    | 0.83747    | 0.83747    |   0.0 |  0.58
Output  | 0.069902   | 0.069902   | 0.069902   |   0.0 |  0.05
Modify  | 1.8186     | 1.8186     | 1.8186     |   0.0 |  1.26
Other   |            | 0.2951     |            |       |  0.20

Nlocal:    217 ave 217 max 217 min
Histogram: 1 0 0 0 0 0 0 0 0 0
Nghost:    957 ave 957 max 957 min
Histogram: 1 0 0 0 0 0 0 0 0 0
Neighs:    4172 ave 4172 max 4172 min
Histogram: 1 0 0 0 0 0 0 0 0 0
FullNghs:  8344 ave 8344 max 8344 min
Histogram: 1 0 0 0 0 0 0 0 0 0

Total # of neighbors = 8344
Ave neighs/atom = 38.4516
Neighbor list builds = 325
Dangerous builds = 0
Total wall time: 0:02:26
