LAMMPS (3 Mar 2020)
Reading data file ...
  orthogonal box = (0 0 0) to (16.36 16.36 16.36)
  1 by 1 by 1 MPI processor grid
  reading atoms ...
  256 atoms
  read_data CPU = 0.00100443 secs
Reading potential file /usr/share/lammps-stable/potentials/Ag_u3.eam with DATE: 2007-06-11
Neighbor list info ...
  update every 1 steps, delay 10 steps, check yes
  max neighbors/atom: 2000, page size: 100000
  master list distance cutoff = 7.55
  ghost atom cutoff = 7.55
  binsize = 3.775, bins = 5 5 5
  2 neighbor lists, perpetual/occasional/extra = 1 1 0
  (1) pair eam, perpetual
      attributes: half, newton on
      pair build: half/bin/atomonly/newton
      stencil: half/bin/3d/newton
      bin: standard
  (2) compute rdf, occasional, copy from (1)
      attributes: half, newton on
      pair build: copy
      stencil: none
      bin: none
Setting up Verlet run ...
  Unit style    : metal
  Current step  : 0
  Time step     : 0.001
Per MPI rank memory allocation (min/avg/max) = 3.744 | 3.744 | 3.744 Mbytes
Step PotEng KinEng TotEng Temp Press Density c_msdall[4] 
       0       -729.6    40.212831   -689.38717         1220    9809.1477    10.472245            0 
     100     -705.487    24.907799    -680.5792    755.66714     40736.85    10.472245  0.070386685 
     200   -696.47348    36.527602   -659.94588    1108.1954    57106.563    10.472245   0.09102214 
     300     -685.124    42.524177   -642.59982    1290.1229    72545.401    10.472245    0.1205544 
     400   -683.57948     41.46201   -642.11747    1257.8983    75356.395    10.472245   0.11513515 
     500   -693.45798    38.898052   -654.55992    1180.1115    61156.878    10.472245  0.084037061 
     600   -693.22379    38.248733   -654.97506    1160.4121    61641.051    10.472245  0.080252927 
     700   -689.95801    44.280905   -645.67711    1343.4196    67775.092    10.472245  0.090652089 
     800   -688.83267    38.786704   -650.04597    1176.7333    67591.983    10.472245   0.11048862 
     900   -690.51749    42.409138   -648.10835    1286.6328    65832.247    10.472245   0.11319947 
    1000    -687.9402    43.033632   -644.90657    1305.5791    70935.484    10.472245    0.1085603 
    1100   -691.60306    41.236361    -650.3667    1251.0524    64761.106    10.472245    0.0874208 
    1200   -690.74176    38.548732   -652.19302    1169.5136    65193.219    10.472245  0.092029771 
    1300   -687.50269    39.983341   -647.51935    1213.0376    70173.845    10.472245   0.10026605 
    1400   -689.13227     37.12255   -652.00972    1126.2453    67190.359    10.472245   0.10176725 
    1500   -694.18312    41.731048   -652.45208    1266.0605    61944.323    10.472245  0.078468636 
    1600   -690.45873    40.347741   -650.11099     1224.093    66196.587    10.472245  0.084015792 
    1700   -687.92021    46.181206     -641.739     1401.072    71255.116    10.472245   0.09363634 
    1800   -688.40271    39.333407    -649.0693    1193.3195    68697.604    10.472245  0.099080787 
    1900   -691.74135    43.035416   -648.70593    1305.6332    65888.062    10.472245  0.083206308 
    2000   -691.60584    37.948501   -653.65734    1151.3034    65661.991    10.472245  0.081309987 
    2100   -685.26156    37.877748   -647.38382    1149.1569    73761.715    10.472245  0.093728582 
    2200   -685.48617    37.772724   -647.71345    1145.9706    73126.085    10.472245   0.10098991 
    2300   -689.27726    39.016651   -650.26061    1183.7096    68165.621    10.472245  0.091867089 
    2400   -692.91913    39.313261   -653.60587    1192.7083    63335.064    10.472245   0.08142871 
    2500   -691.21854    42.878075   -648.34046    1300.8597    65473.627    10.472245  0.082306647 
    2600   -689.09509    39.353567   -649.74152    1193.9311    67602.986    10.472245    0.1028141 
    2700   -688.48963    41.523385   -646.96625    1259.7603    68872.717    10.472245    0.1012702 
    2800   -690.19902    40.162164   -650.03685    1218.4628    66106.908    10.472245  0.091209777 
    2900   -691.00205    35.145245    -655.8568    1066.2567    64330.319    10.472245  0.083210687 
    3000   -691.09699     39.88837   -651.20862    1210.1563    65682.958    10.472245  0.085045284 
    3100   -688.92084     41.98997   -646.93087    1273.9159    68900.885    10.472245  0.094033178 
    3200   -687.94086    37.525661    -650.4152    1138.4751    69283.867    10.472245   0.10310924 
    3300   -689.27407    39.528781   -649.74528    1199.2469    68478.471    10.472245  0.094320642 
    3400   -687.26788    37.911426   -649.35645    1150.1787    69595.015    10.472245  0.095056072 
    3500   -692.87457    37.223353   -655.65121    1129.3035    62940.546    10.472245  0.082314902 
    3600   -690.18377    42.024566   -648.15921    1274.9654    66766.828    10.472245  0.090474888 
    3700   -687.34076    39.468882   -647.87188    1197.4296    69731.086    10.472245   0.10595586 
    3800   -688.48673    41.537279   -646.94945    1260.1818    69230.924    10.472245  0.094542409 
    3900    -691.8756    38.789355   -653.08624    1176.8138    63268.727    10.472245  0.084153024 
    4000   -690.32635     41.09766   -649.22869    1246.8445    66353.066    10.472245  0.090703902 
    4100   -686.45352    41.262407   -645.19111    1251.8426     71853.43    10.472245    0.1089123 
    4200   -687.91442    40.103783   -647.81064    1216.6916    70641.839    10.472245  0.092243492 
    4300   -692.47275    38.828869   -653.64388    1178.0126    63225.722    10.472245  0.078013512 
    4400   -689.79747    41.710335   -648.08714    1265.4321    68033.529    10.472245  0.085767766 
    4500    -685.2859    38.489949   -646.79595    1167.7302    72585.229    10.472245   0.11097392 
    4600   -689.27491    42.530094   -646.74481    1290.3025    69041.005    10.472245   0.10496845 
    4700   -690.64182    39.208036   -651.43379     1189.516    65636.821    10.472245   0.10139529 
    4800   -689.94412    42.294442   -647.64967    1283.1531    66296.722    10.472245  0.087346188 
    4900   -690.49016    39.459041   -651.03112    1197.1311    65892.671    10.472245  0.090853682 
    5000   -690.02855    41.913795   -648.11476    1271.6048    66890.737    10.472245   0.10055119 
    5100   -684.54503    42.869874   -641.67515    1300.6109    74170.489    10.472245    0.1158319 
    5200   -689.49412    41.533837   -647.96028    1260.0774    67637.896    10.472245   0.10286474 
    5300   -691.32038    42.020069   -649.30031     1274.829     64863.96    10.472245   0.09326877 
    5400   -691.17971    38.208919   -652.97079    1159.2042    64889.188    10.472245  0.095425339 
    5500   -686.50482    40.126815   -646.37801    1217.3904    71493.691    10.472245   0.10162398 
    5600   -689.74783    40.575521   -649.17231    1231.0035    66703.872    10.472245  0.094413813 
    5700   -692.69482    38.753737   -653.94109    1175.7332    62496.609    10.472245  0.083962873 
    5800    -688.7294    38.193885   -650.53552     1158.748    68476.502    10.472245  0.093305514 
    5900   -687.57708    41.714664   -645.86242    1265.5635    70375.796    10.472245   0.10254585 
    6000    -688.0584       37.697    -650.3614    1143.6733    68133.238    10.472245   0.10833837 
    6100   -687.11614    43.702984   -643.41316    1325.8863    72207.641    10.472245  0.098274224 
    6200   -686.55478    39.820326   -646.73445    1208.0919    71421.587    10.472245  0.095938343 
    6300   -690.32121    39.008945   -651.31226    1183.4758    66860.084    10.472245  0.093556196 
    6400   -688.88681    38.058711    -650.8281    1154.6471     67536.61    10.472245   0.10111129 
    6500   -687.25641    40.075625   -647.18078    1215.8374    70633.876    10.472245   0.10331655 
    6600   -690.73289    41.599446   -649.13344    1262.0679    66005.482    10.472245  0.094517129 
    6700    -692.0733    36.930567   -655.14273    1120.4208    62769.809    10.472245  0.090205376 
    6800    -689.9759    38.945994    -651.0299     1181.566    66798.104    10.472245   0.09683873 
    6900   -688.10356    39.792868   -648.31069    1207.2589     68951.94    10.472245   0.10934761 
    7000   -685.36738    43.953612   -641.41377      1333.49    73893.964    10.472245   0.11131527 
    7100   -687.68572    38.502199   -649.18352    1168.1019    69367.492    10.472245   0.10817993 
    7200   -690.71411    37.699582   -653.01453    1143.7516    65975.857    10.472245  0.091301715 
    7300   -688.63623    37.403521    -651.2327    1134.7695    68061.698    10.472245  0.099418404 
    7400   -688.73797    41.916171    -646.8218    1271.6769    68874.723    10.472245  0.097399667 
    7500   -689.21298    38.314568   -650.89841    1162.4094    67066.518    10.472245   0.10120041 
    7600   -690.40225    41.759002   -648.64324    1266.9086    66593.086    10.472245  0.096754741 
    7700   -688.94057    39.864996   -649.07557    1209.4472    67975.967    10.472245   0.09542568 
    7800   -689.27954    37.929973   -651.34957    1150.7413    67499.085    10.472245  0.090868351 
    7900   -690.70641    37.717095   -652.98932    1144.2829    65506.706    10.472245  0.092402716 
    8000   -687.74044    40.606715   -647.13372    1231.9499    70667.721    10.472245   0.09935729 
    8100   -686.38918      41.5981   -644.79108    1262.0271    72769.313    10.472245  0.096157174 
    8200    -690.8291    40.096304    -650.7328    1216.4647    65865.162    10.472245   0.08440406 
    8300   -693.10738    40.611544   -652.49583    1232.0964    63148.035    10.472245  0.082178875 
    8400   -684.57363    40.071365   -644.50226    1215.7081    74076.968    10.472245   0.10070402 
    8500   -688.26657    42.347143   -645.91943     1284.752    69448.686    10.472245  0.095512062 
    8600   -691.79795     40.21782   -651.58013    1220.1513    64252.476    10.472245  0.089841123 
    8700   -689.60176    40.491811   -649.10995    1228.4639    68028.702    10.472245  0.090200326 
    8800   -689.18277    43.673345   -645.50943    1324.9871    68565.274    10.472245   0.10035168 
    8900   -689.59506    40.608094   -648.98697    1231.9917    67603.629    10.472245   0.11150374 
    9000   -688.92567    43.921783   -645.00389    1332.5243    68391.286    10.472245   0.10593337 
    9100    -689.0115    37.496105   -651.51539    1137.5784    67234.051    10.472245    0.1063388 
    9200   -688.38949    39.514874   -648.87461     1198.825    68672.777    10.472245   0.10568992 
    9300    -686.9053    41.200282   -645.70502    1249.9578    70824.634    10.472245   0.10980437 
    9400   -692.56232    40.470378   -652.09194    1227.8136    62281.727    10.472245  0.097843194 
    9500   -694.80593    37.339365   -657.46657    1132.8231    58758.733    10.472245  0.089503485 
    9600   -688.70141    40.580718   -648.12069    1231.1612    68210.116    10.472245  0.098062693 
    9700   -689.06964    39.804074   -649.26556    1207.5989    67583.819    10.472245   0.10611071 
    9800   -690.84987    42.476754   -648.37312    1288.6842    65861.804    10.472245    0.1017122 
    9900    -688.5182    40.639522   -647.87868    1232.9452    69385.693    10.472245   0.10092137 
   10000   -688.83478    37.723524   -651.11126     1144.478    68726.378    10.472245  0.098262587 
Loop time of 5.13169 on 1 procs for 10000 steps with 256 atoms

Performance: 168.365 ns/day, 0.143 hours/ns, 1948.674 timesteps/s
100.0% CPU use with 1 MPI tasks x no OpenMP threads

MPI task timing breakdown:
Section |  min time  |  avg time  |  max time  |%varavg| %total
---------------------------------------------------------------
Pair    | 3.4099     | 3.4099     | 3.4099     |   0.0 | 66.45
Neigh   | 0.0039377  | 0.0039377  | 0.0039377  |   0.0 |  0.08
Comm    | 0.061986   | 0.061986   | 0.061986   |   0.0 |  1.21
Output  | 0.0026048  | 0.0026048  | 0.0026048  |   0.0 |  0.05
Modify  | 1.6372     | 1.6372     | 1.6372     |   0.0 | 31.90
Other   |            | 0.01608    |            |       |  0.31

Nlocal:    256 ave 256 max 256 min
Histogram: 1 0 0 0 0 0 0 0 0 0
Nghost:    1431 ave 1431 max 1431 min
Histogram: 1 0 0 0 0 0 0 0 0 0
Neighs:    13061 ave 13061 max 13061 min
Histogram: 1 0 0 0 0 0 0 0 0 0

Total # of neighbors = 13061
Ave neighs/atom = 51.0195
Neighbor list builds = 7
Dangerous builds = 0
Total wall time: 0:00:05
