LAMMPS (3 Mar 2020)
Reading data file ...
  orthogonal box = (0 0 0) to (16.36 16.36 16.36)
  1 by 1 by 1 MPI processor grid
  reading atoms ...
  256 atoms
  read_data CPU = 0.0010165 secs
Reading potential file /usr/share/lammps-stable/potentials/Ag_u3.eam with DATE: 2007-06-11
Neighbor list info ...
  update every 1 steps, delay 10 steps, check yes
  max neighbors/atom: 2000, page size: 100000
  master list distance cutoff = 7.55
  ghost atom cutoff = 7.55
  binsize = 3.775, bins = 5 5 5
  2 neighbor lists, perpetual/occasional/extra = 1 1 0
  (1) pair eam, perpetual
      attributes: half, newton on
      pair build: half/bin/atomonly/newton
      stencil: half/bin/3d/newton
      bin: standard
  (2) compute rdf, occasional, copy from (1)
      attributes: half, newton on
      pair build: copy
      stencil: none
      bin: none
Setting up Verlet run ...
  Unit style    : metal
  Current step  : 0
  Time step     : 0.001
Per MPI rank memory allocation (min/avg/max) = 3.744 | 3.744 | 3.744 Mbytes
Step PotEng KinEng TotEng Temp Press Density c_msdall[4] 
       0       -729.6     34.27979   -695.32021         1040    8361.8879    10.472245            0 
     100   -709.06596    21.161882   -687.90408    642.02134    34678.195    10.472245  0.059548466 
     200   -701.89552    31.659181   -670.23634    960.49445    48188.829    10.472245  0.074774458 
     300   -692.04942    36.610123    -655.4393     1110.699    61582.032    10.472245  0.098565167 
     400   -691.34159    36.030824   -655.31076    1093.1239    63537.674    10.472245  0.092654342 
     500    -699.2654    33.229097    -666.0363    1008.1234    51685.352    10.472245  0.068603191 
     600   -698.06359    32.536425   -665.52716    987.10878    53561.872    10.472245   0.06849693 
     700     -695.718    37.630625   -658.08738    1141.6596    58234.591    10.472245  0.077633925 
     800   -695.24035    34.032631   -661.20772    1032.5015    57599.878    10.472245  0.092702421 
     900   -695.37955    35.604675   -659.77488    1080.1951    57454.405    10.472245  0.094499942 
    1000   -694.85186    36.841027   -658.01083    1117.7043    59857.452    10.472245  0.085280293 
    1100   -698.64671    35.368395   -663.27831    1073.0267    53419.232    10.472245  0.068840612 
    1200   -696.84982     32.50482     -664.345    986.14993    55195.158    10.472245  0.078715672 
    1300   -693.90236    33.965673   -659.93668    1030.4701    59968.109    10.472245  0.088304714 
    1400   -695.15275    35.326335   -659.82641    1071.7507    58306.127    10.472245  0.085462263 
    1500   -698.87626    34.727675   -664.14859    1053.5882     52741.46    10.472245  0.071297051 
    1600   -698.59931    34.846301   -663.75301    1057.1871    53431.449    10.472245  0.070461102 
    1700   -694.19987    36.052563   -658.14731    1093.7834    59685.059    10.472245   0.08876681 
    1800   -694.60946    36.076812   -658.53265    1094.5191    59616.818    10.472245  0.092487881 
    1900   -697.02454    34.291996   -662.73254    1040.3703    55355.419    10.472245  0.079592491 
    2000   -696.32734    33.024284   -663.30305    1001.9097    56439.652    10.472245  0.072897113 
    2100   -695.57406    34.305898   -661.26816    1040.7921    58047.891    10.472245  0.076489854 
    2200   -694.88086    35.227625   -659.65324     1068.756    58721.531    10.472245   0.08739011 
    2300   -695.31466    33.366437   -661.94822    1012.2902    57621.311    10.472245  0.091256165 
    2400   -694.14975    32.981948    -661.1678    1000.6253    59516.174    10.472245  0.083631482 
    2500   -695.98889    34.967418   -661.02147    1060.8616    57636.754    10.472245  0.078219221 
    2600    -697.4584    34.120658   -663.33774    1035.1722     54546.45    10.472245  0.080481145 
    2700   -696.54645    36.415498   -660.13095    1104.7943    56247.707    10.472245  0.079522112 
    2800   -695.35533    35.603853   -659.75148    1080.1702    58083.954    10.472245  0.076521104 
    2900   -698.80621    32.650208     -666.156    990.56078    53127.708    10.472245  0.067688558 
    3000   -697.58914    34.763262   -662.82587    1054.6678    55042.804    10.472245  0.073172588 
    3100   -695.10968     35.14375   -659.96593    1066.2113    58839.286    10.472245  0.084067778 
    3200   -696.59528    36.626822   -659.96846    1111.2056    56951.867    10.472245  0.082736975 
    3300   -698.91768     33.38417   -665.53351    1012.8281    52745.568    10.472245  0.074307885 
    3400    -694.6967    33.892767   -660.80393    1028.2582    59180.182    10.472245  0.073788079 
    3500   -695.40448    34.851967   -660.55251     1057.359    58907.004    10.472245  0.076488844 
    3600   -695.66074    31.698023   -663.96272    961.67286    57059.048    10.472245  0.080836134 
    3700   -691.97456    33.768624   -658.20593    1024.4919    62696.958    10.472245  0.086438496 
    3800   -692.81104    34.827781   -657.98326    1056.6253    61905.791    10.472245   0.09033033 
    3900    -694.9525    33.829946   -661.12256    1026.3524     58397.52    10.472245  0.086407366 
    4000   -697.30795    35.664424   -661.64353    1082.0078    55451.204    10.472245   0.07613806 
    4100   -699.07706    33.992581   -665.08448    1031.2865    52490.115    10.472245  0.076111781 
    4200   -696.77491    36.165142   -660.60977    1097.1989    56195.671    10.472245  0.077410291 
    4300   -696.40515    35.278188   -661.12696      1070.29    56800.473    10.472245  0.082870457 
    4400    -695.7746    33.638952   -662.13565    1020.5579    57237.144    10.472245  0.086155798 
    4500   -693.79707     35.23358   -658.56349    1068.9366     59947.12    10.472245  0.084222082 
    4600   -695.53522    33.853456   -661.68177    1027.0656     57852.68    10.472245  0.082574989 
    4700   -695.39265    34.070093   -661.32256    1033.6381    57858.781    10.472245  0.087758148 
    4800   -692.26893    35.692699   -656.57623    1082.8656    62859.277    10.472245  0.087355906 
    4900   -694.77354    36.667361   -658.10618    1112.4355    59502.813    10.472245  0.085477426 
    5000   -694.50505    33.074143    -661.4309    1003.4224    58792.334    10.472245  0.089852066 
    5100   -695.08478    36.333665   -658.75111    1102.3116    58792.294    10.472245  0.078259662 
    5200   -696.76228    32.338191   -664.42409    981.09464    55935.498    10.472245   0.07779352 
    5300   -695.76715     34.20124   -661.56591    1037.6169    56557.562    10.472245  0.081829944 
    5400    -693.6317    36.454982   -657.17672    1105.9922    61357.846    10.472245  0.090781572 
    5500   -692.47201    35.241086   -657.23092    1069.1643      62100.6    10.472245  0.094734566 
    5600      -694.94    33.092166   -661.84783    1003.9692    58300.637    10.472245  0.081892826 
    5700   -696.42122    33.698706   -662.72251    1022.3707     56193.12    10.472245  0.075169519 
    5800   -696.41994    30.912318   -665.50763    937.83567    55501.783    10.472245  0.077349035 
    5900   -696.46487    35.413427   -661.05144    1074.3929     57395.14    10.472245  0.079523964 
    6000   -692.87585    35.826476   -657.04938    1086.9242    61517.426    10.472245  0.091428211 
    6100   -695.20756    35.369088   -659.83848    1073.0477    58620.934    10.472245  0.084057603 
    6200   -695.05367    32.643081   -662.41059    990.34457    57891.817    10.472245  0.080023322 
    6300   -695.80334    34.322692   -661.48065    1041.3016    57335.286    10.472245  0.074162974 
    6400   -699.56147    34.399744   -665.16172    1043.6392    52420.697    10.472245  0.073732623 
    6500   -694.79298    35.540035   -659.25295     1078.234    58876.963    10.472245  0.084188652 
    6600   -693.32812    32.270084   -661.05803    979.02836     59954.39    10.472245  0.096959648 
    6700   -694.02967      39.1348   -654.89487    1187.2941    61115.989    10.472245  0.088014105 
    6800   -695.09665    35.799505   -659.29714     1086.106     58570.66    10.472245  0.081471554 
    6900   -697.45919    32.851623   -664.60757    996.67143    54297.472    10.472245  0.073064491 
    7000   -696.43758    33.418979    -663.0186    1013.8842    56817.214    10.472245  0.077918869 
    7100   -695.02802    36.225816   -658.80221    1099.0396    59173.458    10.472245    0.0762956 
    7200   -696.47514    34.674958   -661.80019    1051.9888    56719.481    10.472245  0.074394457 
    7300   -695.33254    34.428844    -660.9037    1044.5221    58376.833    10.472245  0.081245731 
    7400   -693.84906     34.49669   -659.35237    1046.5804    60191.185    10.472245   0.07969196 
    7500   -697.41529    35.149212   -662.26608     1066.377    55253.728    10.472245   0.07577502 
    7600   -695.45175    33.108772   -662.34298     1004.473    57776.363    10.472245  0.080656694 
    7700   -695.09258    35.775349   -659.31724    1085.3731    58585.506    10.472245  0.081628962 
    7800   -695.46437    36.217147   -659.24722    1098.7766    58571.017    10.472245  0.076552709 
    7900   -696.23237    32.209812   -664.02256     977.1998    56928.453    10.472245  0.071786065 
    8000    -696.7254    33.286856   -663.43854    1009.8758    56070.963    10.472245  0.068466923 
    8100   -696.29339    36.502047   -659.79134    1107.4201    57706.569    10.472245  0.070903996 
    8200   -694.86334     33.09963   -661.76371    1004.1956    58846.723    10.472245  0.075978422 
    8300   -697.87922     35.71732    -662.1619    1083.6126    55376.457    10.472245  0.068043063 
    8400   -695.81675     32.80973   -663.00702    995.40045    56801.077    10.472245  0.076042243 
    8500   -695.59951    36.122131   -659.47738     1095.894     58356.75    10.472245  0.080142914 
    8600   -693.22322    36.636438   -656.58678    1111.4973    61728.686    10.472245   0.08326426 
    8700   -697.93793    34.146192   -663.79174    1035.9468    54757.119    10.472245   0.07078321 
    8800   -697.24941    34.556724   -662.69269    1048.4018    55507.783    10.472245  0.069888473 
    8900   -693.94829    35.583049   -658.36524     1079.539    59619.926    10.472245  0.076215197 
    9000   -692.48305    34.612651    -657.8704    1050.0985    62594.454    10.472245  0.078009385 
    9100   -698.25503    34.001986   -664.25305    1031.5718    53684.677    10.472245  0.068671383 
    9200   -696.78269    34.601655   -662.18104    1049.7649    56779.229    10.472245  0.073884195 
    9300   -695.18951    36.076516     -659.113    1094.5101    59051.915    10.472245  0.074556404 
    9400   -696.73886    34.616115   -662.12275    1050.2036    56450.327    10.472245  0.075263628 
    9500   -697.45832    37.809159   -659.64916     1147.076    56040.404    10.472245  0.074885579 
    9600   -694.80787    33.035819   -661.77205    1002.2597    58121.567    10.472245   0.08324407 
    9700   -696.27949    35.181411   -661.09808    1067.3539    57218.394    10.472245  0.072663423 
    9800   -696.33517    33.315744   -663.01943    1010.7522    56606.634    10.472245  0.076567463 
    9900   -693.55099    34.704594   -658.84639    1052.8879    61080.183    10.472245  0.083586213 
   10000   -692.70909    34.936758   -657.77233    1059.9315    61176.839    10.472245  0.084620816 
Loop time of 4.84839 on 1 procs for 10000 steps with 256 atoms

Performance: 178.203 ns/day, 0.135 hours/ns, 2062.538 timesteps/s
99.9% CPU use with 1 MPI tasks x no OpenMP threads

MPI task timing breakdown:
Section |  min time  |  avg time  |  max time  |%varavg| %total
---------------------------------------------------------------
Pair    | 3.2568     | 3.2568     | 3.2568     |   0.0 | 67.17
Neigh   | 0          | 0          | 0          |   0.0 |  0.00
Comm    | 0.061378   | 0.061378   | 0.061378   |   0.0 |  1.27
Output  | 0.0026365  | 0.0026365  | 0.0026365  |   0.0 |  0.05
Modify  | 1.5116     | 1.5116     | 1.5116     |   0.0 | 31.18
Other   |            | 0.01591    |            |       |  0.33

Nlocal:    256 ave 256 max 256 min
Histogram: 1 0 0 0 0 0 0 0 0 0
Nghost:    1431 ave 1431 max 1431 min
Histogram: 1 0 0 0 0 0 0 0 0 0
Neighs:    11008 ave 11008 max 11008 min
Histogram: 1 0 0 0 0 0 0 0 0 0

Total # of neighbors = 11008
Ave neighs/atom = 43
Neighbor list builds = 0
Dangerous builds = 0
Total wall time: 0:00:04
