LAMMPS (3 Mar 2020)
Reading data file ...
  orthogonal box = (0 0 0) to (16.36 16.36 16.36)
  1 by 1 by 1 MPI processor grid
  reading atoms ...
  256 atoms
  read_data CPU = 0.00102974 secs
Reading potential file /usr/share/lammps-stable/potentials/Ag_u3.eam with DATE: 2007-06-11
Neighbor list info ...
  update every 1 steps, delay 10 steps, check yes
  max neighbors/atom: 2000, page size: 100000
  master list distance cutoff = 7.55
  ghost atom cutoff = 7.55
  binsize = 3.775, bins = 5 5 5
  2 neighbor lists, perpetual/occasional/extra = 1 1 0
  (1) pair eam, perpetual
      attributes: half, newton on
      pair build: half/bin/atomonly/newton
      stencil: half/bin/3d/newton
      bin: standard
  (2) compute rdf, occasional, copy from (1)
      attributes: half, newton on
      pair build: copy
      stencil: none
      bin: none
Setting up Verlet run ...
  Unit style    : metal
  Current step  : 0
  Time step     : 0.005
Per MPI rank memory allocation (min/avg/max) = 3.744 | 3.744 | 3.744 Mbytes
Step PotEng KinEng TotEng Temp Press Density c_msdall[4] 
       0       -729.6    52.738139   -676.86186         1600    12864.474    10.472245            0 
     100   -702.64186    30.051367   -672.59049    911.71565    14113.593    10.124796  0.071388051 
     200   -695.07767    27.086537   -667.99113    821.76694     5106.516    9.9123726   0.11764308 
     300   -692.90666    29.378875   -663.52778    891.31321   -6105.6162    9.7471724   0.13975653 
     400   -686.93025    28.032954    -658.8973    850.47987   -8982.4099    9.6330965   0.18294729 
     500   -684.82497    30.223176   -654.60179    916.92811   -7388.4424    9.5926931   0.20127403 
     600   -686.01271    35.605737   -650.40697    1080.2273   -3486.7919    9.6409371   0.18507954 
     700   -683.59648    37.633315   -645.96317    1141.7411    2509.9871     9.662605   0.18693636 
     800   -683.00522     41.31854   -641.68668    1253.5456   -1737.4233    9.5944636   0.20156127 
     900   -677.22103     39.95667   -637.26435    1212.2284    10350.054    9.6267453   0.21817359 
    1000   -673.07661    40.342965   -632.73364    1223.9481    242.58771    9.4599201   0.29966073 
    1100   -669.20582    40.970187   -628.23563    1242.9771    2546.1592     9.390843   0.30740785 
    1200   -668.60055    44.695825   -623.90473    1356.0076   -6243.3276    9.2919046   0.30451049 
    1300   -666.14063    46.739164   -619.40146    1417.9996   -7462.2008    9.2164615   0.36824231 
    1400   -661.23289    46.616226   -614.61666    1414.2699   -2469.9341    9.1830504   0.39481615 
    1500   -659.53734    49.191231   -610.34611    1492.3919   -5095.9262    9.1156093   0.42959591 
    1600   -660.23539    54.978551   -605.25684    1667.9709     1078.239    9.1736511   0.42781167 
    1700   -648.07072     50.90383   -597.16689    1544.3497      321.351    8.9202491   0.70403484 
    1800   -640.91225    48.394144    -592.5181    1468.2094   -33.839301    8.7950685    1.0989883 
    1900    -636.4832     51.64225   -584.84095    1566.7523    4364.5527    8.7042667    2.1642879 
    2000   -630.32752    52.479035   -577.84848    1592.1392   -2308.8921    8.4678822    3.7648674 
    2100   -623.74733    50.539739   -573.20759    1533.3037   -928.18704    8.3425141    5.4114529 
    2200   -622.03672    55.352763   -566.68396     1679.324    2182.8169    8.3572737    7.0837658 
    2300   -629.76249     57.56521   -572.19728    1746.4465    3736.7828     8.497617    8.4672827 
    2400   -623.10595    50.628494   -572.47746    1535.9964    7166.5544    8.4586426    9.1767253 
    2500   -625.14799    51.947075   -573.20092    1576.0002   -652.34413    8.3401362    10.485774 
    2600   -618.50701    53.922793   -564.58422    1635.9407    1267.9912    8.2160228    12.091677 
    2700   -614.94189    50.118313   -564.82357    1520.5182    478.59951    8.0996632    14.227266 
    2800   -615.89765    55.712405   -560.18525     1690.235    5281.8207    8.2607411    15.685872 
    2900   -621.39326    52.394605   -568.99865    1589.5776    251.29113    8.3108738    18.008072 
    3000   -624.33263    53.670419   -570.66222     1628.284   -691.76764    8.2808329    20.381125 
    3100   -615.55463    53.157088   -562.39754    1612.7103   -4122.3325    8.1078553    22.542365 
    3200    -619.0377    52.709381   -566.32831    1599.1275   -3809.2532     8.179311    25.465581 
    3300   -624.48051    51.708957   -572.77156    1568.7761     -1810.16    8.2909657    27.832939 
    3400   -617.73927    50.161282   -567.57799    1521.8218    3647.7577    8.2533517     30.18644 
    3500    -617.0102    55.875505    -561.1347    1695.1832    2063.0091    8.2053776    32.277638 
    3600   -627.46423    56.344932    -571.1193     1709.425   -3475.1086    8.3996257    33.562901 
    3700   -622.57804     49.96444    -572.6136    1515.8499     1530.169     8.421836     35.45498 
    3800    -617.3051    47.953894   -569.35121    1454.8528   -1371.0345    8.1393995    38.675587 
    3900    -620.1691      57.0361     -563.133     1730.394   -3838.8994    8.2530615    40.329702 
    4000   -618.25711    54.707863   -563.54925    1659.7586    6896.2009    8.2227558    42.995793 
    4100   -621.15806    51.714502   -569.44356    1568.9443     841.2943    8.2258704    43.425451 
    4200   -625.03003    56.381733   -568.64829    1710.5414   -2099.6543    8.3652466     44.87212 
    4300   -624.86019    46.984147   -577.87604    1425.4321    5178.1428    8.4605665    45.444835 
    4400   -621.06541    47.580977   -573.48443     1443.539    1443.5775    8.3103761    47.199994 
    4500   -621.13205    50.978504   -570.15354    1546.6152    3680.2574    8.3739069    49.545983 
    4600   -620.53883    53.798913   -566.73992    1632.1824    12463.152    8.4303408    50.825103 
    4700   -613.63991    56.571491   -557.06842    1716.2984    8602.8427    8.2323902    53.076712 
    4800   -620.12038    55.337168   -564.78321    1678.8508    11685.044    8.4080383    54.990726 
    4900   -624.34738    53.342332   -571.00505    1618.3304    3580.5355    8.4733248    56.878917 
    5000   -624.29661    52.501029   -571.79558    1592.8064   -4914.3663    8.3104986    59.712033 
    5100   -620.95238    57.730777   -563.22161    1751.4695    1830.8878    8.2708923    61.679418 
    5200   -621.09918    49.491411   -571.60777    1501.4989   -1096.1627    8.2339462    65.539263 
    5300    -618.3445    52.379657   -565.96485    1589.1242    3237.0894    8.1974598    67.885372 
    5400   -616.20171    54.977926   -561.22378    1667.9519    3824.3649    8.1389541    70.391519 
    5500   -619.64203     50.10427   -569.53776    1520.0922   -3354.4076    8.2273463    72.143603 
    5600    -621.1031    54.237751   -566.86535    1645.4961   -4399.7378    8.2172841     75.18356 
    5700   -616.83315    55.208021   -561.62513    1674.9327    -570.9962    8.2102511    77.810922 
    5800   -623.06466    51.694806   -571.36986    1568.3468    9860.0323    8.4624726    79.103175 
    5900   -618.49381    46.190685   -572.30313    1401.3596    930.56151    8.1510779    83.910257 
    6000   -618.53934    51.887743   -566.65159    1574.2002    2854.2535    8.2721937    84.970568 
    6100   -623.29834    51.879701   -571.41864    1573.9562   -9105.7722    8.2319607    87.471368 
    6200   -621.69282    53.746533   -567.94629    1630.5932    1418.0705    8.3442776    88.870754 
    6300   -619.12962    58.350426    -560.7792    1770.2688   -661.96834    8.2652619     90.47961 
    6400   -617.83145    48.762657   -569.06879    1479.3895   -490.51605    8.2326275    93.545276 
    6500   -623.88506    48.187551   -575.69751    1461.9416   -430.39413    8.3589695    93.901851 
    6600   -626.35974    56.664825   -569.69491    1719.1301   -3752.7496    8.3578755    95.700177 
    6700   -617.81082    54.410227   -563.40059    1650.7288   -1388.2524    8.1497512    99.376305 
    6800   -614.55601    51.839972   -562.71603    1572.7509    434.47868    8.1515549    102.77356 
    6900   -623.70769    51.905226   -571.80246    1574.7306   -5336.4419    8.2760848    104.01334 
    7000   -625.54272    52.199983   -573.34274    1583.6731   -7592.4123    8.3239963    105.72787 
    7100   -623.26395    51.643693   -571.62025    1566.7961   -1848.1442    8.3769311    109.03452 
    7200   -618.31296     55.11076    -563.2022    1671.9819    2881.5708    8.2363264     113.1702 
    7300   -622.39131    56.441265   -565.95005    1712.3476    9263.3751    8.4476579     113.2742 
    7400   -624.95677     51.99915   -572.95762    1577.5801    8548.0668     8.461282    115.16051 
    7500   -619.33239    51.383995   -567.94839    1558.9172    5343.2065    8.3031209    120.30877 
    7600    -615.2672    51.675349   -563.59185    1567.7564   -302.22931    8.2041535    124.18171 
    7700   -624.92809    53.679134   -571.24896    1628.5484   -4934.8144    8.2840762    125.85769 
    7800   -622.48172    50.914405   -571.56732    1544.6705   -5059.6756    8.2467673    126.30852 
    7900   -620.88979    55.736676   -565.15311    1690.9714   -2384.0543    8.1615299    127.86396 
    8000   -621.65876    55.641093   -566.01767    1688.0715   -9127.2882    8.1809298    130.08215 
    8100   -625.36953     49.23548   -576.13405    1493.7343   -7132.8327    8.3364535    130.31553 
    8200   -623.88733    51.236671   -572.65066    1554.4476   -5338.2643    8.3316683    131.86898 
    8300    -619.1059     51.56414   -567.54176    1564.3825   -4146.3216    8.1826828    133.42319 
    8400   -618.27674     54.01724    -564.2595    1638.8061   -3527.2962      8.12563    135.87114 
    8500   -619.66834    49.608857   -570.05948     1505.062    -3120.164    8.2230703    133.96981 
    8600   -627.51621    52.072888   -575.44332    1579.8172   -2382.7095    8.4378359    132.57053 
    8700   -623.19489    54.180559   -569.01433     1643.761    4494.9877    8.3485037    134.51813 
    8800   -622.39564    52.273162   -570.12248    1585.8933    4263.9312    8.3130603    137.11385 
    8900   -623.97269     58.59573   -565.37696     1777.711    6787.3918    8.3291936    138.65197 
    9000   -614.20784    55.688318   -558.51952    1689.5042   -6288.8156    8.0300262     143.5515 
    9100   -617.56779    53.161049   -564.40675    1612.8305   -4617.9452    8.1482607    143.75548 
    9200   -617.81247    49.849152   -567.96332    1512.3523   -264.81575    8.2221097     144.8023 
    9300   -617.38546    51.136775   -566.24869    1551.4169   -222.05911    8.3012315    146.10932 
    9400   -623.07573     50.41013    -572.6656    1529.3715    4367.3619    8.3346505    148.30977 
    9500   -619.63801    50.793034   -568.84498    1540.9883   -141.11902    8.1993287    151.96284 
    9600   -616.19123    51.634776   -564.55645    1566.5255   -11646.492     8.038812    156.94745 
    9700   -618.12033    51.934462   -566.18586    1575.6176   -2902.4539    8.1456948    158.90771 
    9800   -623.98513     51.96581   -572.01932    1576.5686   -2629.0115    8.3135073    159.07208 
    9900   -623.41509    47.154572   -576.26052    1430.6025   -2412.8106    8.3385345    160.60965 
   10000   -623.39659    54.971367   -568.42522     1667.753   -3470.0964    8.3160137    162.79226 
Loop time of 6.20191 on 1 procs for 10000 steps with 256 atoms

Performance: 696.560 ns/day, 0.034 hours/ns, 1612.408 timesteps/s
100.2% CPU use with 1 MPI tasks x no OpenMP threads

MPI task timing breakdown:
Section |  min time  |  avg time  |  max time  |%varavg| %total
---------------------------------------------------------------
Pair    | 3.6538     | 3.6538     | 3.6538     |   0.0 | 58.91
Neigh   | 0.30058    | 0.30058    | 0.30058    |   0.0 |  4.85
Comm    | 0.079644   | 0.079644   | 0.079644   |   0.0 |  1.28
Output  | 0.0031997  | 0.0031997  | 0.0031997  |   0.0 |  0.05
Modify  | 2.1488     | 2.1488     | 2.1488     |   0.0 | 34.65
Other   |            | 0.01583    |            |       |  0.26

Nlocal:    256 ave 256 max 256 min
Histogram: 1 0 0 0 0 0 0 0 0 0
Nghost:    1391 ave 1391 max 1391 min
Histogram: 1 0 0 0 0 0 0 0 0 0
Neighs:    10480 ave 10480 max 10480 min
Histogram: 1 0 0 0 0 0 0 0 0 0

Total # of neighbors = 10480
Ave neighs/atom = 40.9375
Neighbor list builds = 588
Dangerous builds = 0
Total wall time: 0:00:06
