
     Program PWSCF v.6.4.1 starts on 14Dec2020 at  2:40:11 

     This program is part of the open-source Quantum ESPRESSO suite
     for quantum simulation of materials; please cite
         "P. Giannozzi et al., J. Phys.:Condens. Matter 21 395502 (2009);
         "P. Giannozzi et al., J. Phys.:Condens. Matter 29 465901 (2017);
          URL http://www.quantum-espresso.org", 
     in publications or presentations arising from this work. More details at
     http://www.quantum-espresso.org/quote

     Parallel version (MPI), running on     1 processors

     MPI processes distributed on     1 nodes
     Waiting for input...
     Reading input from standard input
Warning: card &IONS ignored
Warning: card / ignored
Warning: card &CELL ignored
Warning: card / ignored

     Current dimensions of program PWSCF are:
     Max number of different atomic species (ntypx) = 10
     Max number of k-points (npk) =  40000
     Max angular momentum in pseudopotentials (lmaxx) =  3

     Subspace diagonalization in iterative solution of the eigenvalue problem:
     a serial algorithm will be used


     G-vector sticks info
     --------------------
     sticks:   dense  smooth     PW     G-vecs:    dense   smooth      PW
     Sum         997     997    293                23847    23847    3911



     bravais-lattice index     =            0
     lattice parameter (alat)  =       8.8817  a.u.
     unit-cell volume          =     700.6323 (a.u.)^3
     number of atoms/cell      =           10
     number of atomic types    =            4
     number of electrons       =        32.00
     number of Kohn-Sham states=           16
     kinetic-energy cutoff     =      40.0000  Ry
     charge density cutoff     =     160.0000  Ry
     convergence threshold     =      1.0E-07
     mixing beta               =       0.5000
     number of iterations used =            8  plain     mixing
     Exchange-correlation      =  SLA  PW   PBX  PBC ( 1  4  3  4 0 0)

     celldm(1)=   8.881713  celldm(2)=   0.000000  celldm(3)=   0.000000
     celldm(4)=   0.000000  celldm(5)=   0.000000  celldm(6)=   0.000000

     crystal axes: (cart. coord. in units of alat)
               a(1) = (   1.000000   0.000000   0.000000 )  
               a(2) = (   0.000000   1.000000   0.000000 )  
               a(3) = (   0.000000   0.000000   1.000000 )  

     reciprocal axes: (cart. coord. in units 2 pi/alat)
               b(1) = (  1.000000  0.000000  0.000000 )  
               b(2) = (  0.000000  1.000000  0.000000 )  
               b(3) = (  0.000000  0.000000  1.000000 )  


     PseudoPot. # 1 for B  read from file:
     /home/modeler/qe_pseudo/b_pbe_v1.4.uspp.F.UPF
     MD5 check sum: cc6de2960df11db49a60e589f9ebb39b
     Pseudo is Ultrasoft + core correction, Zval =  3.0
     Generated by new atomic code, or converted to UPF format
     Using radial grid of  781 points,  4 beta functions with: 
                l(1) =   0
                l(2) =   0
                l(3) =   1
                l(4) =   1
     Q(r) pseudized with  8 coefficients,  rinner =    1.100   1.100   1.100


     PseudoPot. # 2 for H  read from file:
     /home/modeler/qe_pseudo/H.pbe-rrkjus_psl.1.0.0.UPF
     MD5 check sum: f52b6d4d1c606e5624b1dc7b2218f220
     Pseudo is Ultrasoft, Zval =  1.0
     Generated using "atomic" code by A. Dal Corso v.5.1
     Using radial grid of  929 points,  2 beta functions with: 
                l(1) =   0
                l(2) =   0
     Q(r) pseudized with 0 coefficients 


     PseudoPot. # 3 for N  read from file:
     /home/modeler/qe_pseudo/N.pbe-n-radius_5.UPF
     MD5 check sum: 16739722b17309cd8fe442a2ace49922
     Pseudo is Ultrasoft + core correction, Zval =  5.0
     Generated using "atomic" code by A. Dal Corso v.5.1
     Using radial grid of 1085 points,  4 beta functions with: 
                l(1) =   0
                l(2) =   0
                l(3) =   1
                l(4) =   1
     Q(r) pseudized with 0 coefficients 


     PseudoPot. # 4 for Na read from file:
     /home/modeler/qe_pseudo/na_pbe_v1.5.uspp.F.UPF
     MD5 check sum: 44600605ef58000f06b90626533354dc
     Pseudo is Ultrasoft, Zval =  9.0
     Generated by new atomic code, or converted to UPF format
     Using radial grid of  819 points,  5 beta functions with: 
                l(1) =   0
                l(2) =   0
                l(3) =   1
                l(4) =   1
                l(5) =   2
     Q(r) pseudized with  8 coefficients,  rinner =    1.250   1.250   1.250
                                                       1.250   1.250

     atomic species   valence    mass     pseudopotential
        B              3.00    10.81000     B ( 1.00)
        H              1.00     1.00800     H ( 1.00)
        N              5.00    14.00700     N ( 1.00)
        Na             9.00    22.98977     Na( 1.00)

     No symmetry found



   Cartesian axes

     site n.     atom                  positions (alat units)
         1           Na  tau(   1) = (   0.5000000   0.0000000   0.5000000  )
         2           Na  tau(   2) = (   0.0000000   0.5000000   0.5000000  )
         3           N   tau(   3) = (   0.5000000   0.5000000   0.5000000  )
         4           H   tau(   4) = (   0.6965851   0.5000000   0.4304957  )
         5           H   tau(   5) = (   0.4017064   0.6702489   0.4304957  )
         6           B   tau(   6) = (   0.0000000   0.0000000   0.0000000  )
         7           H   tau(   7) = (   0.2347000   0.0000000  -0.0829787  )
         8           H   tau(   8) = (  -0.1173489   0.2032553  -0.0829787  )
         9           H   tau(   9) = (  -0.1173489  -0.2032553  -0.0829787  )
        10           H   tau(  10) = (   0.0000000   0.0000000   0.2489362  )

     number of k points=     8
                       cart. coord. in units 2pi/alat
        k(    1) = (   0.0000000   0.0000000   0.0000000), wk =   0.2500000
        k(    2) = (   0.0000000   0.0000000  -0.5000000), wk =   0.2500000
        k(    3) = (   0.0000000  -0.5000000  -0.5000000), wk =   0.2500000
        k(    4) = (  -0.5000000  -0.5000000  -0.5000000), wk =   0.2500000
        k(    5) = (  -0.5000000   0.0000000   0.0000000), wk =   0.2500000
        k(    6) = (   0.0000000  -0.5000000   0.0000000), wk =   0.2500000
        k(    7) = (  -0.5000000   0.0000000   0.5000000), wk =   0.2500000
        k(    8) = (  -0.5000000   0.5000000   0.0000000), wk =   0.2500000

     Dense  grid:    23847 G-vectors     FFT dimensions: (  36,  36,  36)

     Estimated max dynamical RAM per process >      77.41 MB

     Check: negative core charge=   -0.000008

     Initial potential from superposition of free atoms

     starting charge   31.98707, renormalised to   32.00000
     Starting wfcs are   24 randomized atomic wfcs

     total cpu time spent up to now is        1.7 secs

     Self-consistent Calculation

     iteration #  1     ecut=    40.00 Ry     beta= 0.50
     Davidson diagonalization with overlap
     ethr =  1.00E-02,  avg # of iterations =  2.0

     total cpu time spent up to now is        3.0 secs

     total energy              =    -223.94024630 Ry
     Harris-Foulkes estimate   =    -224.86901994 Ry
     estimated scf accuracy    <       1.62848136 Ry

     iteration #  2     ecut=    40.00 Ry     beta= 0.50
     Davidson diagonalization with overlap
     ethr =  5.09E-03,  avg # of iterations =  3.0

     total cpu time spent up to now is        4.3 secs

     total energy              =    -224.25898459 Ry
     Harris-Foulkes estimate   =    -224.36756063 Ry
     estimated scf accuracy    <       0.23820957 Ry

     iteration #  3     ecut=    40.00 Ry     beta= 0.50
     Davidson diagonalization with overlap
     ethr =  7.44E-04,  avg # of iterations =  3.0

     total cpu time spent up to now is        5.6 secs

     total energy              =    -224.29859639 Ry
     Harris-Foulkes estimate   =    -224.31098656 Ry
     estimated scf accuracy    <       0.03173903 Ry

     iteration #  4     ecut=    40.00 Ry     beta= 0.50
     Davidson diagonalization with overlap
     ethr =  9.92E-05,  avg # of iterations =  2.2

     total cpu time spent up to now is        6.8 secs

     total energy              =    -224.30216049 Ry
     Harris-Foulkes estimate   =    -224.30263620 Ry
     estimated scf accuracy    <       0.00237351 Ry

     iteration #  5     ecut=    40.00 Ry     beta= 0.50
     Davidson diagonalization with overlap
     ethr =  7.42E-06,  avg # of iterations =  2.5

     total cpu time spent up to now is        8.0 secs

     total energy              =    -224.30234245 Ry
     Harris-Foulkes estimate   =    -224.30237395 Ry
     estimated scf accuracy    <       0.00013241 Ry

     iteration #  6     ecut=    40.00 Ry     beta= 0.50
     Davidson diagonalization with overlap
     ethr =  4.14E-07,  avg # of iterations =  3.0

     total cpu time spent up to now is        9.3 secs

     total energy              =    -224.30237432 Ry
     Harris-Foulkes estimate   =    -224.30237137 Ry
     estimated scf accuracy    <       0.00001067 Ry

     iteration #  7     ecut=    40.00 Ry     beta= 0.50
     Davidson diagonalization with overlap
     ethr =  3.34E-08,  avg # of iterations =  2.0

     total cpu time spent up to now is       10.5 secs

     total energy              =    -224.30237581 Ry
     Harris-Foulkes estimate   =    -224.30237585 Ry
     estimated scf accuracy    <       0.00000193 Ry

     iteration #  8     ecut=    40.00 Ry     beta= 0.50
     Davidson diagonalization with overlap
     ethr =  6.03E-09,  avg # of iterations =  2.5

     total cpu time spent up to now is       11.8 secs

     End of self-consistent calculation

          k = 0.0000 0.0000 0.0000 (  2945 PWs)   bands (ev):

   -51.3452 -50.6136 -23.4732 -23.2506 -23.1797 -22.6535 -22.5369 -22.4813
   -14.8471  -7.5033  -6.3292  -2.4168  -1.9267  -1.7194  -1.1195   0.5763

          k = 0.0000 0.0000-0.5000 (  2946 PWs)   bands (ev):

   -51.3451 -50.6135 -23.4731 -23.2506 -23.1810 -22.6534 -22.5373 -22.4822
   -14.8368  -7.3238  -6.3077  -3.1533  -1.7336  -1.6771  -1.4028   0.3015

          k = 0.0000-0.5000-0.5000 (  3016 PWs)   bands (ev):

   -51.3451 -50.6135 -23.4720 -23.2508 -23.1806 -22.6664 -22.5418 -22.4873
   -14.7352  -7.1902  -6.4119  -3.1339  -2.5362  -1.6081  -1.3156   0.4901

          k =-0.5000-0.5000-0.5000 (  3016 PWs)   bands (ev):

   -51.3451 -50.6135 -23.4994 -23.2516 -23.1821 -22.6605 -22.5402 -22.4855
   -14.5926  -7.0802  -6.6794  -2.8766  -2.3121  -2.1594  -1.7949   0.1608

          k =-0.5000 0.0000 0.0000 (  2946 PWs)   bands (ev):

   -51.3451 -50.6136 -23.4934 -23.2486 -23.1806 -22.6559 -22.5383 -22.4817
   -14.6979  -7.5484  -6.4043  -2.4180  -2.2621  -1.7219  -1.4445   0.4473

          k = 0.0000-0.5000 0.0000 (  2946 PWs)   bands (ev):

   -51.3451 -50.6135 -23.4720 -23.2510 -23.1794 -22.6665 -22.5416 -22.4863
   -14.7430  -7.4425  -6.3418  -2.4513  -2.2726  -1.7040  -1.5534   0.3870

          k =-0.5000 0.0000 0.5000 (  3016 PWs)   bands (ev):

   -51.3451 -50.6135 -23.4934 -23.2485 -23.1818 -22.6558 -22.5387 -22.4826
   -14.6903  -7.2102  -6.6272  -2.9301  -2.4955  -1.6279  -1.3287   0.5038

          k =-0.5000 0.5000 0.0000 (  3016 PWs)   bands (ev):

   -51.3451 -50.6135 -23.4995 -23.2518 -23.1809 -22.6606 -22.5399 -22.4846
   -14.5996  -7.2481  -6.7109  -2.6409  -2.2529  -2.1990  -1.3572   0.4637

     highest occupied level (ev):     0.5763

!    total energy              =    -224.30237626 Ry
     Harris-Foulkes estimate   =    -224.30237616 Ry
     estimated scf accuracy    <       0.00000008 Ry

     The total energy is the sum of the following terms:

     one-electron contribution =    -196.67475425 Ry
     hartree contribution      =     104.53209576 Ry
     xc contribution           =     -41.81883545 Ry
     ewald contribution        =     -90.34088231 Ry

     convergence has been achieved in   8 iterations

     Forces acting on atoms (cartesian axes, Ry/au):

     atom    1 type  4   force =     0.01901383    0.08088174    0.02071528
     atom    2 type  4   force =     0.12981277   -0.01305720    0.04045563
     atom    3 type  3   force =    -0.03800420   -0.07152434    0.06492261
     atom    4 type  2   force =    -0.08751569    0.01564219   -0.07329403
     atom    5 type  2   force =    -0.02366584   -0.00815160   -0.06152775
     atom    6 type  1   force =     0.00555712   -0.00327349   -0.02806045
     atom    7 type  2   force =     0.04619251   -0.00020004   -0.00799451
     atom    8 type  2   force =    -0.02539089    0.04123301   -0.01105227
     atom    9 type  2   force =    -0.02602222   -0.04096884   -0.01164436
     atom   10 type  2   force =     0.00002259   -0.00058142    0.06747984

     Total force =     0.258829     Total SCF correction =     0.000482


     Computing stress (Cartesian axis) and pressure

          total   stress  (Ry/bohr**3)                   (kbar)     P=   90.19
   0.00099611   0.00015738   0.00009253        146.53     23.15     13.61
   0.00015738   0.00072257   0.00001251         23.15    106.29      1.84
   0.00009253   0.00001251   0.00012069         13.61      1.84     17.75


     init_run     :      1.33s CPU      1.37s WALL (       1 calls)
     electrons    :      9.75s CPU     10.03s WALL (       1 calls)
     forces       :      0.34s CPU      0.37s WALL (       1 calls)
     stress       :      0.83s CPU      0.88s WALL (       1 calls)

     Called by init_run:
     wfcinit      :      0.54s CPU      0.54s WALL (       1 calls)
     potinit      :      0.04s CPU      0.04s WALL (       1 calls)
     hinit0       :      0.69s CPU      0.69s WALL (       1 calls)

     Called by electrons:
     c_bands      :      7.46s CPU      7.49s WALL (       8 calls)
     sum_band     :      1.59s CPU      1.73s WALL (       8 calls)
     v_of_rho     :      0.23s CPU      0.23s WALL (       9 calls)
     newd         :      0.51s CPU      0.65s WALL (       9 calls)
     mix_rho      :      0.03s CPU      0.03s WALL (       8 calls)

     Called by c_bands:
     init_us_2    :      0.25s CPU      0.25s WALL (     152 calls)
     cegterg      :      7.04s CPU      7.07s WALL (      64 calls)

     Called by sum_band:
     sum_band:bec :      0.00s CPU      0.00s WALL (      64 calls)
     addusdens    :      0.45s CPU      0.58s WALL (       8 calls)

     Called by *egterg:
     h_psi        :      5.16s CPU      5.18s WALL (     234 calls)
     s_psi        :      0.74s CPU      0.74s WALL (     234 calls)
     g_psi        :      0.04s CPU      0.04s WALL (     162 calls)
     cdiaghg      :      0.12s CPU      0.12s WALL (     226 calls)

     Called by h_psi:
     h_psi:pot    :      5.13s CPU      5.16s WALL (     234 calls)
     h_psi:calbec :      0.82s CPU      0.82s WALL (     234 calls)
     vloc_psi     :      3.57s CPU      3.59s WALL (     234 calls)
     add_vuspsi   :      0.74s CPU      0.74s WALL (     234 calls)

     General routines
     calbec       :      1.30s CPU      1.30s WALL (     338 calls)
     fft          :      0.14s CPU      0.14s WALL (     124 calls)
     ffts         :      0.01s CPU      0.01s WALL (       8 calls)
     fftw         :      3.71s CPU      3.74s WALL (    6526 calls)

     Parallel routines

     PWSCF        :     12.61s CPU     13.01s WALL


   This run was terminated on:   2:40:24  14Dec2020            

=------------------------------------------------------------------------------=
   JOB DONE.
=------------------------------------------------------------------------------=
