LAMMPS (3 Mar 2020)

    # ---------- Initialize simulation ---------------------
    units metal
    atom_style atomic
    dimension  3
    boundary   p p p
    read_data /home/modeler/RemLabs/Lab4/ProblemEC1_v3_size_4/temp_1245/lammps.data
  orthogonal box = (0 0 0) to (16.36 16.36 16.36)
  1 by 1 by 1 MPI processor grid
  reading atoms ...
  256 atoms
  read_data CPU = 0.00104369 secs

    pair_style eam
    pair_coeff * * /usr/share/lammps-stable/potentials/Ag_u3.eam
Reading potential file /usr/share/lammps-stable/potentials/Ag_u3.eam with DATE: 2007-06-11

    velocity  all create 1245 87287 dist gaussian

    # ---------- Describe computed properties------------------
    compute msdall all msd
    thermo_style custom step pe ke etotal temp press density c_msdall[4]
    thermo 100

    # ---------- Specify ensemble  ---------------------
    #fix  1 all nve
    #fix  1 all nvt temp 1245 1245 0.25
    fix 1 all npt temp 1245 1245 0.25 tchain 2 iso 1.0 1.0 1.0 pchain 2

    # --------- Compute RDF ---------------
    compute rdfall all rdf 100 1 1
    fix 2 all ave/time 1 125000 125000 c_rdfall[*] file /home/modeler/RemLabs/Lab4/ProblemEC1_v3_size_4/temp_1245/lammps.rdf mode vector

    # --------- Run -------------
    timestep 0.005
    run 500000
Neighbor list info ...
  update every 1 steps, delay 10 steps, check yes
  max neighbors/atom: 2000, page size: 100000
  master list distance cutoff = 7.55
  ghost atom cutoff = 7.55
  binsize = 3.775, bins = 5 5 5
  2 neighbor lists, perpetual/occasional/extra = 1 1 0
  (1) pair eam, perpetual
      attributes: half, newton on
      pair build: half/bin/atomonly/newton
      stencil: half/bin/3d/newton
      bin: standard
  (2) compute rdf, occasional, copy from (1)
      attributes: half, newton on
      pair build: copy
      stencil: none
      bin: none
Per MPI rank memory allocation (min/avg/max) = 3.744 | 3.744 | 3.744 Mbytes
Step PotEng KinEng TotEng Temp Press Density c_msdall[4] 
       0       -729.6    41.036865   -688.56314         1245    10010.156    10.472245            0 
     100   -707.15724    22.163687   -684.99355     672.4147   -4855.3157    10.016911  0.065621528 
     200   -702.69289    21.783362   -680.90952    660.87616    -7286.213    9.9202305   0.09460397 
     300   -702.57974    25.289213   -677.29052    767.23869    2835.4406    10.014872  0.088471283 
     400   -701.69753     27.92708   -673.77045    847.26782    2643.6939    9.9928254  0.090777696 
     500   -698.01069    27.635216   -670.37548    838.41308   -783.90667    9.8982025   0.10478499 
     600    -696.5681    29.646131   -666.92197    899.42137   -2556.8425     9.851835   0.12196848 
     700   -695.43351    31.852413    -663.5811    966.35681   -410.88616    9.8543764   0.12647078 
     800   -690.24505    30.102379   -660.14267    913.26329    10986.066    9.8863644   0.13707055 
     900    -691.1147    34.273549   -656.84115    1039.8106   -5676.0895    9.7136491   0.16059744 
    1000   -686.64261    33.206383   -653.43623    1007.4343   -6219.5356    9.6450606   0.17091648 
    1100   -687.23583    37.130045   -650.10578    1126.4727    -4201.737    9.6625242   0.16174565 
    1200   -686.59242    40.004147   -646.58827    1213.6688     4402.263    9.7366425   0.16686075 
    1300   -681.07078    37.574467   -643.49632    1139.9558    7738.3325    9.6827124   0.21109473 
    1400   -677.45902     36.71126   -640.74776    1113.7673   -917.31069    9.5273711   0.24832771 
    1500   -675.37775    37.386247   -637.99151    1134.2455   -6228.2196    9.4307563   0.29013386 
    1600   -673.31623    41.378536   -631.93769    1255.3658    1222.1783    9.4609503    0.2696908 
    1700   -678.14842    42.828017    -635.3204     1299.341    2927.4211     9.564127   0.22306877 
    1800     -679.718    39.495925   -640.22208    1198.2501     6088.625    9.6424468   0.21694845 
    1900   -676.90155    42.081963   -634.81958    1276.7068   -3137.3779    9.4818222   0.25953261 
    2000    -675.9766    42.471629   -633.50497    1288.5287   -1131.8222    9.4791164   0.26713437 
    2100   -681.10586    40.350297   -640.75556    1224.1705    1593.6987     9.600956   0.19635243 
    2200   -679.13377    39.759032   -639.37473    1206.2324   -1872.3816    9.5373448   0.19324491 
    2300   -676.33182    43.665812   -632.66601    1324.7585   -3368.5756    9.4557241   0.23788697 
    2400    -678.9537    41.840088   -637.11362    1269.3686   -12.246778    9.5543759   0.24104348 
    2500    -682.6694    43.675262   -638.99414    1325.0452    10837.203    9.7260269   0.21921885 
    2600   -678.00189    44.853683   -633.14821    1360.7968    4195.7491    9.5710263   0.23736237 
    2700   -674.93989    42.177507   -632.76238    1279.6055   -6181.4715    9.4079136   0.27163141 
    2800    -680.6713    40.488139   -640.18317    1228.3524   -2687.4401    9.5557342   0.22178511 
    2900   -678.14076    40.933917   -637.20684    1241.8767    7293.4196    9.6016747    0.2457644 
    3000   -677.47299    45.040811   -632.43217     1366.474   -1762.1634     9.494275   0.24436223 
    3100   -679.15277    40.690419   -638.46235    1234.4893   -4009.5255     9.515986   0.23892132 
    3200   -680.69532    41.064869   -639.63045    1245.8496   -901.32731    9.5637635    0.2176228 
    3300   -675.54702    42.721022     -632.826    1296.0949    2310.0773    9.5019047   0.23323206 
    3400    -678.3977    41.141466   -637.25624    1248.1735    5644.7721    9.5982542   0.20210671 
    3500   -681.20942    40.942828    -640.2666    1242.1471   -2422.0431      9.55942   0.20307822 
    3600   -673.88239    39.194198   -634.68819    1189.0961   -10296.757    9.3481217   0.27991935 
    3700   -674.04194    41.528502   -632.51344    1259.9156   -8853.3409    9.3674993   0.28886898 
    3800   -679.64264    41.296734   -638.34591    1252.8841    8982.0959    9.6519917   0.22600957 
    3900   -678.36439    41.014759   -637.34963    1244.3293    5559.3752    9.5983934   0.22560247 
    4000   -674.13666    43.547231   -630.58943    1321.1609   -3092.9116    9.4085299   0.25591271 
    4100   -673.65556     38.86852   -634.78704    1179.2155   -1719.1121    9.4322285   0.25197532 
    4200   -676.28034    37.611933    -638.6684    1141.0925    1306.9438    9.5314756   0.24350157 
    4300   -677.22341    40.463753   -636.75965    1227.6126   -3109.7347    9.4702929   0.25506333 
    4400   -672.44846    41.518407   -630.93005    1259.6093   -755.62465    9.4269747   0.28424288 
    4500   -678.62969    40.001033   -638.62865    1213.5743   -1765.8198    9.5207154   0.25129742 
    4600   -677.39377    39.551545   -637.84223    1199.9375    1039.9804    9.5200552   0.23901385 
    4700   -676.85406    44.216808   -632.63726     1341.475   -9973.9636    9.3915859   0.25872861 
    4800   -678.61935    42.300311   -636.31904    1283.3312    4177.1994    9.5842593   0.26382739 
    4900   -683.88429    43.265696    -640.6186    1312.6196    1351.6557    9.6451931   0.18783613 
    5000   -677.63418     42.67921   -634.95497    1294.8264   -357.50886    9.5210308   0.21131333 
    5100   -675.35558    41.046934   -634.30864    1245.3055   -739.44527    9.4726575   0.23796843 
    5200   -680.52507     39.41928   -641.10579    1195.9248   -14604.805    9.4126594   0.25015853 
    5300   -676.73348    39.839843   -636.89363    1208.6841    949.26995    9.5341958   0.23950425 
    5400   -675.54824    41.893517   -633.65473    1270.9896    8585.5407    9.5856726   0.25312156 
    5500   -678.65748    39.132031   -639.52545    1187.2101    2700.9234    9.5922875   0.22572083 
    5600   -684.55739    40.942848   -643.61454    1242.1477   -8901.6645    9.5565232   0.19738843 
    5700   -674.29724    39.424853   -634.87239    1196.0939   -3269.6781    9.4418297   0.30561527 
    5800   -677.28498    42.025663   -635.25932    1274.9987   -1150.0648    9.5128649   0.27665585 
    5900   -676.94534    39.998134    -636.9472    1213.4864   -1226.0579    9.5066411   0.23334983 
    6000   -681.45066     39.01742   -642.43324    1183.7329   -9630.0225    9.4865444   0.23566078 
    6100   -678.76318    42.671973   -636.09121    1294.6069    4343.2665    9.5915195   0.22540239 
    6200   -675.38834    42.709874   -632.67847    1295.7567    4322.6587    9.5217255   0.23333201 
    6300   -680.28412     40.89845   -639.38567    1240.8007   -3369.2383    9.5373755   0.21275644 
    6400   -680.08981    37.817397   -642.27241    1147.3259   -989.15024    9.5487337   0.22668572 
    6500   -674.41879    37.963384    -636.4554     1151.755    3289.1082    9.5146006   0.23579193 
    6600   -677.32689    41.620831   -635.70606    1262.7167    1152.3763    9.5424561   0.23287111 
    6700   -679.91192    39.467034   -640.44489    1197.3736   -30.826862    9.5549573    0.2375858 
    6800   -681.09089    38.265608   -642.82528     1160.924   -5578.6277    9.5363841   0.22567196 
    6900   -682.42619    45.101289    -637.3249    1368.3088   -6582.6979    9.5230207     0.221699 
    7000   -677.64462    42.193232   -635.45139    1280.0825    7000.6635    9.5991872   0.23687925 
    7100   -675.17166    45.564026   -629.60764    1382.3476   -705.68737    9.4606674   0.28234876 
    7200   -674.13295     41.36957   -632.76338    1255.0938   -2594.3356    9.4202418   0.27248592 
    7300   -678.58129    41.692859   -636.88843    1264.9019   -341.30164    9.5434994   0.22136789 
    7400   -681.22572    43.545307   -637.68041    1321.1026    4170.0444     9.620547   0.20614352 
    7500   -678.21174    41.180766   -637.03098    1249.3658   -2147.2633    9.5171159   0.23495215 
    7600   -672.32528     43.77604   -628.54924    1328.1027   -4716.5287    9.3545307   0.26659394 
    7700   -677.08161    43.013297   -634.06831    1304.9621   -5657.3382    9.4465415   0.26740086 
    7800   -678.98907    42.399407   -636.58966    1286.3376    4852.3616    9.5929544   0.22354747 
    7900   -678.78416    38.167721   -640.61644    1157.9543    6070.7411    9.6253735   0.23267956 
    8000   -677.18808    39.376884    -637.8112    1194.6386   -3196.8117    9.4905173   0.24788133 
    8100    -676.3301    42.949843   -633.38026     1303.037   -3104.7451    9.4462312   0.27692303 
    8200   -677.63932    41.119715    -636.5196    1247.5136   -1434.9377    9.5196484   0.23710336 
    8300   -679.59178    38.803838   -640.78794    1177.2532    5951.6392    9.6221287   0.22546239 
    8400   -673.76925    40.293875   -633.47537    1222.4588    2618.9859    9.4996597   0.27684016 
    8500    -674.7828    41.849332   -632.93347    1269.6491   -6800.8297    9.4044071   0.28339256 
    8600   -681.00409    40.971315   -640.03278    1243.0113   -749.18795    9.5634817   0.21928874 
    8700   -679.39773    41.706454   -637.69128    1265.3144    -3403.429    9.5307021   0.24797955 
    8800   -675.49289    44.093787    -631.3991    1337.7427   -3442.6502    9.4305224   0.27018158 
    8900   -676.22112    42.261449   -633.95967    1282.1522   -89.662636    9.4811479   0.27884014 
    9000   -680.69188    40.534946   -640.15693    1229.7725   -2937.9023    9.5462633   0.22942877 
    9100   -679.65915    43.962087   -635.69706    1333.7471    4762.5028    9.6118222   0.22632066 
    9200   -673.64539    40.600825   -633.04456    1231.7712    6052.2734    9.5246964   0.27656209 
    9300   -679.06165    41.424153    -637.6375    1256.7498   -7843.5965    9.4535111   0.23840813 
    9400    -677.9867    39.921118   -638.06558    1211.1498   -752.77853     9.520278   0.23454069 
    9500    -675.7602    40.621324   -635.13888    1232.3931    10594.392    9.6043429   0.25363667 
    9600   -672.85273    42.668472   -630.18426    1294.5007   -2673.6168    9.4104925    0.3383546 
    9700   -670.85556    45.260111   -625.59545    1373.1273   -7531.3508    9.2988941   0.28417048 
    9800   -677.03004    43.218197   -633.81184    1311.1785   -1656.1191    9.4830614   0.26108178 
    9900   -677.82974    42.483303   -635.34644    1288.8829    2187.7536     9.554827   0.23658871 
   10000   -679.19964    38.698666   -640.50097    1174.0624    654.56961    9.5680232   0.25738466 
   10100   -675.51503    38.894662   -636.62037    1180.0086   -4248.5483    9.4581008   0.26197819 
   10200   -673.31684    41.757378   -631.55947    1266.8593    15.097554    9.4311286   0.24384255 
   10300   -677.79486    38.865027   -638.92983    1179.1095    2862.9681    9.5589606   0.21267182 
   10400   -674.72295    36.061849    -638.6611    1094.0651    5893.4799    9.5418479   0.21982888 
   10500   -671.28646    37.255861    -634.0306    1130.2897    7054.9483    9.4885141   0.30224669 
   10600   -670.39552    42.044219    -628.3513    1275.5617    3489.6002    9.4241861   0.31096916 
   10700     -676.058    39.781371   -636.27663    1206.9101    5776.5745    9.5575775   0.21175302 
   10800   -680.45604    42.412764   -638.04328    1286.7428    1558.8742    9.5963513   0.22828623 
   10900   -676.81723    42.595922   -634.22131    1292.2996    579.25671    9.5004039   0.26480373 
   11000    -672.0575    43.122482   -628.93501    1308.2747     -9982.34    9.3119236   0.30061636 
   11100   -676.25553    40.004221   -636.25131    1213.6711    837.48296    9.5141782   0.25777801 
   11200   -678.87795    40.033584   -638.84436    1214.5619   -295.19673    9.5319843    0.2419361 
   11300   -679.19826    42.846145   -636.35212     1299.891     5713.642    9.5984677   0.22248985 
   11400   -674.56894    44.936441    -629.6325    1363.3076   -7374.6195    9.3692449    0.2651252 
   11500   -673.90431     37.27797   -636.62634    1130.9605   -5077.1628    9.4104441   0.28112854 
   11600   -679.07181    40.923097   -638.14871    1241.5484   -2188.1805    9.5355204   0.23950306 
   11700   -681.09396    42.854864    -638.2391    1300.1555    5277.7243    9.6405848   0.21829914 
   11800   -675.08929     44.14739    -630.9419    1339.3689   -1958.4807    9.4683794   0.25999959 
   11900   -675.87362      41.2934   -634.58022    1252.7829    -11871.32    9.3542328   0.26532119 
   12000   -677.48897    38.864566   -638.62441    1179.0955   -4388.7355    9.4854579   0.24821157 
   12100   -677.81622    40.170148   -637.64607    1218.7051    7119.8805    9.6152643   0.21790447 
   12200   -673.46732    43.029031   -630.43829    1305.4395    6694.9094    9.5013128   0.27350129 
   12300   -678.17193    41.328705   -636.84323     1253.854   -6900.6045    9.4478437   0.24536285 
   12400   -677.71865    38.770456   -638.94819    1176.2404    296.07738    9.5249627   0.26735356 
   12500    -674.6874    41.458474   -633.22893     1257.791   -3643.5252    9.4368702   0.26427632 
   12600   -676.81758    39.825106   -636.99247     1208.237   -1613.7918    9.4939572   0.25363641 
   12700   -678.94366    39.548035   -639.39563     1199.831    2852.6256    9.5843858   0.21881241 
   12800   -675.28117    41.455107   -633.82607    1257.6889    2080.6665    9.5115315   0.24511583 
   12900   -672.51598     42.77992   -629.73606    1297.8818   -1886.7315    9.4040348   0.26732423 
   13000   -679.26298    41.362185    -637.9008    1254.8698    7667.1789    9.6315497   0.22004461 
   13100   -680.23037     41.64921   -638.58116    1263.5777     3233.362    9.6057337   0.20304051 
   13200    -674.4543    41.184564   -633.26973     1249.481   -1883.6193    9.4477425   0.27568928 
   13300   -675.01076    41.153521   -633.85724    1248.5392   -8141.8184    9.3821322   0.27794168 
   13400   -679.40968     38.91135   -640.49833    1180.5149    10220.901     9.674275   0.20764176 
   13500   -677.09697    40.760006   -636.33697    1236.6005    7208.5025    9.6060687   0.22098565 
   13600   -677.54962    42.294417    -635.2552    1283.1523    885.02919    9.5327056   0.24590685 
   13700   -680.80481    38.788379   -642.01643    1176.7842   -3144.7513    9.5618186   0.23233187 
   13800   -681.07019    41.290707   -639.77948    1252.7012   -5260.9719    9.5243861   0.22523255 
   13900   -677.71855    43.078022   -634.64052    1306.9258   -5258.4025    9.4541115   0.23934979 
   14000   -677.78525    38.729121   -639.05613    1174.9863    5899.5984    9.5914476   0.24167299 
   14100    -680.8009    41.771032   -639.02987    1267.2736    2031.2313    9.6055064   0.23429606 
   14200   -674.51525    42.643612   -631.87164    1293.7464   -4675.7388    9.4323418   0.24954877 
   14300   -678.76085    41.237146    -637.5237    1251.0763   -2850.9874    9.5047191   0.21225479 
   14400   -679.68501    39.979407   -639.70561    1212.9182    2122.6856    9.5955006    0.2149288 
   14500   -672.09834    39.586389   -632.51195    1200.9946    4147.5598    9.4919709   0.23073574 
   14600   -675.72367    40.989148   -634.73452    1243.5524    3681.2428    9.5195752   0.25219186 
   14700   -680.62198    40.386703   -640.23528     1225.275   -4953.2407     9.525347   0.23437307 
   14800   -678.50935    43.547424   -634.96193    1321.1668   -1782.4705    9.5077374   0.25241875 
   14900   -678.03138    43.971763   -634.05962    1334.0406    5850.2793    9.5883943   0.22083599 
   15000   -679.74622    40.343301   -639.40292    1223.9583   -2379.8445    9.5507561   0.21458765 
   15100   -673.49674     38.57998   -634.91676    1170.4616    682.88256    9.4702133   0.27345814 
   15200   -669.73107    36.957914   -632.77315    1121.2505    -2473.186    9.3619613   0.30261821 
   15300   -676.28578    36.749012   -639.53677    1114.9127   -8021.2514    9.4184731    0.2411605 
   15400   -677.70297    36.925826   -640.77714     1120.277   -572.58625    9.5258928    0.2286352 
   15500   -678.53327    45.273794   -633.25948    1373.5424     3637.805    9.5802838   0.23326586 
   15600   -676.49256    41.678508   -634.81405    1264.4665    2809.7009    9.5304392   0.22862444 
   15700   -682.85721     41.47936   -641.37785    1258.4247   -940.44787    9.6047112   0.20432005 
   15800   -679.18267    42.893362   -636.28931    1301.3235    2636.8912    9.5691348   0.22703381 
   15900   -676.63885    41.998073   -634.64078    1274.1617   -3369.9891    9.4708178    0.2644752 
   16000   -680.05022    39.014056   -641.03617    1183.6309   -2692.7239    9.5377259   0.21599037 
   16100   -678.28616    36.513949   -641.77221    1107.7812    935.30647    9.5424317    0.2467547 
   16200   -675.42828    38.919748   -636.50853    1180.7697   -4457.1704    9.4478276   0.26501865 
   16300   -678.50215    41.707446    -636.7947    1265.3445    1969.4138    9.5427336    0.2373243 
   16400    -682.4691     41.54848   -640.92062    1260.5217    6482.5435     9.679161   0.19880989 
   16500   -682.59319    39.474871   -643.11832    1197.6113   -3636.5079    9.5748161   0.18359977 
   16600   -675.14139    38.902405   -636.23899    1180.2435   -6777.1804    9.4044531   0.25757311 
   16700   -677.99645    42.696342    -635.3001    1295.3462   -1734.5282    9.5111879   0.23510223 
   16800   -683.66234    42.747137    -640.9152    1296.8872    1021.9183    9.6450331   0.19265114 
   16900   -683.32516    44.776902   -638.54826    1358.4674    10616.652    9.7306258    0.1925927 
   17000   -676.92397    42.680398   -634.24357    1294.8625    4532.2777    9.5413753   0.25200324 
   17100   -675.21908    38.616007   -636.60307    1171.5546   -4480.3828    9.4351665   0.24373644 
   17200   -682.22803    39.467625    -642.7604    1197.3915   -1494.1682    9.5867572   0.20788968 
   17300   -679.96161     42.77236   -637.18925    1297.6525   -1688.8527    9.5547314   0.23219166 
   17400   -675.71921     41.05624   -634.66298    1245.5878     7906.573    9.5761846    0.2407372 
   17500   -680.21675    41.177688   -639.03906    1249.2724   -8660.6532    9.4680318   0.23765483 
   17600   -681.00336    38.620817   -642.38254    1171.7006   -7056.8555    9.5016411   0.20630201 
   17700   -674.58721     40.49776   -634.08945    1228.6443   -1880.8231    9.4599613   0.27852374 
   17800   -675.86419    39.730656   -636.13353    1205.3715    6587.0079    9.5750007   0.24859719 
   17900   -678.39217    39.718917   -638.67325    1205.0153   -202.68181    9.5289466   0.22508097 
   18000   -677.77077    44.001326   -633.76945    1334.9375   -565.45554    9.5070011   0.24286072 
   18100   -675.20703    44.427195   -630.77984    1347.8578   -6511.6061    9.4141271   0.29789243 
   18200   -680.04505    41.989275   -638.05577    1273.8948   -246.35301    9.5643371   0.21899248 
   18300   -677.55533    38.717653   -638.83768    1174.6384    6965.5196    9.6200399    0.2154816 
   18400   -677.18136    42.950745   -634.23062    1303.0644    2990.3618    9.5545048   0.23280657 
   18500   -672.40557    44.644203   -627.76137    1354.4415   -2612.1715    9.3793286   0.30670129 
   18600   -672.58167    40.423481   -632.15819    1226.3908   -8181.9188    9.3515837   0.29866613 
   18700   -676.90532    40.467249   -636.43807    1227.7187     6691.783    9.5890135   0.25844516 
   18800    -679.0921    42.866772   -636.22533    1300.5168    3722.6221    9.5817392   0.23206708 
   18900   -678.77253    37.679197   -641.09333    1143.1331   -7148.9143     9.488183   0.25249945 
   19000   -679.74346    35.447551   -644.29591    1075.4282   -2609.9429    9.5332678   0.25647811 
   19100   -678.65106     40.25616    -638.3949    1221.3145    320.73863    9.5500056   0.27342651 
   19200   -675.84186    40.167692   -635.67417    1218.6305    1563.3689    9.5040887   0.25778158 
   19300   -676.04802    40.995238   -635.05278    1243.7371     1990.919    9.5109342   0.23360834 
   19400   -680.42834    37.582827   -642.84551    1140.2094    6126.2078    9.6436427   0.21177001 
   19500   -680.49719     41.95193   -638.54526    1272.7618   -4718.2261    9.5275263   0.20763232 
   19600    -679.2644    44.193771   -635.07063     1340.776    372.23207    9.5582418   0.22860879 
   19700   -678.15749    42.117399   -636.04009    1277.7819    14427.242    9.6732359   0.22885507 
   19800   -681.60492    37.460818   -644.14411    1136.5078   -1833.1825    9.5882031   0.20275164 
   19900   -676.22278    37.386684   -638.83609    1134.2587   -4357.8307    9.4625485   0.23766706 
   20000   -678.98905     42.44846   -636.54059    1287.8258    3987.7965    9.5822943   0.19426083 
   20100   -679.25939    39.146299   -640.11309    1187.6429    1291.2593    9.5694624   0.22402043 
   20200   -684.81175    39.145511   -645.66624     1187.619   -3384.7645    9.6124303   0.19454281 
   20300   -680.66325    39.357668   -641.30558    1194.0556    1972.4091     9.599981   0.22574769 
   20400   -676.27119    38.593628   -637.67756    1170.8757    -4389.465    9.4717503   0.25464233 
   20500   -675.04929    37.627898   -637.42139    1141.5768    11670.368     9.619966   0.23548372 
   20600   -680.24202    42.043605   -638.19841    1275.5431   -6476.2033    9.5052839   0.22326298 
   20700   -681.62254    35.382366   -646.24018    1073.4506    3866.4131    9.6538971   0.20446701 
   20800   -680.34321     39.18949   -641.15372    1188.9533   -531.63376    9.5622923   0.21922936 
   20900   -680.36634    43.081424   -637.28492     1307.029    4116.5672    9.6090242   0.20624523 
   21000   -676.78496    40.249047   -636.53591    1221.0987    3882.7456     9.550657   0.22286055 
   21100   -670.46838    39.474345   -630.99403    1197.5954    -6680.206     9.313185   0.33042201 
   21200   -672.74313    43.536873   -629.20625    1320.8467    2400.8189    9.4482359   0.28749842 
   21300   -675.12343    40.184969   -634.93846    1219.1547    7474.7369      9.56202    0.2481919 
   21400    -677.4657    41.087027   -636.37867    1246.5219    2470.3648     9.531536   0.24669275 
   21500   -676.68915    37.306802   -639.38235    1131.8352   -956.69588    9.5212472   0.23549732 
   21600   -679.77048    36.490549   -643.27993    1107.0713    755.95393    9.5738832   0.22580886 
   21700   -678.81492    42.531261   -636.28366    1290.3379   -4523.7988    9.4911311   0.25162222 
   21800   -678.37294    43.123358   -635.24958    1308.3012    666.81543    9.5481653   0.24975442 
   21900   -681.77591    40.575924   -641.19999    1231.0157   -794.26405    9.6053073    0.2226318 
   22000   -678.41271    39.501452   -638.91126    1198.4178    6822.5384    9.6151374   0.20265959 
   22100     -674.122    39.482052   -634.63995    1197.8292    3033.3991    9.5009864   0.24686454 
   22200   -678.33909     41.32184   -637.01725    1253.6458   -963.41134    9.5323163   0.22471246 
   22300   -682.70014    40.400411   -642.29973    1225.6909    1420.0551    9.6365962   0.17836159 
   22400   -676.91988    40.999218   -635.92066    1243.8579    13913.881    9.6698458   0.20639215 
   22500   -677.53866    43.219875   -634.31878    1311.2294   -273.32296    9.5227308   0.22386981 
   22600   -678.48596    37.891672   -640.59429    1149.5793   -9197.9963    9.4506593   0.22046935 
   22700   -676.95793     37.47005   -639.48788    1136.7879    5423.4581    9.5692587   0.24060465 
   22800   -677.61368      44.2128   -633.40088    1341.3534   -2667.3218    9.4980591    0.2259668 
   22900   -676.58796    39.306641   -637.28132    1192.5075    4003.2431    9.5362337   0.25918264 
   23000   -676.98943    40.669044   -636.32039    1233.8408   -1897.5761     9.514506   0.24955157 
   23100   -671.95385    43.427195   -628.52665    1317.5192    7939.9648     9.481924   0.27123747 
   23200    -674.6091    41.085036   -633.52407    1246.4614    4049.7171    9.5021949   0.26466859 
   23300    -677.1361    39.395474   -637.74063    1195.2026   -4136.2771    9.4660308   0.28450671 
   23400   -675.53147     41.24229   -634.28918    1251.2323    2424.7425    9.5114765   0.25752221 
   23500   -675.83922    41.186522   -634.65269    1249.5404    190.27771    9.4852379   0.27076527 
   23600     -680.148    37.921658   -642.22635    1150.4891    401.08968    9.5872571   0.20562671 
   23700   -677.29409    40.541947   -636.75214    1229.9849    2471.3197    9.5412234   0.24063028 
   23800   -677.48708    43.621273   -633.86581    1323.4073     4768.565    9.5665148   0.25530001 
   23900   -681.00803     45.43699   -635.57104    1378.4935    9142.1919     9.673682   0.21463433 
   24000   -681.98465    38.823691   -643.16096    1177.8555    5113.6286    9.6613271   0.20670582 
   24100   -680.05913    41.482724   -638.57641    1258.5267   -9240.2631    9.4604547    0.2317217 
   24200     -675.881    40.727857   -635.15315    1235.6251   -276.01745    9.4811465   0.22906617 
   24300   -679.49326    40.906912   -638.58634    1241.0574   -1233.3831     9.537848   0.24956918 
   24400   -684.03307    40.017084   -644.01598    1214.0613    2938.0371      9.66371   0.20288997 
   24500   -681.12953    44.739027   -636.39051    1357.3183    340.42932    9.5755119   0.21129969 
   24600   -676.78346     39.94231   -636.84115    1211.7928    2163.7343    9.5377976   0.24475921 
   24700   -678.47367    41.304869    -637.1688    1253.1309   -2680.0084    9.5072618   0.24160799 
   24800   -683.45539    38.291427   -645.16396    1161.7073   -6922.7544    9.5590066   0.21343724 
   24900   -680.73493    39.699647   -641.03528    1204.4307    3269.3028    9.6340188   0.22162326 
   25000    -681.9545    44.985379   -636.96912    1364.7923    6642.0039    9.6544789   0.19606756 
   25100   -678.00324    42.229316   -635.77393    1281.1773    5736.5102    9.5892474   0.20229911 
   25200   -683.70864    43.612435    -640.0962    1323.1391   -7307.1343    9.5558503   0.18722717 
   25300   -683.84666    39.977349   -643.86931    1212.8558   -6042.2972    9.5703723   0.18593328 
   25400   -680.94199    43.762915   -637.17907    1327.7045   -5113.8668    9.5151469   0.21470881 
   25500   -675.38444     38.54982   -636.83462    1169.5466    9645.1783    9.5827623   0.24630586 
   25600   -673.49891    41.464934   -632.03397     1257.987    2908.9465     9.484265   0.28486388 
   25700   -675.84188    39.866831   -635.97505    1209.5028   -6335.7921     9.436123    0.2743851 
   25800   -679.47016    39.484433   -639.98573    1197.9014   -11529.765    9.4225815   0.25932726 
   25900   -677.44137    40.658408   -636.78296    1233.5182   -5863.4061    9.4450004   0.23837073 
   26000   -679.43826    44.981013   -634.45724    1364.6599    -552.1493    9.5258614   0.24924745 
   26100   -672.26868    45.140544   -627.12813    1369.4998    5661.0971    9.4797253   0.29041687 
   26200   -678.54949    43.184747   -635.36474    1310.1637   -549.93283    9.5248071    0.2221756 
   26300   -679.95987    42.011255   -637.94861    1274.5616   -5040.0446    9.5120588    0.2285897 
   26400   -678.46343    41.677538   -636.78589    1264.4371     2088.277    9.5521224   0.23181804 
   26500   -672.24289    42.516602   -629.72629    1289.8931    2556.0592    9.4497778    0.3186393 
   26600    -674.2859    40.737994   -633.54791    1235.9327   -3867.6237    9.4249226    0.2811252 
   26700   -678.77999    39.819306   -638.96068     1208.061   -4717.9085    9.4932872   0.26013029 
   26800   -679.05031    43.510088   -635.54023    1320.0341   -6106.6145    9.4694828   0.26270004 
   26900   -677.34968    45.082661   -632.26702    1367.7437    7791.7173    9.6058862   0.22379505 
   27000   -681.04068    41.883578    -639.1571    1270.6881    13804.488    9.7368193    0.2062817 
   27100   -677.32054    39.612909   -637.70763    1201.7992   -896.77814    9.4919512   0.23421052 
   27200   -674.07618    41.369509   -632.70667     1255.092   -8919.4874    9.3427716   0.31010564 
   27300   -672.66003    36.775502   -635.88453    1115.7163    2279.1325    9.4627739   0.28716733 
   27400   -679.88214    37.727571   -642.15457    1144.6007   -877.58948    9.5471649   0.22797745 
   27500   -677.16328     40.68192   -636.48136    1234.2315    1399.9113     9.540405   0.27219792 
   27600   -675.63565    44.498397   -631.13725     1350.018    4928.7023    9.5626856   0.26374193 
   27700   -677.27067    39.371009   -637.89966    1194.4603    1393.9072    9.5499137   0.24906621 
   27800   -679.44776    40.533437   -638.91432    1229.7267   -5130.8597    9.4880559   0.23929922 
   27900   -674.57365    40.452746    -634.1209    1227.2787   -381.95058    9.4710117   0.27516656 
   28000   -673.53654    43.402025   -630.13452    1316.7556    -3414.445    9.4113471   0.25119063 
   28100    -680.0824    42.778114   -637.30429     1297.827    12415.416    9.7107224   0.20896725 
   28200   -681.86474    45.431466   -636.43327     1378.326   -732.89793    9.5779407   0.24355235 
   28300   -674.69421    41.418351   -633.27586    1256.5738   -3388.5306     9.445225   0.27810625 
   28400   -672.66121    43.801328   -628.85988    1328.8699   -13601.336    9.2769509   0.34619686 
   28500   -678.93228    40.687861   -638.24442    1234.4117   -3862.6387    9.5095886   0.22507148 
   28600   -679.52033    42.232419   -637.28791    1281.2714   -2409.7437    9.5405367   0.23908099 
   28700   -678.64275    43.528934   -635.11382    1320.6058    4068.0475    9.5844795   0.25011394 
   28800   -674.81346    44.205028   -630.60843    1341.1176    2313.5795    9.4878668   0.26888094 
   28900   -678.36612    39.697596   -638.66852    1204.3685    1412.4478    9.5434637   0.22089015 
   29000   -679.39534    40.070293   -639.32505    1215.6756    51.411713    9.5533072   0.22686505 
   29100   -676.21471    40.982714     -635.232    1243.3571   -4091.6896       9.4415   0.25892488 
   29200   -675.47048    40.495322   -634.97515    1228.5704   -12569.068     9.363329   0.28099694 
   29300   -683.48347    41.296699   -642.18677     1252.883    1199.7123    9.6292678   0.20613815 
   29400   -680.28465    43.942766   -636.34188    1333.1609    2982.5702       9.5934   0.18434587 
   29500   -677.87575    42.137921   -635.73783    1278.4045    2957.4969    9.5620829   0.24200964 
   29600   -679.44586     40.84697   -638.59889    1239.2389   -3821.0242    9.5058226   0.25411268 
   29700   -679.25483    34.280759   -644.97407    1040.0294    845.47052    9.5744407   0.23801963 
   29800    -675.8361    38.164339   -637.67176    1157.8517   -4709.4881    9.4626908   0.26835471 
   29900   -676.21389    39.132643   -637.08124    1187.2286    2759.5814    9.5258768   0.24977589 
   30000   -676.86016    42.055577   -634.80459    1275.9063   -1297.9832    9.4918759   0.24119864 
   30100   -670.66489    42.444975   -628.21991    1287.7201    5604.6186     9.468529   0.27648479 
   30200   -676.55009    40.287514   -636.26258    1222.2658   -5281.2594    9.4429761    0.2744378 
   30300   -676.13869    38.215887   -637.92281    1159.4156   -5475.7498    9.4524243   0.25055833 
   30400   -676.50762    39.503231   -637.00439    1198.4717   -2051.0504    9.4871061   0.26363105 
   30500   -672.97788    42.046286    -630.9316    1275.6244   -539.40931     9.444329   0.28087381 
   30600   -678.20344    40.092512   -638.11093    1216.3497    5649.0682    9.6038981   0.23134821 
   30700   -681.02225    41.874016   -639.14824     1270.398   -3300.9072    9.5387621   0.23337963 
   30800   -671.64671    38.776115    -632.8706    1176.4121   -5.1068156    9.4083564   0.30258862 
   30900   -673.87607    39.847622   -634.02845    1208.9201   -10286.138    9.3456898   0.27788161 
   31000   -677.05192    38.985624    -638.0663    1182.7683   -1581.5043    9.4898035   0.23995037 
   31100   -680.31732    40.282648   -640.03467    1222.1181    395.45176    9.5819355   0.22803973 
   31200   -672.18564    40.276933   -631.90871    1221.9448    6301.3141    9.5146371   0.27586385 
   31300   -674.58708    41.613957   -632.97312    1262.5082   -1331.9179    9.4505017   0.25065585 
   31400    -679.5238     41.71102   -637.81278    1265.4529    -5101.828    9.4958992   0.22126578 
   31500   -679.55939    39.270352   -640.28903    1191.4065    9634.0908    9.6795602   0.20429125 
   31600   -675.52926    43.836635   -631.69263     1329.941     726.3788    9.4717972   0.24577913 
   31700   -675.43056    39.953952   -635.47661     1212.146   -11628.632    9.3540561   0.25409195 
   31800   -677.64985     38.32814   -639.32171    1162.8212   -5908.4789    9.4674706   0.26688894 
   31900   -676.62491    41.359464   -635.26545    1254.7872     2762.851    9.5306174   0.23957405 
   32000   -676.15977    44.924607   -631.23516    1362.9486    9346.2745    9.5730068   0.22661811 
   32100   -681.58248     41.69577   -639.88671    1264.9902   -6469.8175    9.5202942   0.22184487 
   32200   -678.09902    39.950158   -638.14886    1212.0309   -2859.2141    9.4946133   0.24619322 
   32300   -674.19955    41.016181   -633.18337    1244.3725    6559.7429      9.54228   0.29465768 
   32400   -674.66478    42.740379   -631.92441    1296.6822   -3370.9515    9.4312246   0.26612559 
   32500    -677.5706    37.307085   -640.26351    1131.8438    633.30605    9.5450308   0.22965894 
   32600   -677.90772     39.60067   -638.30705    1201.4279    3885.1304    9.5665529   0.23120682 
   32700   -674.80353    41.426489   -633.37704    1256.8207    1565.7631    9.5030441   0.27246502 
   32800    -675.9486    39.076613   -636.87199    1185.5287   -5472.7867    9.4529517   0.25085375 
   32900   -681.34876    39.575568   -641.77319    1200.6663    4023.9741    9.6210591    0.2016733 
   33000   -677.22785     40.17242   -637.05543     1218.774    5592.6969    9.5710198   0.21649198 
   33100   -674.24348    42.694726   -631.54875    1295.2972   -7989.3967    9.3653571   0.30367089 
   33200   -676.19383    39.098051   -637.09578    1186.1792   -3210.7423     9.456186   0.26837669 
   33300   -682.71302    44.595947   -638.11707    1352.9775    1027.0522    9.6217275   0.20602948 
   33400   -679.25583    45.916121   -633.33971    1393.0297    3151.7183    9.5674462   0.25424343 
   33500   -676.08081    42.859553   -633.22125    1300.2978    1034.2026    9.5036736   0.25825898 
   33600   -678.04938      37.7184   -640.33098    1144.3225   -1459.6696    9.5174214   0.25581248 
   33700    -678.3473    40.922268   -637.42503    1241.5233   -8935.3585    9.4313627   0.24548573 
   33800   -673.50799    42.726723   -630.78126    1296.2679     4501.707    9.4937784   0.27281405 
   33900   -678.82566    42.585331   -636.24033    1291.9783    1564.4716    9.5627237   0.25571915 
   34000   -677.73453    39.967434   -637.76709     1212.555    8687.8678    9.6230876    0.2161901 
   34100   -678.53785    43.972884   -634.56497    1334.0746   -2844.0265    9.4919144   0.24426122 
   34200   -672.17277    41.371229   -630.80154    1255.1441    1056.1764    9.4358892   0.29026692 
   34300   -680.48421    41.386186   -639.09803    1255.5979     4454.498    9.6338217    0.1969183 
   34400   -678.97055    40.488602   -638.48195    1228.3665    -2584.591    9.5287834   0.22907102 
   34500   -674.98619    39.670968   -635.31523    1203.5606   -6034.8599    9.4155765   0.28934373 
   34600   -670.60418    42.124301   -628.47988    1277.9913    4730.9481     9.453177   0.32264704 
   34700   -673.97184     41.85292   -632.11892     1269.758    5322.6786    9.5095726   0.25999014 
   34800   -678.07109    41.766706   -636.30439    1267.1423   -3047.9887    9.4805491   0.25242266 
   34900   -679.37634    42.500243    -636.8761    1289.3968   -3958.5146    9.5084874   0.24003867 
   35000   -677.78897    40.377228   -637.41175    1224.9876    6849.0505    9.5989548   0.23730126 
   35100   -671.35108    41.789887    -629.5612    1267.8456   -7758.1042    9.3148438    0.2937693 
   35200    -673.7566    41.443083   -632.31352    1257.3241   -4422.1925    9.4052696   0.27176005 
   35300   -678.83462    42.507115    -636.3275    1289.6053   -4.5398387    9.5312356   0.22874425 
   35400   -679.91153    43.119184   -636.79234    1308.1746    5621.9123    9.6302708   0.20227645 
   35500   -682.81802    41.732787   -641.08523    1266.1133    2791.1695    9.6440694   0.20657348 
   35600   -680.26204    41.189477   -639.07256      1249.63   -1197.8923    9.5593411   0.21751977 
   35700   -672.37647    38.748294   -633.62817     1175.568    873.19109    9.4490743   0.32648715 
   35800   -674.36095    39.921842   -634.43911    1211.1718   -5454.3329    9.3958944   0.30015846 
   35900   -679.14598    39.564501   -639.58147    1200.3306   -4030.1751    9.5126137   0.24212592 
   36000   -679.70814    43.186265   -636.52188    1310.2097   -140.20136    9.5718834   0.21288978 
   36100   -672.64063    39.503849   -633.13678    1198.4905    2910.0384    9.4596433   0.30644676 
   36200   -676.20942    40.225448   -635.98397    1220.3828   -8485.8009    9.3969113   0.25302012 
   36300   -677.59776    36.800556   -640.79721    1116.4764   -1659.1405    9.5181491   0.22613341 
   36400   -680.91843    44.715286   -636.20314    1356.5981   -1043.0416     9.559285   0.20226216 
   36500   -676.25317     45.11997    -631.1332    1368.8756    4910.4016    9.5395255   0.24443953 
   36600   -676.01474    40.730678   -635.28406    1235.7108    2357.5088     9.512391   0.25490996 
   36700   -677.90831    38.701599   -639.20671    1174.1514    3739.7838    9.5706461   0.22789433 
   36800   -677.31643     41.54098   -635.77545    1260.2941   -6850.3758    9.4395246   0.24292283 
   36900   -668.43457    38.474638   -629.95993    1167.2657   -1478.0577    9.3643716   0.30948959 
   37000   -675.42312    42.550432   -632.87269    1290.9195   -2022.6466    9.4612778    0.2782594 
   37100   -678.71902    42.194423    -636.5246    1280.1187    8686.5876    9.6175288    0.2311163 
   37200   -679.87575    40.709462   -639.16629    1235.0671   -189.74246    9.5619168   0.21602812 
   37300   -681.79284    36.262166   -645.53067    1100.1424   -1239.8294    9.5847693   0.21623771 
   37400   -679.39833    40.535131    -638.8632    1229.7781   -14184.648    9.3939705   0.24496271 
   37500   -677.49103    41.292476   -636.19856    1252.7549    1867.5728    9.5333098   0.22749822 
   37600   -681.25836     44.92636   -636.33199    1363.0018   -2948.0147    9.5391372   0.20824105 
   37700    -682.3624    38.355946   -644.00645    1163.6648    9622.0697    9.7234776    0.1902571 
   37800   -680.32181    40.438288   -639.88352      1226.84   -625.07279    9.5611856   0.21581215 
   37900   -677.15675    40.600313   -636.55644    1231.7556   -2929.3486    9.4849794   0.27818944 
   38000   -674.35456    40.840434   -633.51413    1239.0406      6309.63    9.5263112   0.27162794 
   38100   -678.41229    38.502114   -639.91017    1168.0993   -3157.8155    9.5111075   0.22600576 
   38200   -682.80396    42.551847   -640.25211    1290.9624   -10547.322    9.5002487   0.23225313 
   38300    -676.7102    40.803819   -635.90638    1237.9297    5016.7311    9.5656347   0.23448925 
   38400   -678.25194     39.59777   -638.65417    1201.3399    4951.7431    9.5857408   0.23526435 
   38500   -683.48066    38.855215   -644.62544    1178.8119   -3508.7594    9.5882804   0.19466516 
   38600   -676.52196    40.104228   -636.41773    1216.7051   -6150.3588    9.4293403   0.25317325 
   38700    -676.8051    41.493304    -635.3118    1258.8477   -1571.1825    9.4925294   0.24650062 
   38800   -679.02547    41.674657   -637.35081    1264.3497    4469.0604    9.5936237   0.23674755 
   38900    -683.1671    39.162936   -644.00416    1188.1477   -1202.6135    9.6071701   0.19860623 
   39000   -675.94034    38.716337     -637.224    1174.5985   -2337.7102    9.4693176   0.27947989 
   39100   -678.22142    41.599666   -636.62176    1262.0746   -6824.5869    9.4545654   0.26278573 
   39200   -675.03263    40.133818   -634.89881    1217.6029    1449.7291    9.4855212   0.25006465 
   39300   -672.12726    40.956871   -631.17039    1242.5731    2570.4741    9.4474952   0.26554785 
   39400   -680.90884    41.522341    -639.3865    1259.7287    6803.3434    9.6523087   0.19532753 
   39500   -679.09644    41.204423   -637.89202    1250.0835    105.46015    9.5395618   0.22155009 
   39600   -674.61024    41.433251   -633.17699    1257.0258    1633.6124    9.5071915   0.28330923 
   39700   -674.54012     45.04796   -629.49216    1366.6909   -5402.1993    9.3943572   0.27444553 
   39800   -677.81254    39.063292   -638.74925    1185.1246    1922.1175    9.5527915    0.2320146 
   39900   -681.13335    43.761231   -637.37212    1327.6534   -4993.6473    9.5173251   0.17774037 
   40000   -679.85635    41.835539   -638.02081    1269.2307   -2626.0612    9.5211804   0.22201967 
   40100   -671.00743    41.123477   -629.88396    1247.6277   -1080.7759    9.3917578   0.30498142 
   40200   -678.40141    44.760193   -633.64121    1357.9605   -2932.4375    9.4871165   0.22324311 
   40300    -680.6886    42.621044   -638.06756    1293.0618      1007.17    9.5827737   0.22838707 
   40400   -679.35159    42.776104   -636.57549     1297.766   -2565.3182    9.5123016   0.23924038 
   40500   -673.80101    43.699232   -630.10177    1325.7724    3688.3301    9.4994569   0.26050744 
   40600    -677.9047    41.704915   -636.19979    1265.2677    6719.3597    9.5953473      0.24504 
   40700   -681.39374    42.213535    -639.1802    1280.6985    3808.3023    9.6174667   0.23185966 
   40800   -675.17299    41.925184   -633.24781    1271.9504   -12188.647    9.3512291   0.26455177 
   40900   -674.42703    42.074234   -632.35279    1276.4723   -248.77122    9.4664155   0.25159437 
   41000   -683.04805    43.102109   -639.94594    1307.6566    -1590.169    9.5994369   0.20314829 
   41100   -681.52708    44.922245   -636.60483    1362.8769    424.49766    9.5886895   0.20433661 
   41200   -675.24546     39.39852   -635.84694     1195.295    1138.5351    9.5001429   0.25546023 
   41300   -674.49999    43.253215   -631.24678    1312.2409   -6958.0094    9.4052071   0.29254673 
   41400   -670.52936     44.76276    -625.7666    1358.0384    908.01734    9.3911032   0.33784656 
   41500   -676.06799    42.701531   -633.36646    1295.5036    17680.065      9.69084    0.2346459 
   41600   -677.84528    41.465605   -636.37967    1258.0074   -8313.0958    9.4159304    0.2514624 
   41700   -677.91722    39.319572   -638.59765    1192.8998   -10855.595    9.4125497   0.26219586 
   41800   -679.98494    35.360226   -644.62472    1072.7789    1150.2442    9.5913576   0.21710079 
   41900   -681.44086    42.416679   -639.02418    1286.8616   -705.77032    9.5721934   0.20717476 
   42000   -677.40921    42.786459   -634.62275    1298.0802   -3413.6222    9.4789082   0.25400618 
   42100   -680.37731    43.565956   -636.81135     1321.729   -1000.8616    9.5653083   0.21876413 
   42200   -684.96738    44.632556   -640.33483    1354.0882    2981.2979    9.6788153   0.20795664 
   42300   -676.27685    42.917493   -633.35935    1302.0556   -1911.7636    9.4813776   0.29719149 
   42400   -675.64515     41.68701   -633.95814    1264.7245   -11723.648     9.365279    0.2978269 
   42500   -681.26916    40.519917   -640.74924    1229.3166   -2080.4559    9.5617297   0.22130529 
   42600   -678.79077    41.337566   -637.45321    1254.1228    15403.633     9.710109   0.21927027 
   42700   -674.95202    42.505234   -632.44678    1289.5482   -315.69527    9.4680802   0.25706468 
   42800   -678.76466    39.444387   -639.32028    1196.6865   -429.04701    9.5573199    0.2199699 
   42900   -680.39744     40.42304    -639.9744    1226.3774   -5009.8301    9.4999356   0.28314257 
   43000   -675.73858    41.487277    -634.2513    1258.6649   -911.73517    9.4849147   0.26795667 
   43100   -676.90248    41.843798   -635.05868    1269.4812    5456.5195     9.570952   0.22365861 
   43200   -683.66411    41.619618    -642.0445    1262.6799   -5120.9209    9.5775574    0.1895695 
   43300   -680.30852    42.680048   -637.62847    1294.8518   -1368.8533    9.5351775   0.22647191 
   43400   -677.76624    42.638535    -635.1277    1293.5924     1824.443    9.5427827    0.2337924 
   43500   -678.24287    39.259292   -638.98358     1191.071   -1384.4288    9.5221413   0.24214736 
   43600    -680.8201    37.617793    -643.2023    1141.2702   -7682.6242    9.5006984   0.20975651 
   43700   -681.23762    37.431074   -643.80654    1135.6055    3037.8077    9.6148178   0.20490839 
   43800   -680.20606    43.641995   -636.56407     1324.036    1096.0814    9.5784527   0.23872706 
   43900   -678.37342    41.894468   -636.47895    1271.0185    5990.2564    9.6173128   0.23322292 
   44000    -677.8357    40.339735   -637.49597    1223.8501    2157.3222    9.5501116   0.22429969 
   44100   -675.55835    45.351661   -630.20669    1375.9048   -2487.4955    9.4549304   0.25421552 
   44200   -675.91884    40.589433   -635.32941    1231.4256   -231.95085    9.4893478   0.26716837 
   44300   -673.94897    36.191624   -637.75734    1098.0023   -247.17027    9.4651265   0.28498168 
   44400   -675.60955    42.033759   -633.57579    1275.2444   -12964.358    9.3481191   0.27031874 
   44500    -680.3307    41.397722   -638.93297    1255.9479    2955.3112    9.6064739   0.23216389 
   44600   -683.46671    41.963196   -641.50351    1273.1036    2201.7356    9.6527429   0.18553446 
   44700    -673.4414    40.206931   -633.23446     1219.821    1381.7078    9.4731684   0.27439034 
   44800   -673.46898    37.884416   -635.58457    1149.3592    3454.0422    9.5119434   0.25089893 
   44900   -680.79206     42.31331   -638.47875    1283.7255    -1132.033      9.56019   0.21127685 
   45000   -679.93996    40.460246   -639.47971    1227.5062    3266.6381    9.5963638   0.20758118 
   45100   -671.75574    41.217298   -630.53844    1250.4741    9941.7408     9.522381   0.28829699 
   45200   -675.92776    42.707069   -633.22069    1295.6716   -7823.0151    9.3938839   0.25586849 
   45300   -674.37358    36.623567   -637.75002    1111.1068   -2701.9265    9.4442336   0.30620506 
   45400   -678.20743    42.187055   -636.02038    1279.8951    2145.0424    9.5509817   0.26002741 
   45500   -677.93871    40.991149   -636.94756     1243.613    5144.6059    9.5819568   0.23870048 
   45600   -680.52058    35.703965   -644.81661    1083.2074    1909.2456    9.6045091   0.19602889 
   45700   -677.69473    37.723454   -639.97127    1144.4758   -4543.6481    9.4695915   0.23176513 
   45800   -676.54322    40.325736   -636.21749    1223.4254   -448.32398    9.5107676   0.26002258 
   45900   -676.90765    42.567808   -634.33984    1291.4466    4686.4357    9.5556643   0.23005056 
   46000   -682.51927    40.033882   -642.48538    1214.5709    5499.6898     9.672706   0.18464292 
   46100   -679.14814     39.48229   -639.66585    1197.8364   -3021.1008    9.5238033   0.22982068 
   46200   -677.76923    43.280801   -634.48843    1313.0778   -4247.4083    9.4733124   0.25044501 
   46300   -677.72493     39.70766   -638.01727    1204.6738    3270.4931    9.5720329   0.22544668 
   46400   -681.23214    38.693374   -642.53876    1173.9018    14028.617    9.7475275   0.18151534 
   46500   -677.88116    42.873317   -635.00785    1300.7153   -118.41444    9.5121256   0.25251695 
   46600   -677.21872     41.95633   -635.26239    1272.8953   -6623.2118    9.4427758   0.27710716 
   46700   -677.72914    38.998544   -638.73059    1183.1603   -3531.2893    9.4939182   0.23505587 
   46800   -681.78919    37.895044   -643.89415    1149.6816   -4373.4669    9.5587291   0.22093035 
   46900    -680.1796    42.990341   -637.18926    1304.2657     -3968.13    9.5176965   0.21256264 
   47000    -678.5793    43.744439   -634.83486    1327.1439    8328.7904    9.6112601   0.25824898 
   47100   -676.05777    39.266772   -636.79099    1191.2979   -3687.9265    9.4501696    0.2623589 
   47200   -679.33224    36.053266   -643.27898    1093.8047   -4436.4848    9.5235046   0.24352004 
   47300   -678.17614    41.516825   -636.65932    1259.5613     787.2895    9.5401797   0.22733739 
   47400   -676.93058     40.98719   -635.94339     1243.493    961.85204    9.5076653   0.25510658 
   47500   -680.38219    39.736959   -640.64523    1205.5627    2340.9623    9.5994226   0.21310482 
   47600   -681.07505    37.424215   -643.65084    1135.3974    5010.4776    9.6555918   0.20222043 
   47700   -677.79725    40.022991   -637.77426    1214.2405    2350.3155    9.5468343   0.24757269 
   47800   -676.31276     42.12487   -634.18789    1278.0085   -5797.9362    9.4357047   0.27516636 
   47900   -678.64215    40.440263   -638.20189       1226.9   -8602.5126    9.4562917   0.25483845 
   48000    -682.2387    42.620797    -639.6179    1293.0543    1680.9574     9.607058   0.21314022 
   48100   -675.10815    40.816729   -634.29142    1238.3214    8899.9068    9.5880108   0.24287074 
   48200   -677.23049    40.377391    -636.8531    1224.9925   -2837.1884     9.491149   0.25679388 
   48300   -681.49325    38.312865   -643.18039    1162.3577   -8287.9034    9.5142151   0.23650115 
   48400   -677.20872    39.988203   -637.22052    1213.1851    -8618.472    9.4183058   0.24504021 
   48500   -676.29692    41.900768   -634.39615    1271.2096    1954.5826    9.5144338   0.23027345 
   48600   -678.44974    41.841492   -636.60825    1269.4113    5056.6748    9.6035347   0.21945809 
   48700    -683.1345    41.062764   -642.07173    1245.7858   -4685.8565    9.5637608   0.20171717 
   48800   -678.17091    40.944264   -637.22665    1242.1906   -4097.9416    9.5001735   0.24442546 
   48900   -679.69363    46.367019   -633.32661    1406.7093    369.03962    9.5579972   0.23816418 
   49000   -681.45902    43.742556   -637.71646    1327.0868    2759.3633     9.625705   0.22948205 
   49100   -682.22924    39.009675   -643.21956     1183.498   -8.7974518    9.6060333   0.22024566 
   49200   -676.44952    41.245553   -635.20396    1251.3313   -1309.9276    9.4723112   0.27404695 
   49300   -676.86149    41.840827   -635.02066    1269.3911    7162.6595    9.5933558   0.22608854 
   49400   -679.57483    41.409001   -638.16582    1256.2901   -2412.0643    9.5358783   0.21168055 
   49500   -678.47535    39.927905   -638.54745    1211.3557    -624.4535    9.5370663   0.21578843 
   49600   -670.39873    41.609464   -628.78926    1262.3719     52.34017    9.3881767   0.29690763 
   49700   -676.56558    42.987108   -633.57847    1304.1676   -5660.7982    9.4472764   0.26915221 
   49800   -678.30679    40.762637   -637.54415    1236.6803    2066.7331    9.5549509   0.24365676 
   49900   -678.37088    41.618033   -636.75284    1262.6318   -725.52208    9.5102997   0.23711258 
   50000   -674.35658    43.694043   -630.66253     1325.615   -1019.3753    9.4323957   0.26220018 
   50100    -677.3911    42.047698    -635.3434    1275.6672   -8385.0958    9.4278194   0.26796823 
   50200   -679.73659    39.266888   -640.46971    1191.3014    1833.0641    9.5889506   0.22165269 
   50300   -678.85823    41.339509   -637.51872    1254.1818    12157.602    9.6820303   0.20926343 
   50400    -677.0355     43.99974   -633.03576    1334.8894   -4935.0492    9.4524644   0.26161758 
   50500   -680.20458    41.775277    -638.4293    1267.4024   -2266.4089    9.5333706   0.20773104 
   50600   -679.97113     39.16752   -640.80361    1188.2867   -4135.4672    9.5356174   0.21715156 
   50700   -677.31768    43.201763   -634.11592    1310.6799    6504.1984    9.5915535   0.23870672 
   50800   -677.36845    42.588896   -634.77956    1292.0864   -282.38061    9.5287783   0.22487591 
   50900   -678.56319     37.97963   -640.58356    1152.2478   -1345.1338    9.5429508   0.23530959 
   51000   -676.88342    41.111509   -635.77191    1247.2646   -462.08523    9.5115285   0.25171317 
   51100   -675.08811    44.285087   -630.80302    1343.5464     5060.499    9.5239986    0.2528491 
   51200   -676.83393    38.492584   -638.34134    1167.8102    6034.6396    9.5729431   0.24450701 
   51300   -675.28712    37.668066   -637.61905    1142.7955   -10164.305    9.3867809   0.26909953 
   51400   -674.94754    42.965291   -631.98225    1303.5057   -7568.8331    9.4022551   0.27524552 
   51500   -677.53695    42.709979   -634.82698    1295.7599    8122.0342    9.6115141   0.23305115 
   51600   -681.51812    42.200887   -639.31723    1280.3148   -1139.0951    9.5880094   0.23256316 
   51700   -676.49421    42.090663   -634.40355    1276.9708   -2580.1768    9.4628169   0.30676673 
   51800   -673.35485    42.447644   -630.90721     1287.801    5304.2607    9.5072981   0.25202861 
   51900   -679.11281    41.161137   -637.95167    1248.7703    6946.6113    9.6369716   0.19679856 
   52000     -678.024    40.138683   -637.88532    1217.7504    3864.1396    9.5913483   0.19783944 
   52100   -673.31097     40.02762   -633.28335    1214.3809   -2648.4811    9.4222954   0.26484576 
   52200   -671.58536    40.256325   -631.32904    1221.3196   -8707.8098     9.312823    0.3538464 
   52300   -678.75505    38.751198   -640.00385    1175.6561    5699.2793    9.6090676   0.19233693 
   52400   -681.46472    43.379707   -638.08501    1316.0785   -95.188084    9.5790581   0.19881756 
   52500   -677.17034    43.727647   -633.44269    1326.6345    -92.38968    9.5091703   0.28605097 
   52600   -673.52588    41.806099   -631.71978    1268.3375   -8529.0082    9.3459709   0.28830679 
   52700    -676.3049    36.867303    -639.4376    1118.5014   -11237.276    9.3882099   0.27795633 
   52800   -678.48176    40.617376   -637.86439    1232.2733   -3218.9637     9.496574   0.25968473 
   52900    -675.5008    43.534947   -631.96585    1320.7883    802.77031    9.4813365   0.25159211 
   53000   -676.40259    43.934825   -632.46777      1332.92    9297.6389     9.604827   0.22238856 
   53100   -677.63242    37.377498   -640.25492      1133.98   -1330.8031     9.528033   0.24256765 
   53200   -677.07176    39.324483   -637.74728    1193.0488   -10188.931    9.4124742   0.27428182 
   53300    -673.3631    40.616027   -632.74707    1232.2324     1675.701    9.4538458   0.29662212 
   53400   -675.91925    41.804175   -634.11507    1268.2791   -3913.2216    9.4410866   0.27629031 
   53500   -680.16045    39.558172   -640.60228    1200.1386   -3446.0762    9.5376877   0.24002243 
   53600   -678.51941    41.536348   -636.98306    1260.1536    1501.9977    9.5608736   0.21676152 
   53700   -679.37464    46.563531    -632.8111    1412.6712   -8003.5558    9.4682401   0.23097669 
   53800   -677.78806    41.294908   -636.49315    1252.8287   -7514.0402    9.4427691   0.26525469 
   53900   -676.56673    36.568292   -639.99844    1109.4299    1075.4161    9.5136542   0.24909933 
   54000   -679.38037    44.546341   -634.83403    1351.4725   -3411.4644    9.4895114   0.23373127 
   54100   -677.04977     43.58684   -633.46293    1322.3626    4904.5035    9.5509947   0.24058306 
   54200   -682.45704    42.287186   -640.16985     1282.933    6778.2973    9.6768919   0.18955252 
   54300   -680.37353    40.911012   -639.46252    1241.1818    3468.1891    9.5936883   0.21228913 
   54400   -680.42245    43.830589   -636.59186    1329.7576   -9809.2409    9.4474227   0.27086326 
   54500   -676.32628    43.192449   -633.13383    1310.3974   -4332.2361    9.4443965   0.27361218 
   54600    -674.9555     47.49561   -627.45989    1440.9491     4359.774    9.4921835   0.25431448 
   54700   -679.40577    43.241804   -636.16397    1311.8947    10803.724    9.6818578   0.21216753 
   54800   -678.01022    39.715077   -638.29514    1204.8988    2981.8457    9.5827069   0.22224088 
   54900   -677.01892    41.083941   -635.93498    1246.4282   -3072.7031    9.4729434     0.257356 
   55000   -674.19898    40.134665   -634.06431    1217.6285    -7102.119    9.3975902   0.26954224 
   55100   -683.36525    41.165393   -642.19985    1248.8994   -1228.5063    9.6088137    0.2168699 
   55200   -678.34481    39.577358   -638.76745    1200.7207    5707.0277    9.6086998   0.23791141 
   55300   -680.03715    44.390818   -635.64633    1346.7542   -3139.8395    9.5276643   0.21719625 
   55400   -681.99653    42.040476   -639.95606    1275.4481   -76.477032    9.5942104   0.21067275 
   55500   -681.68332    37.364155   -644.31917    1133.5752    143.14782    9.6178026   0.20032409 
   55600   -678.18115    42.456921   -635.72423    1288.0825   -6114.0044    9.4647427   0.27137619 
   55700   -679.15413    43.705378   -635.44875    1325.9589   -917.71239    9.5335969   0.23031083 
   55800   -681.49848     42.68446   -638.81401    1294.9857    2843.1566    9.6142534   0.20903643 
   55900   -680.88437    37.757909   -643.12646    1145.5212   -2209.6969    9.5775899   0.25235983 
   56000   -676.48846    39.832822   -636.65564    1208.4711   -12830.766    9.3628345    0.2910119 
   56100    -675.2175    39.208156   -636.00935    1189.5196   -4481.0181    9.4299453   0.27614067 
   56200   -675.16837    42.835293   -632.33308    1299.5618    11942.043    9.6085089   0.21577111 
   56300   -677.86437    46.024436   -631.83993    1396.3158    1410.3277    9.5352837   0.20896662 
   56400    -679.3986    39.172188   -640.22641    1188.4284   -763.81063    9.5569928   0.21052453 
   56500   -678.61513    40.286644   -638.32848    1222.2394   -58.061829    9.5405063   0.23693591 
   56600   -678.21477    43.460603   -634.75417    1318.5328    28.205253    9.5223521   0.25887837 
   56700   -675.93908    43.870685   -632.06839    1330.9741    792.76575    9.5067433   0.24858727 
   56800   -680.48904    40.671343    -639.8177    1233.9106    1164.4294    9.5755097   0.21028836 
   56900   -679.48188    42.670242   -636.81164    1294.5544    -2451.304    9.5196265   0.21799663 
   57000   -677.50638    45.239907   -632.26647    1372.5143    4597.3385     9.559628   0.21529944 
   57100   -679.90761     41.76466   -638.14295    1267.0803    5829.9384    9.6368663   0.22094219 
   57200   -683.29911    41.970248   -641.32886    1273.3175   -4749.8401    9.5625121   0.19381593 
   57300   -672.70901    38.694909    -634.0141    1173.9484   -1154.1742    9.4311002   0.26015503 
   57400   -676.75642    41.654107   -635.10231    1263.7263    8014.4597    9.5731985   0.24040853 
   57500   -675.67736    38.379217   -637.29814    1164.3708     1016.553    9.5193433   0.22716598 
   57600   -681.18014    43.105944    -638.0742    1307.7729    9.0676904    9.6005509   0.21508774 
   57700   -671.70556    41.880611   -629.82495    1270.5981    3107.9797     9.439187   0.32808215 
   57800   -673.05329    41.144856   -631.90843    1248.2763   -6329.3762    9.3682572   0.31100436 
   57900    -675.2635    37.126278   -638.13722    1126.3584    2811.7523     9.524142   0.27199645 
   58000   -677.39399    41.550887    -635.8431    1260.5947   -2061.2146    9.4876586   0.25381243 
   58100   -672.58443    41.380664   -631.20377    1255.4304    860.59659     9.430926   0.30593921 
   58200   -678.02827    38.909518   -639.11875    1180.4593   -4751.2128    9.4781901   0.27536657 
   58300   -678.65041     40.31529   -638.33512    1223.1085   -2587.2708    9.5022205   0.24579927 
   58400   -678.70559    43.132545   -635.57304      1308.58    555.42035    9.5381912   0.23811008 
   58500    -675.1181    46.526688   -628.59141    1411.5534   -1237.2348    9.4545529   0.26888933 
   58600   -676.31595    44.036523   -632.27942    1336.0054   -3055.4703    9.4609425    0.2873171 
   58700   -678.39873     40.31566   -638.08308    1223.1197    9069.2199    9.6352275    0.2183986 
   58800   -677.18001    39.638948   -637.54106    1202.5892   -1729.9449    9.5157314    0.2353982 
   58900   -675.33094    45.046487   -630.28445    1366.6462    -4615.371    9.4222867   0.27526513 
   59000    -678.5092    41.676998    -636.8322    1264.4207   -2086.5607    9.5052862   0.22504941 
   59100   -679.71037    41.167558   -638.54281    1248.9651    1328.2658    9.5798924   0.22034948 
   59200   -676.89437    41.021571    -635.8728     1244.536    2398.6817    9.5370499   0.23215191 
   59300   -672.30866    41.773324   -630.53533    1267.3431   -6419.2988    9.3381427   0.28784039 
   59400   -678.25596    39.136575   -639.11939    1187.3479   -325.26906    9.5285894   0.23093037 
   59500   -677.29476    38.798606   -638.49615    1177.0944   -1780.2328    9.4969736   0.30097339 
   59600   -677.46665    42.107707   -635.35894    1277.4878   -2427.6453    9.4923258   0.24356923 
   59700   -677.41987    38.035502   -639.38437    1153.9429   -2953.9445    9.4942532   0.27453505 
   59800   -674.99251    40.380171   -634.61234    1225.0769    1627.6298    9.4969773    0.2563116 
   59900   -673.25215    43.660932   -629.59122    1324.6105     956.0391    9.4576187   0.25603522 
   60000   -677.78243    40.582995   -637.19943    1231.2302     558.1992    9.5478146   0.23904341 
   60100   -680.52519    44.699179   -635.82602    1356.1094   -4217.8235    9.5240789   0.19652566 
   60200   -679.11962    39.068254   -640.05137    1185.2752    -3638.109    9.5038855   0.22507397 
   60300   -681.49179    38.585706   -642.90608    1170.6353   -469.67239    9.6030247   0.21584067 
   60400   -676.57991    41.611567   -634.96834    1262.4357    11176.275    9.6171035   0.26203344 
   60500    -675.4756    43.036707    -632.4389    1305.6724    4865.1497    9.5414232   0.26417928 
   60600   -676.22806      38.8011   -637.42696    1177.1701   -4818.8208    9.4376434   0.29184499 
   60700   -680.93696    39.097188   -641.83977     1186.153   -8085.5679     9.498224   0.24454523 
   60800   -676.52139    42.035389     -634.486    1275.2938   -1829.8798    9.4803183   0.25191174 
   60900    -677.1488    43.224515   -633.92429    1311.3702     3918.879    9.5506737   0.27740212 
   61000    -679.1863    40.791166   -638.39514    1237.5458    3098.8106    9.5733842   0.21322811 
   61100   -679.60061    38.288235   -641.31238    1161.6105   -9480.2541    9.4684038   0.23792717 
   61200   -676.98281    39.105126   -637.87768    1186.3938   -5471.7551    9.4470944   0.25952645 
   61300   -676.15636    42.150262    -634.0061    1278.7789   -3933.7457    9.4338949   0.26143783 
   61400   -680.66925    40.825493   -639.84376    1238.5873    1154.0189    9.5866683   0.21464088 
   61500    -683.0611    42.114623   -640.94647    1277.6977    645.78799    9.6358751   0.20501693 
   61600   -678.11686    43.008229   -635.10863    1304.8084    -1904.103    9.4987344   0.25894137 
   61700   -676.41015    41.043356   -635.36679    1245.1969   -11092.443    9.3741961   0.28825567 
   61800   -679.55894    37.083194   -642.47575    1125.0513   -3912.8974    9.5163093   0.22240424 
   61900   -677.59043    39.098565   -638.49187    1186.1948    4876.3854    9.5706622   0.21992872 
   62000    -674.8861    41.010224   -633.87587    1244.1918    3256.9977    9.5185995   0.24832896 
   62100   -679.62656    40.433219   -639.19334    1226.6862    1438.6835    9.5734126   0.24120206 
   62200   -683.18969    40.577259   -642.61243    1231.0562   -5231.8627    9.5615155   0.19288224 
   62300   -677.31312    42.504731   -634.80839     1289.533   -8074.8002     9.435153   0.24027473 
   62400   -676.01797    39.506697   -636.51127    1198.5769    5851.2722    9.5584085   0.25666041 
   62500   -682.44591    41.663375   -640.78254    1264.0074    8672.3771    9.6937366   0.20440504 
   62600   -682.15476    40.742636   -641.41212    1236.0735   -2206.2314    9.5822993   0.19295769 
   62700    -672.8153    39.511053   -633.30425    1198.7091    1286.7265    9.4405714   0.27420276 
   62800   -676.29231    39.054271   -637.23804    1184.8509     -5722.82    9.4465405   0.26229049 
   62900   -679.75023    41.593569   -638.15666    1261.8896    2225.9795    9.5708001    0.2171743 
   63000   -673.77895    41.364907   -632.41404    1254.9523    10363.494    9.5894346   0.23393099 
   63100   -673.93191    43.433697   -630.49821    1317.7165   -8612.4313    9.3749711    0.3038995 
   63200   -677.35089     38.13646   -639.21443    1157.0059   -4733.4422    9.4612934   0.23928249 
   63300   -674.44695    35.308865   -639.13809    1071.2207    1586.6048    9.4947935   0.25526523 
   63400   -675.76746    41.645865   -634.12159    1263.4762   -3643.4017    9.4434013    0.2599852 
   63500   -676.95509    41.303143   -635.65195    1253.0785    1097.6352    9.5184316   0.25428597 
   63600   -681.40724    39.538648   -641.86859    1199.5462   -235.97046    9.5864206   0.22454071 
   63700   -677.95727     40.32043   -637.63684    1223.2644   -636.12176     9.524253   0.26089006 
   63800   -676.83868    42.800271    -634.0384    1298.4992   -6130.5214    9.4377644    0.2399655 
   63900    -681.8523     41.78115   -640.07115    1267.5806    -2932.984    9.5584257   0.22780805 
   64000   -681.45081    43.966662   -637.48415    1333.8859   -736.35482    9.5832581    0.2295258 
   64100   -671.84914    40.092394   -631.75675    1216.3461    14066.658    9.5865332   0.25454638 
   64200   -677.43788    41.228393   -636.20948    1250.8107   -6972.8777    9.4378263   0.26075079 
   64300   -679.40168    38.875468   -640.52621    1179.4263    -4220.618       9.5165   0.24524205 
   64400   -675.84521    42.413804    -633.4314    1286.7744    7637.2697    9.5672322   0.23302942 
   64500   -676.18402    43.124676   -633.05934    1308.3412    6613.8012    9.5729895   0.23521444 
   64600   -680.23466    38.994038   -641.24062    1183.0236   -4727.0798    9.5245395   0.22134961 
   64700   -676.53095    38.470938   -638.06001    1167.1534   -5036.5852    9.4600588   0.24069952 
   64800   -675.52567    40.025543   -635.50013     1214.318   -3223.6137    9.4529736   0.30129823 
   64900   -675.73694    45.691917   -630.04503    1386.2276   -1183.7292    9.4621352   0.25767075 
   65000   -680.21804    42.311611   -637.90643     1283.674    6920.8497    9.6494709   0.25381239 
   65100   -679.59911    42.167819   -637.43129    1279.3115    1169.1941    9.5589324   0.23027063 
   65200   -673.15843    40.946194   -632.21223    1242.2492   -3846.9189    9.4023311   0.27019329 
   65300   -675.30915    38.601361   -636.70779    1171.1103   -6141.7304    9.4081604   0.27196166 
   65400    -679.7074     41.42947   -638.27793    1256.9111   -1557.0372    9.5392873   0.22510262 
   65500   -677.13997     43.13961   -634.00036    1308.7943    8163.2748    9.5928211   0.23776759 
   65600   -676.36092    45.636087   -630.72483    1384.5338   -5410.7268    9.4251753   0.27898431 
   65700   -677.11829    38.364316   -638.75398    1163.9187    1219.8255    9.5231879   0.23332391 
   65800   -676.15176    37.981651   -638.17011    1152.3092    680.83582    9.5264386   0.24816339 
   65900   -673.62391    40.491525   -633.13239    1228.4552   -689.07567     9.449692   0.29656464 
   66000   -671.18817    42.544854   -628.64332    1290.7503    4203.7121    9.4626833   0.27367094 
   66100   -678.76131     40.76792   -637.99339    1236.8406    3811.2634    9.5986864   0.23133138 
   66200   -676.91903    39.436565   -637.48246    1196.4492   -8163.4806    9.4053274   0.28084682 
   66300    -678.2623    43.382422   -634.87987    1316.1609    2550.8156    9.5603648   0.23439499 
   66400   -679.67397    40.577281   -639.09669    1231.0569    1590.9226    9.5732839   0.24299859 
   66500   -681.85851    35.949887   -645.90862    1090.6684     2566.477    9.6455166    0.2035075 
   66600   -674.51965    35.649573   -638.87008    1081.5572   -11144.508    9.3607889   0.27707721 
   66700   -674.84581     38.60557   -636.24024     1171.238   -3942.7053    9.4104566   0.26370979 
   66800   -679.94416    42.292632   -637.65153    1283.0982    1942.5072     9.583363   0.21134988 
   66900   -683.67593    41.045463   -642.63047    1245.2609    10112.429    9.7442204   0.17545319 
   67000   -678.00266    42.225233   -635.77743    1281.0534   -2768.8125    9.4880452   0.24195007 
   67100   -677.83795    43.658064   -634.17989    1324.5235    -10302.92    9.3967442   0.25559219 
   67200   -679.44461    39.939609     -639.505    1211.7108    468.09695    9.5631079   0.22364348 
   67300   -683.28637    42.520716   -640.76565    1290.0179    29.175494    9.6301839   0.19329866 
   67400   -678.18773    44.965352   -633.22238    1364.1847    5420.5414    9.5736068   0.26318543 
   67500   -676.63112    44.489088   -632.14203    1349.7355    7823.0949    9.5890657   0.20900504 
   67600   -678.95683     40.96636   -637.99047     1242.861   -418.55983    9.5459776   0.20872062 
   67700   -677.62272    38.754999   -638.86772    1175.7714   -3035.4598    9.5057079   0.23885487 
   67800    -676.9711     44.42572   -632.54538     1347.813    -1555.556     9.490652   0.26232706 
   67900   -678.32041    43.262672   -635.05773    1312.5278    6227.8341     9.605412   0.22625484 
   68000   -680.98934    40.740625   -640.24872    1236.0125   -52.866908    9.5789164   0.22282773 
   68100   -676.31996    39.904898   -636.41506    1210.6578   -453.46575    9.5081194   0.25984514 
   68200   -676.10417    44.281674    -631.8225    1343.4429    9422.4946    9.5871892   0.24324018 
   68300   -680.67152    41.290902   -639.38062    1252.7071    9888.4967    9.6803635   0.19938579 
   68400   -678.58965    38.844809   -639.74484    1178.4962    5225.1447    9.5990362   0.21529147 
   68500   -675.77313    40.622427    -635.1507    1232.4266     1611.617    9.5100613   0.24192271 
   68600   -677.29041    43.023264   -634.26714    1305.2645    2038.5334    9.5341395   0.21836757 
   68700   -680.02395    38.259146   -641.76481     1160.728    1514.8773    9.5848954   0.21555997 
   68800   -674.04773    37.602687   -636.44504    1140.8119   -11119.501    9.3497171   0.30599187 
   68900   -673.87676    39.258373   -634.61839    1191.0431   -2261.4151    9.4306928   0.26120045 
   69000   -679.04257    39.959661   -639.08291    1212.3192    2933.2453     9.584648   0.19863482 
   69100   -681.65407    41.264196   -640.38987    1251.8969    9941.9247    9.7023276    0.1852912 
   69200   -675.18691    42.522683   -632.66423    1290.0776    7781.8744    9.5724158   0.25061004 
   69300   -678.22803    41.486581   -636.74144    1258.6437   -7238.4742    9.4555423   0.23269507 
   69400   -676.86019    37.027958   -639.83223    1123.3755   -1147.6508    9.5052273   0.26658299 
   69500   -672.96108    39.645546   -633.31554    1202.7894   -4906.9725    9.3901932   0.27603288 
   69600   -678.33237    43.652848   -634.67952    1324.3652    3564.0269    9.5583981   0.23755337 
   69700   -681.42479    41.928563   -639.49623    1272.0528    13734.502      9.72555   0.18005457 
   69800    -678.0289    41.996861   -636.03204    1274.1249    784.67777    9.5287754   0.21657921 
   69900   -672.91708    39.161801   -633.75528    1188.1133    213.96217     9.449538   0.29806181 
   70000   -679.87388    38.922602   -640.95127    1180.8563   -3664.7675    9.5203951   0.23452981 
   70100   -681.61743    40.971381   -640.64605    1243.0133     681.4162    9.5999934   0.20174884 
   70200    -679.7979    43.709036   -636.08886    1326.0699     4589.996    9.6028169   0.21110273 
   70300   -675.96314    44.120303   -631.84283    1338.5471    2244.9997    9.5174666    0.2486826 
   70400    -677.1406    41.042777   -636.09782    1245.1794   -2685.8644    9.4903559   0.23076538 
   70500   -680.07586    40.241234   -639.83462    1220.8617   -125.64245    9.5712169   0.19609755 
   70600   -677.18025    42.916371   -634.26388    1302.0216     11247.14     9.633378    0.2209023 
   70700   -675.78241    41.582304   -634.20011    1261.5479     4539.752    9.5344794   0.24200407 
   70800   -678.48296    37.316115   -641.16685    1132.1178   -4307.9501     9.497955   0.26929527 
   70900   -677.96246    41.700017   -636.26244    1265.1191   -1655.7789    9.5033712   0.24000298 
   71000   -675.55232    43.520704   -632.03161    1320.3562    403.24763    9.4901774   0.25710449 
   71100   -675.94109    36.428455   -639.51263    1105.1874    6740.7385    9.5708007   0.24128197 
   71200   -674.70997    36.574242   -638.13573    1109.6104   -3317.7705    9.4502396   0.25589309 
   71300   -675.03546    42.294061    -632.7414    1283.1416   -7041.2984    9.4141549   0.24836672 
   71400   -678.85585    39.868136   -638.98771    1209.5424    5011.0237    9.6045476   0.22991125 
   71500   -678.85143    38.845797   -640.00564    1178.5261    5995.2136    9.6135795   0.22927811 
   71600   -674.28866    41.523372   -632.76529    1259.7599   -751.08748    9.4701751   0.26640161 
   71700   -675.10996    40.494603   -634.61536    1228.5486    4545.4162    9.5343432   0.24930602 
   71800   -681.07667     40.78202   -640.29464    1237.2684   -5007.8173    9.5291911   0.21237063 
   71900   -679.51089    39.164593    -640.3463    1188.1979    1114.7533    9.5752156   0.22075249 
   72000   -675.32025    42.549741   -632.77051    1290.8985   -1834.5339    9.4673178   0.25251175 
   72100   -674.40056    38.005014   -636.39554     1153.018    13042.002    9.6258692   0.23878855 
   72200   -679.10488    37.650046   -641.45483    1142.2488    -254.9801    9.5591359   0.23146913 
   72300   -675.83491    40.594945   -635.23996    1231.5928   -2227.5057    9.4787605   0.25597385 
   72400   -679.55924    46.344113   -633.21513    1406.0144    1910.1603    9.5617524   0.22808375 
   72500   -680.41255    41.650626   -638.76192    1263.6207    7165.6229    9.6353147   0.18947067 
   72600   -678.50731    39.017059   -639.49025     1183.722   -94.917011    9.5453676   0.23518732 
   72700   -673.33197    39.296741   -634.03523    1192.2071   -4436.0058      9.40169    0.2984817 
   72800   -677.02238    39.498987   -637.52339     1198.343   -3383.4417    9.4824555   0.24943387 
   72900   -682.61786    39.974904   -642.64296    1212.7816   -110.76508    9.6140586   0.21794292 
   73000   -680.34795    44.738009   -635.60994    1357.2874    2565.1003    9.5882354   0.23295437 
   73100   -677.28215    41.605958   -635.67619    1262.2655    3222.7787    9.5372778    0.2386189 
   73200   -680.90523      39.5739   -641.33133    1200.6157   -11487.721    9.4638064   0.24048384 
   73300   -680.59177    39.434917   -641.15685    1196.3992     597.6009    9.5808047   0.22718615 
   73400   -679.75657     44.85359   -634.90298     1360.794    9198.0935    9.6490972   0.21142729 
   73500   -679.40086    44.069225   -635.33163    1336.9975    -1105.668    9.5347892   0.22855375 
   73600   -679.86302    42.002844   -637.86018    1274.3064   -8713.0674    9.4627411   0.25155166 
   73700   -673.67782    44.153934   -629.52388    1339.5674    4182.5948    9.4964274   0.25695547 
   73800    -675.1512    43.559654   -631.59154    1321.5378    6231.4404     9.536433   0.25263208 
   73900   -677.22865    41.247227   -635.98142    1251.3821   -8326.3126    9.4388264   0.25427816 
   74000   -678.92247    39.099328   -639.82314    1186.2179   -5513.7544    9.4956866   0.25905201 
   74100   -677.88655    43.184864   -634.70168    1310.1672   -284.92767     9.515892   0.24805302 
   74200   -674.58294    42.852166   -631.73078    1300.0737    6794.8939     9.535038   0.25005078 
   74300   -679.75032    41.737051   -638.01326    1266.2427    27.157999    9.5653445   0.22004667 
   74400   -680.73249      40.4952   -640.23729    1228.5667   -8317.1477    9.4758455   0.24167773 
   74500   -676.56642    43.443698   -633.12272    1318.0199   -3407.3881    9.4451285   0.27844709 
   74600   -673.15314    39.819694   -633.33345    1208.0728    10718.696    9.5596512   0.25842251 
   74700    -681.8634    40.736233   -641.12717    1235.8793   -91.961666    9.6002717   0.21002105 
   74800   -678.75052     41.39163   -637.35889    1255.7631   -7014.4328    9.4710826   0.24131706 
   74900   -678.21179    45.510636   -632.70115    1380.7279    372.74128    9.5212605   0.23441916 
   75000   -681.49315    43.500945   -637.99221    1319.7567    185.44463    9.5848954   0.19479428 
   75100   -681.62472    38.516609   -643.10811     1168.539    1781.9834    9.6366353   0.19839438 
   75200   -678.92914    43.348975   -635.58017    1315.1461   -2321.6362    9.5070453   0.24848009 
   75300   -678.49408     44.64212   -633.85196    1354.3783    16820.212    9.7018881   0.22654712 
   75400   -677.78172     39.83313   -637.94859    1208.4804    6023.7009    9.5989107   0.26181472 
   75500   -676.90233    38.975554   -637.92678    1182.4628   -3737.5636    9.4827764   0.26440974 
   75600    -671.3911    41.203328   -630.18778    1250.0503    -8302.005    9.3245387   0.32151782 
   75700   -678.56603    42.962889   -635.60314    1303.4328   -3279.1239    9.5015442   0.22868681 
   75800   -679.12663    39.728999   -639.39763    1205.3212    8206.2409    9.6428957   0.20104842 
   75900   -676.56713    40.280685   -636.28645    1222.0586    1140.5818    9.5281708   0.24493191 
   76000   -673.76065    40.862599   -632.89805     1239.713   -2500.9899    9.4339445   0.28231433 
   76100   -678.35877    39.477026   -638.88174    1197.6767   -4269.6023    9.4904274   0.26045186 
   76200   -679.49177    41.371884   -638.11989     1255.164   -5078.9353    9.4961895   0.25431887 
   76300   -673.15154    43.281875   -629.86966    1313.1104    8113.4109    9.5257933   0.25774335 
   76400   -672.86668    37.765722   -635.10096    1145.7582    542.77367    9.4681365   0.28910678 
   76500   -677.21778    39.286043   -637.93174    1191.8826   -9874.5632    9.4072795   0.30958495 
   76600   -677.68738    41.738707   -635.94868    1266.2929   -6130.4866    9.4279531   0.28748967 
   76700   -671.67997    43.299752   -628.38021    1313.6528    -1443.998    9.3911026   0.30904365 
   76800   -677.86411    42.321447   -635.54266    1283.9724    9930.9305    9.6349712   0.23239031 
   76900   -677.73017    40.258771    -637.4714    1221.3938    3420.4252    9.5718073   0.23965633 
   77000   -678.17281     42.86683   -635.30598    1300.5185   -5877.8016     9.472503    0.2168296 
   77100   -676.12736    37.897381   -638.22998    1149.7525   -1307.0478    9.4952147   0.27461028 
[...]
  481400   -677.64013    40.684839   -636.95529      1234.32    5307.3702     9.582587   0.24160574 
  481500   -680.85121    41.739024   -639.11218    1266.3025    5353.6188    9.6302325   0.20108223 
  481600   -670.91015    39.529222   -631.38093    1199.2603   -4645.1663    9.3390376   0.32927249 
  481700   -674.56591    40.864325   -633.70158    1239.7654   -7761.5911    9.3844201   0.28308945 
  481800    -679.0158    41.307951   -637.70785    1253.2244    11917.944      9.67466   0.22080766 
  481900   -674.11713    38.800232   -635.31689    1177.1438    8039.1106    9.5624716   0.25776078 
  482000   -672.11528    42.704366   -629.41091    1295.5896   -5935.0409    9.3667528   0.31086873 
  482100   -678.57674    41.089485   -637.48725    1246.5964   -1606.3417    9.5243802   0.23993944 
  482200    -678.5592    41.750691   -636.80851    1266.6565    6490.9298    9.6240014    0.2236533 
  482300   -677.23616    39.278562    -637.9576    1191.6556   -656.59951    9.5226681   0.24055033 
  482400   -674.06985    44.503099   -629.56675    1350.1606    1100.4253    9.4560734   0.28568201 
  482500   -676.54656    44.145972   -632.40059    1339.3259    3878.4977    9.5361908   0.23988514 
  482600   -679.57228    41.243622   -638.32865    1251.2727    1508.9701    9.5713321    0.2099998 
  482700   -676.89314    39.675769   -637.21737    1203.7063   -2635.1384    9.4965052   0.24820152 
  482800   -672.00247    40.811213   -631.19126    1238.1541   -3618.6267     9.378117   0.28288434 
  482900   -678.21017    40.136157   -638.07401    1217.6738   -6497.2313    9.4671139   0.24574654 
  483000   -679.16734    40.689566   -638.47778    1234.4635    12252.875    9.6707706   0.22165472 
  483100   -675.12836     42.50307   -632.62529    1289.4826    5064.3242     9.535382   0.25435796 
  483200   -675.77241    41.148473   -634.62394     1248.386   -1228.7163     9.484106   0.24377893 
  483300   -679.40281    40.215237   -639.18757     1220.073   -7128.8215    9.4678741   0.24494548 
  483400   -675.29693     40.45224   -634.84469    1227.2633   -3068.2218    9.4399131   0.27379895 
  483500   -672.87544    39.140057   -633.73538    1187.4536   -115.91856    9.4415258   0.29646815 
  483600   -680.76049     40.49211   -640.26838    1228.4729    7213.2522    9.6525398   0.19009226 
  483700   -682.10791     41.72702   -640.38089    1265.9383     4785.149    9.6494366   0.19979209 
  483800   -676.82094    42.707702   -634.11324    1295.6908    2572.5313    9.5307369   0.22556132 
  483900   -678.38252    40.265274   -638.11725     1221.591   -2758.4336    9.5146055   0.23217231 
  484000   -681.16952    40.216691   -640.95283    1220.1171   -6715.6333    9.5240667   0.20777236 
  484100   -676.91328      43.7174   -633.19588    1326.3236    4300.1433    9.5528175   0.23158352 
  484200     -678.718     44.02813   -634.68987    1335.7507    9547.5152    9.6423114   0.21821207 
  484300   -679.80085    40.813974   -638.98688    1238.2378   -174.64431    9.5657964   0.22982146 
  484400   -675.86145    39.785272   -636.07618    1207.0285      3951.32    9.5304683   0.24789471 
  484500   -672.60413    40.438848   -632.16529     1226.857   -3100.5542    9.4008838   0.28976054 
  484600   -676.67772      38.7339   -637.94382    1175.1313    4677.0942    9.5751572   0.24500281 
  484700   -678.55549    38.725294   -639.83019    1174.8703    7975.1183    9.6437998   0.23810813 
  484800   -674.19455    41.812777   -632.38177    1268.5401   -3323.3969    9.4308489   0.29006529 
  484900   -675.90405    40.353898   -635.55016    1224.2798   -3899.0691    9.4573266   0.26663187 
  485000   -681.47828    42.172571   -639.30571    1279.4557    1769.0322    9.6034802   0.20449955 
  485100   -678.54488    44.977972    -633.5669    1364.5676    14341.653    9.6978708   0.25005107 
  485200   -676.44404    43.531622   -632.91241    1320.6874    4060.8483    9.5521727    0.2383407 
  485300   -679.51445    41.952132   -637.56232    1272.7679   -8472.4746    9.4621371   0.23150542 
  485400   -679.47484    39.431352   -640.04349     1196.291    -791.3832    9.5559517   0.22902984 
  485500    -673.2095    41.928865   -631.28064     1272.062   -259.09041    9.4451837   0.30301368 
  485600   -674.01956    41.441052    -632.5785    1257.2625    174.29098    9.4622012   0.27173652 
  485700   -678.37228    39.129106   -639.24317    1187.1213   -2936.5374    9.5073915   0.21901158 
  485800    -676.0563     38.73174   -637.32456    1175.0658    9305.6886    9.5914261   0.24413145 
  485900   -675.97339    44.999644   -630.97375    1365.2251     4711.112    9.5417542   0.26313072 
  486000   -680.53099    42.769953   -637.76104    1297.5794   -770.25775    9.5577596   0.21128117 
  486100   -681.55366    42.072535   -639.48112    1276.4208   -1524.0589    9.5677372   0.20635475 
  486200   -674.09063    39.414959   -634.67567    1195.7937   -3740.3434    9.4189427   0.25532883 
  486300   -673.95131    40.275673   -633.67564    1221.9065   -4649.2204    9.3946923   0.28455183 
  486400   -678.18442    38.147057   -640.03736    1157.3273    8047.0943    9.6284333   0.22743998 
  486500   -677.59037    40.971013   -636.61936    1243.0021    7397.1656    9.5941179   0.23780341 
  486600   -671.15094    40.719511   -630.43143    1235.3719    2028.1584    9.4382798   0.34398683 
  486700   -677.82964    43.106878   -634.72277    1307.8013   -10032.017     9.404783   0.27182662 
  486800   -681.87415    42.128097   -639.74605    1278.1064    6097.5177    9.6616377   0.20395481 
  486900   -676.67568    38.582236   -638.09344    1170.5301    5306.9675    9.5770163    0.2343963 
  487000   -676.87716     44.75863   -632.11853     1357.913   -4040.2357    9.4640329   0.23186649 
  487100   -679.95637    42.004328   -637.95205    1274.3515   -8672.1293    9.4669204   0.23183446 
  487200   -679.93419    41.131618   -638.80257    1247.8747   -1240.6862    9.5531043   0.24190544 
  487300   -672.82828    42.182877    -630.6454    1279.7684     5989.631    9.5085248    0.2603553 
  487400    -676.0849    41.449031   -634.63587    1257.5045     3363.769    9.5192365   0.24865694 
  487500   -677.23114    38.606158   -638.62498    1171.2558    546.01508    9.5202154   0.23762525 
  487600   -678.77298    40.330899   -638.44208     1223.582   -7212.2257    9.4715938   0.24109369 
  487700   -681.51766    35.873399   -645.64426    1088.3478    3675.0701    9.6435167    0.1837261 
  487800   -683.00355    40.970222   -642.03333    1242.9782   -4283.3428    9.5754556   0.20069856 
  487900   -678.69934    40.797273   -637.90206    1237.7311    -4324.676    9.4913863   0.24732436 
  488000    -675.6071     39.74948   -635.85762    1205.9426   -1203.4103    9.4741998   0.27427842 
  488100   -676.99683    44.534038   -632.46279    1351.0993   -2103.3548    9.4727132   0.24658568 
  488200     -672.069    43.256147   -628.81286    1312.3299    1686.8381    9.4291999   0.28190533 
  488300   -679.55649    41.754396    -637.8021    1266.7689   -12342.501    9.4254971   0.23560778 
  488400   -679.80296    43.077204   -636.72576     1306.901   -3712.8727     9.511245   0.24515621 
  488500   -678.29031    43.802726   -634.48759    1328.9123    4641.3436      9.57352   0.23987353 
  488600    -675.4228    40.418958   -635.00384    1226.2536    2719.5497    9.4952239   0.25514997 
  488700   -679.85962    37.987372   -641.87225    1152.4828   -4857.3462     9.521297   0.25334063 
  488800   -680.82211    43.162959   -637.65915    1309.5027    634.29121    9.5845908   0.21655178 
  488900   -677.33787    42.293093   -635.04478    1283.1122    8175.1629    9.5987317   0.21966472 
  489000   -674.18831    44.261569   -629.92674    1342.8329    2854.8665    9.4796396   0.26193823 
  489100   -671.50762    43.453621   -628.05399    1318.3209    -7961.095    9.3093712   0.32498308 
  489200    -676.7533    40.307679   -636.44562    1222.8775   -9206.1927    9.3920575   0.27710883 
  489300   -677.51011    40.700309    -636.8098    1234.7894    3263.4174    9.5564092   0.24692339 
  489400   -677.89638    43.574333   -634.32204    1321.9832    6597.6838    9.6036843    0.2209152 
  489500   -672.18184    44.600785   -627.58105    1353.1243   -1638.4074    9.3950977   0.29649613 
  489600   -675.79311    40.879436   -634.91367    1240.2238   -672.14166    9.4806316   0.29140334 
  489700   -678.40501    41.063935   -637.34107    1245.8213   -3300.2158     9.490411   0.25948952 
  489800   -676.47055    41.043309   -635.42724    1245.1955   -1682.7003    9.4799204    0.2505751 
  489900   -671.19716    41.376945   -629.82021    1255.3176    9669.8694    9.5177605   0.25097761 
  490000   -680.81924    43.214415   -637.60483    1311.0638   -4065.0011    9.5377545   0.21440817 
  490100   -678.96886    40.444175   -638.52468    1227.0186    5247.5587    9.6008189   0.23193152 
  490200   -676.27095    42.686058   -633.58489    1295.0342   -8518.3556    9.3949696   0.25495346 
  490300   -675.64516    38.225258    -637.4199    1159.6999   -6418.7725    9.4116953   0.26960031 
  490400   -680.95098    37.940896   -643.01009    1151.0727    3965.6755    9.6290532   0.22291354 
  490500   -679.84913    43.214539   -636.63459    1311.0675   -247.35768    9.5515341   0.23641283 
  490600   -673.80059    40.213328   -633.58726    1220.0151     5102.907    9.5185726   0.27652461 
  490700   -678.43204    39.527083   -638.90495    1199.1954   -4716.3755    9.4876895    0.2597364 
  490800   -681.68345    37.980209   -643.70324    1152.2654   -9511.1612    9.4816278   0.21786939 
  490900   -677.00989    41.267586   -635.74231    1251.9997    1689.8666    9.5243558   0.21609498 
  491000    -674.9593    40.539932   -634.41937    1229.9238     14711.31    9.6322139   0.23644226 
  491100   -677.77798    43.149346   -634.62864    1309.0897     1285.391     9.539828   0.25824514 
  491200    -682.7633    40.630966   -642.13233    1232.6856   -9457.3855    9.5012312    0.2288223 
  491300   -682.08023    41.131709   -640.94853    1247.8774   -8736.7412     9.511345   0.21375824 
  491400   -678.24859    41.973857   -636.27474     1273.427   -4442.9741    9.4952659   0.22809515 
  491500   -676.45747    41.887933   -634.56953    1270.8202    7700.8185    9.5712729   0.21918166 
  491600   -681.87154    39.723148   -642.14839    1205.1437   -6862.7029    9.5300649   0.21614163 
  491700   -675.12216    37.106145   -638.01601    1125.7476    2707.8667    9.5223687   0.25337405 
  491800    -675.3729    39.849894   -635.52301     1208.989    1810.7106    9.5102192   0.25171293 
  491900    -680.0912    40.593156   -639.49804    1231.5385    2756.0533    9.5883935   0.21705796 
  492000   -680.13439    40.666915   -639.46748    1233.7763    3240.5292     9.606509   0.21542681 
  492100   -675.73673    42.879343   -632.85738    1300.8982   -636.36647    9.4778839   0.25004246 
  492200   -676.12174    38.467227   -637.65451    1167.0408   -7.1920316    9.5002533   0.27110379 
  492300   -676.81932    38.575809   -638.24351    1170.3351   -10776.397    9.3948882   0.24825176 
  492400   -672.45371    42.113152   -630.34056     1277.653   -1354.3649    9.4015712    0.2559898 
  492500   -675.78003    43.398008   -632.38202    1316.6337   -1149.9433    9.4779807   0.27361993 
  492600   -676.77272     40.23915   -636.53357    1220.7985    7197.6663    9.5955878    0.2554005 
  492700   -676.11775    39.091642    -637.0261    1185.9847    2210.1851    9.5299005   0.24094386 
  492800   -670.47787    39.530329   -630.94755    1199.2939     435.1764    9.4030745   0.27532284 
  492900   -672.34475    39.589449    -632.7553    1201.0875    5108.1001    9.4985949   0.27283509 
  493000   -681.76688    43.067736   -638.69915    1306.6138   -5451.3697    9.5312333   0.22033656 
  493100   -677.37154    39.956496   -637.41504    1212.2232    4773.6502    9.5829409   0.26724908 
  493200   -673.15898    39.443441   -633.71554    1196.6578    880.11807     9.450827   0.26537262 
  493300   -674.95449    46.180658   -628.77383    1401.0554   -6112.0552    9.3848512    0.2824405 
  493400   -676.40817    39.497251   -636.91092    1198.2903    620.98927    9.5105248   0.26233308 
  493500   -675.58466    38.225293   -637.35936    1159.7009    3604.4919    9.5207392   0.26853603 
  493600   -675.35792     40.72907   -634.62885    1235.6619    1285.9645    9.4903749   0.24955622 
  493700    -677.0407    35.700331   -641.34037    1083.0972   -10346.048    9.4054003   0.26846635 
  493800   -677.35859    38.180322   -639.17827    1158.3366   -9666.7434    9.4137565   0.26030602 
  493900   -678.66336    44.045793   -634.61756    1336.2866    6558.1394    9.6096378   0.22945626 
  494000   -677.95092    41.353595   -636.59733    1254.6092    7763.0547    9.6185114   0.21962995 
  494100   -679.80483    36.091594   -643.71323    1094.9675    7795.0052    9.6646814   0.20132907 
  494200   -676.25498    38.457469   -637.79751    1166.7448   -3947.7647    9.4627272   0.22222049 
  494300   -677.49451    41.920874   -635.57364    1271.8196    -1228.042    9.4905468   0.23556623 
  494400   -679.56979    38.587355   -640.98244    1170.6854    1940.0392     9.568891   0.22425283 
  494500   -680.16174    41.616493   -638.54524    1262.5851   -2135.9024    9.5401602   0.23091565 
  494600   -674.44525    41.342657    -633.1026    1254.2773    1980.0569    9.4867374   0.31017534 
  494700    -677.6223      39.9102    -637.7121    1210.8186    -4936.579    9.4749647    0.2809444 
  494800   -681.42919    42.695012   -638.73417    1295.3058    5834.6155    9.6465797   0.21891744 
  494900   -675.85604    45.091336    -630.7647    1368.0069    4579.6748    9.5350756   0.22255351 
  495000   -675.76738    42.852989   -632.91439    1300.0986    11248.886    9.6164596   0.23852646 
  495100   -677.60493    39.418951   -638.18598    1195.9148   -1006.7904    9.5198947   0.26401848 
  495200   -676.89626     43.27918   -633.61708    1313.0287   -5170.0798    9.4350532   0.26114654 
  495300   -673.96212    42.697616   -631.26451    1295.3848   -6586.7459    9.3772215   0.28884786 
  495400    -679.2358    39.972222   -639.26358    1212.7003    6469.7162    9.6203255   0.20621925 
  495500   -678.10571    40.527498   -637.57821    1229.5465    12019.261    9.6797463   0.22539454 
  495600   -673.98649    38.883017   -635.10347    1179.6553    609.83554    9.4791354   0.26111178 
  495700   -674.38292    42.084667   -632.29826    1276.7888   -6358.8948    9.3800686   0.29032649 
  495800   -667.86688      42.8915   -624.97538     1301.267   -3650.8883    9.3150561   0.39390177 
  495900   -675.87383    44.549256   -631.32457     1351.561   -2302.8172    9.4607423     0.257513 
  496000   -678.01349    41.487488   -636.52601    1258.6713   -1341.0972    9.5114586   0.24851848 
  496100   -679.07172    41.394458   -637.67726    1255.8489    4179.4796    9.6084435   0.22124228 
  496200   -681.01191    44.206699   -636.80521    1341.1683    329.45949    9.5883238   0.20193852 
  496300    -673.6084    45.131053   -628.47735    1369.2119   -5722.1141    9.3489557   0.31423365 
  496400   -677.93626    43.157711   -634.77855    1309.3435    1981.4414    9.5404695   0.24432646 
  496500   -680.37032    42.727212   -637.64311    1296.2827     11445.74    9.6978754    0.1884309 
  496600   -681.86956    44.817824   -637.05174    1359.7089   -3674.0563    9.5479298   0.19186078 
  496700   -672.68991    41.632546   -631.05736    1263.0721   -744.99171    9.4357635    0.2502078 
  496800   -671.93527    40.083858   -631.85141    1216.0871   -7613.8473    9.3019964   0.31740427 
  496900   -675.47268    38.957099   -636.51558    1181.9029   -8123.0628    9.3996417   0.26447307 
  497000   -681.32561    41.774958   -639.55065    1267.3927   -3372.9251    9.5471864   0.22920814 
  497100   -680.41273     47.27791   -633.13482    1434.3444    5389.8761    9.6259694   0.22258848 
  497200   -674.61571     44.44499   -630.17072    1348.3977    7089.9753    9.5458248    0.2821648 
  497300   -678.93902    42.023688   -636.91533    1274.9388   -3710.2359    9.5041476   0.23805127 
  497400   -678.66919    39.300951   -639.36824    1192.3349   -488.61519    9.5412536   0.22046423 
  497500   -675.81753    41.061456   -634.75607    1245.7461   -5720.1242    9.4367367   0.26887678 
  497600   -676.53509    42.357414   -634.17767    1285.0636    2592.5905    9.5161564   0.24051335 
  497700   -682.28168    41.531504   -640.75018    1260.0067   -48.216704    9.5974164   0.21190591 
  497800   -677.68117    40.322812   -637.35835    1223.3367   -4136.1474    9.4821707   0.25606022 
  497900   -673.56141    41.729798   -631.83161    1266.0226   -1846.1428    9.4319331   0.27528696 
  498000   -679.84733    41.053962   -638.79337    1245.5187   -316.08338    9.5518486   0.19792152 
  498100   -679.97671    40.684399   -639.29231    1234.3067    4084.2207    9.6031913   0.21420541 
  498200   -673.82348    41.425566   -632.39791    1256.7927    7545.7051    9.5341162   0.24755077 
  498300   -677.65028    41.502686   -636.14759    1259.1324   -2302.7977    9.4896215   0.24689028 
  498400   -678.26178      36.6252   -641.63658    1111.1564   -4886.7712    9.4809232    0.2663637 
  498500   -676.50683    40.715652   -635.79118    1235.2549   -10996.605    9.3628543   0.29947283 
  498600   -673.17294    40.267556   -632.90538    1221.6603    7489.8042    9.5224777   0.28086775 
  498700   -681.67065     42.56892   -639.10173    1291.4804    5531.4566      9.65442   0.21256955 
  498800   -678.05984    35.814519   -642.24532    1086.5615    1633.4234    9.5596421   0.24977446 
  498900   -676.74999    40.087856   -636.66214    1216.2084    -6578.374    9.4257062   0.24211194 
  499000   -679.38219    42.404948   -636.97724    1286.5057   -9729.2251    9.4445161   0.21128496 
  499100   -677.95736      38.7079   -639.24946    1174.3425    3943.2302     9.579574   0.25399744 
  499200   -685.08708    39.253656   -645.83342       1190.9    1992.0048    9.6860886   0.16385705 
  499300    -678.7951    40.043493    -638.7516    1214.8625    2170.3255    9.5841092   0.22350678 
  499400   -675.88379    39.107006   -636.77679    1186.4508    1070.7839    9.5229332   0.24173018 
  499500   -679.89623    42.664487   -637.23174    1294.3797   -4121.1447    9.5043252   0.22649271 
  499600   -684.60038    40.991999   -643.60838    1243.6389    5761.8911    9.7055108   0.18474755 
  499700   -679.27916    40.136967   -639.14219    1217.6984    3798.9698    9.5964625    0.2281907 
  499800   -675.09184    39.352749    -635.7391    1193.9063   -3477.4035    9.4488432   0.26828072 
  499900   -674.92526    38.522198   -636.40306    1168.7086   -269.55589    9.4802222   0.24736212 
  500000   -678.84304    37.345442    -641.4976    1133.0075    7601.2016    9.6495076   0.22017454 
Loop time of 351.269 on 1 procs for 500000 steps with 256 atoms

Performance: 614.913 ns/day, 0.039 hours/ns, 1423.409 timesteps/s
100.0% CPU use with 1 MPI tasks x no OpenMP threads

MPI task timing breakdown:
Section |  min time  |  avg time  |  max time  |%varavg| %total
---------------------------------------------------------------
Pair    | 210.51     | 210.51     | 210.51     |   0.0 | 59.93
Neigh   | 13.842     | 13.842     | 13.842     |   0.0 |  3.94
Comm    | 3.8523     | 3.8523     | 3.8523     |   0.0 |  1.10
Output  | 0.15818    | 0.15818    | 0.15818    |   0.0 |  0.05
Modify  | 122.08     | 122.08     | 122.08     |   0.0 | 34.75
Other   |            | 0.8196     |            |       |  0.23

Nlocal:    256 ave 256 max 256 min
Histogram: 1 0 0 0 0 0 0 0 0 0
Nghost:    1431 ave 1431 max 1431 min
Histogram: 1 0 0 0 0 0 0 0 0 0
Neighs:    11583 ave 11583 max 11583 min
Histogram: 1 0 0 0 0 0 0 0 0 0

Total # of neighbors = 11583
Ave neighs/atom = 45.2461
Neighbor list builds = 25184
Dangerous builds = 0
    
Total wall time: 0:05:51
