
     Program PWSCF v.6.4.1 starts on 14Dec2020 at  2:39:43 

     This program is part of the open-source Quantum ESPRESSO suite
     for quantum simulation of materials; please cite
         "P. Giannozzi et al., J. Phys.:Condens. Matter 21 395502 (2009);
         "P. Giannozzi et al., J. Phys.:Condens. Matter 29 465901 (2017);
          URL http://www.quantum-espresso.org", 
     in publications or presentations arising from this work. More details at
     http://www.quantum-espresso.org/quote

     Parallel version (MPI), running on     1 processors

     MPI processes distributed on     1 nodes
     Waiting for input...
     Reading input from standard input
Warning: card &IONS ignored
Warning: card / ignored
Warning: card &CELL ignored
Warning: card / ignored

     Current dimensions of program PWSCF are:
     Max number of different atomic species (ntypx) = 10
     Max number of k-points (npk) =  40000
     Max angular momentum in pseudopotentials (lmaxx) =  3

     Subspace diagonalization in iterative solution of the eigenvalue problem:
     a serial algorithm will be used


     G-vector sticks info
     --------------------
     sticks:   dense  smooth     PW     G-vecs:    dense   smooth      PW
     Sum         621     621    193                11753    11753    2103



     bravais-lattice index     =            0
     lattice parameter (alat)  =       8.8817  a.u.
     unit-cell volume          =     700.6323 (a.u.)^3
     number of atoms/cell      =           10
     number of atomic types    =            4
     number of electrons       =        32.00
     number of Kohn-Sham states=           16
     kinetic-energy cutoff     =      25.0000  Ry
     charge density cutoff     =     100.0000  Ry
     convergence threshold     =      1.0E-07
     mixing beta               =       0.5000
     number of iterations used =            8  plain     mixing
     Exchange-correlation      =  SLA  PW   PBX  PBC ( 1  4  3  4 0 0)

     celldm(1)=   8.881713  celldm(2)=   0.000000  celldm(3)=   0.000000
     celldm(4)=   0.000000  celldm(5)=   0.000000  celldm(6)=   0.000000

     crystal axes: (cart. coord. in units of alat)
               a(1) = (   1.000000   0.000000   0.000000 )  
               a(2) = (   0.000000   1.000000   0.000000 )  
               a(3) = (   0.000000   0.000000   1.000000 )  

     reciprocal axes: (cart. coord. in units 2 pi/alat)
               b(1) = (  1.000000  0.000000  0.000000 )  
               b(2) = (  0.000000  1.000000  0.000000 )  
               b(3) = (  0.000000  0.000000  1.000000 )  


     PseudoPot. # 1 for B  read from file:
     /home/modeler/qe_pseudo/b_pbe_v1.4.uspp.F.UPF
     MD5 check sum: cc6de2960df11db49a60e589f9ebb39b
     Pseudo is Ultrasoft + core correction, Zval =  3.0
     Generated by new atomic code, or converted to UPF format
     Using radial grid of  781 points,  4 beta functions with: 
                l(1) =   0
                l(2) =   0
                l(3) =   1
                l(4) =   1
     Q(r) pseudized with  8 coefficients,  rinner =    1.100   1.100   1.100


     PseudoPot. # 2 for H  read from file:
     /home/modeler/qe_pseudo/H.pbe-rrkjus_psl.1.0.0.UPF
     MD5 check sum: f52b6d4d1c606e5624b1dc7b2218f220
     Pseudo is Ultrasoft, Zval =  1.0
     Generated using "atomic" code by A. Dal Corso v.5.1
     Using radial grid of  929 points,  2 beta functions with: 
                l(1) =   0
                l(2) =   0
     Q(r) pseudized with 0 coefficients 


     PseudoPot. # 3 for N  read from file:
     /home/modeler/qe_pseudo/N.pbe-n-radius_5.UPF
     MD5 check sum: 16739722b17309cd8fe442a2ace49922
     Pseudo is Ultrasoft + core correction, Zval =  5.0
     Generated using "atomic" code by A. Dal Corso v.5.1
     Using radial grid of 1085 points,  4 beta functions with: 
                l(1) =   0
                l(2) =   0
                l(3) =   1
                l(4) =   1
     Q(r) pseudized with 0 coefficients 


     PseudoPot. # 4 for Na read from file:
     /home/modeler/qe_pseudo/na_pbe_v1.5.uspp.F.UPF
     MD5 check sum: 44600605ef58000f06b90626533354dc
     Pseudo is Ultrasoft, Zval =  9.0
     Generated by new atomic code, or converted to UPF format
     Using radial grid of  819 points,  5 beta functions with: 
                l(1) =   0
                l(2) =   0
                l(3) =   1
                l(4) =   1
                l(5) =   2
     Q(r) pseudized with  8 coefficients,  rinner =    1.250   1.250   1.250
                                                       1.250   1.250

     atomic species   valence    mass     pseudopotential
        B              3.00    10.81000     B ( 1.00)
        H              1.00     1.00800     H ( 1.00)
        N              5.00    14.00700     N ( 1.00)
        Na             9.00    22.98977     Na( 1.00)

     No symmetry found



   Cartesian axes

     site n.     atom                  positions (alat units)
         1           Na  tau(   1) = (   0.5000000   0.0000000   0.5000000  )
         2           Na  tau(   2) = (   0.0000000   0.5000000   0.5000000  )
         3           N   tau(   3) = (   0.5000000   0.5000000   0.5000000  )
         4           H   tau(   4) = (   0.6965851   0.5000000   0.4304957  )
         5           H   tau(   5) = (   0.4017064   0.6702489   0.4304957  )
         6           B   tau(   6) = (   0.0000000   0.0000000   0.0000000  )
         7           H   tau(   7) = (   0.2347000   0.0000000  -0.0829787  )
         8           H   tau(   8) = (  -0.1173489   0.2032553  -0.0829787  )
         9           H   tau(   9) = (  -0.1173489  -0.2032553  -0.0829787  )
        10           H   tau(  10) = (   0.0000000   0.0000000   0.2489362  )

     number of k points=     8
                       cart. coord. in units 2pi/alat
        k(    1) = (   0.0000000   0.0000000   0.0000000), wk =   0.2500000
        k(    2) = (   0.0000000   0.0000000  -0.5000000), wk =   0.2500000
        k(    3) = (   0.0000000  -0.5000000  -0.5000000), wk =   0.2500000
        k(    4) = (  -0.5000000  -0.5000000  -0.5000000), wk =   0.2500000
        k(    5) = (  -0.5000000   0.0000000   0.0000000), wk =   0.2500000
        k(    6) = (   0.0000000  -0.5000000   0.0000000), wk =   0.2500000
        k(    7) = (  -0.5000000   0.0000000   0.5000000), wk =   0.2500000
        k(    8) = (  -0.5000000   0.5000000   0.0000000), wk =   0.2500000

     Dense  grid:    11753 G-vectors     FFT dimensions: (  30,  30,  30)

     Estimated max dynamical RAM per process >      39.67 MB

     Check: negative core charge=   -0.000058

     Initial potential from superposition of free atoms

     starting charge   31.98707, renormalised to   32.00000
     Starting wfcs are   24 randomized atomic wfcs

     total cpu time spent up to now is        1.4 secs

     Self-consistent Calculation

     iteration #  1     ecut=    25.00 Ry     beta= 0.50
     Davidson diagonalization with overlap
     ethr =  1.00E-02,  avg # of iterations =  2.0

     total cpu time spent up to now is        2.2 secs

     total energy              =    -223.73637792 Ry
     Harris-Foulkes estimate   =    -224.63824900 Ry
     estimated scf accuracy    <       1.59122038 Ry

     iteration #  2     ecut=    25.00 Ry     beta= 0.50
     Davidson diagonalization with overlap
     ethr =  4.97E-03,  avg # of iterations =  2.2

     total cpu time spent up to now is        3.0 secs

     total energy              =    -224.04853946 Ry
     Harris-Foulkes estimate   =    -224.15345308 Ry
     estimated scf accuracy    <       0.23280481 Ry

     iteration #  3     ecut=    25.00 Ry     beta= 0.50
     Davidson diagonalization with overlap
     ethr =  7.28E-04,  avg # of iterations =  2.2

     total cpu time spent up to now is        3.8 secs

     total energy              =    -224.08720492 Ry
     Harris-Foulkes estimate   =    -224.09856933 Ry
     estimated scf accuracy    <       0.03015995 Ry

     iteration #  4     ecut=    25.00 Ry     beta= 0.50
     Davidson diagonalization with overlap
     ethr =  9.42E-05,  avg # of iterations =  2.1

     total cpu time spent up to now is        4.5 secs

     total energy              =    -224.09065137 Ry
     Harris-Foulkes estimate   =    -224.09115615 Ry
     estimated scf accuracy    <       0.00239562 Ry

     iteration #  5     ecut=    25.00 Ry     beta= 0.50
     Davidson diagonalization with overlap
     ethr =  7.49E-06,  avg # of iterations =  2.0

     total cpu time spent up to now is        5.3 secs

     total energy              =    -224.09081176 Ry
     Harris-Foulkes estimate   =    -224.09083482 Ry
     estimated scf accuracy    <       0.00011388 Ry

     iteration #  6     ecut=    25.00 Ry     beta= 0.50
     Davidson diagonalization with overlap
     ethr =  3.56E-07,  avg # of iterations =  3.0

     total cpu time spent up to now is        6.1 secs

     total energy              =    -224.09083978 Ry
     Harris-Foulkes estimate   =    -224.09083925 Ry
     estimated scf accuracy    <       0.00001172 Ry

     iteration #  7     ecut=    25.00 Ry     beta= 0.50
     Davidson diagonalization with overlap
     ethr =  3.66E-08,  avg # of iterations =  2.0

     total cpu time spent up to now is        7.0 secs

     total energy              =    -224.09084127 Ry
     Harris-Foulkes estimate   =    -224.09084134 Ry
     estimated scf accuracy    <       0.00000138 Ry

     iteration #  8     ecut=    25.00 Ry     beta= 0.50
     Davidson diagonalization with overlap
     ethr =  4.30E-09,  avg # of iterations =  2.5

     total cpu time spent up to now is        7.8 secs

     End of self-consistent calculation

          k = 0.0000 0.0000 0.0000 (  1419 PWs)   bands (ev):

   -51.5706 -50.8380 -23.5656 -23.3542 -23.2839 -22.7472 -22.6340 -22.5801
   -14.9224  -7.4796  -6.2766  -2.3894  -1.9067  -1.6881  -1.0866   0.6079

          k = 0.0000 0.0000-0.5000 (  1462 PWs)   bands (ev):

   -51.5788 -50.8462 -23.5903 -23.3788 -23.3208 -22.7667 -22.6619 -22.6086
   -14.9164  -7.3048  -6.2623  -3.1285  -1.7085  -1.6518  -1.3981   0.3040

          k = 0.0000-0.5000-0.5000 (  1492 PWs)   bands (ev):

   -51.5836 -50.8509 -23.6008 -23.3983 -23.3293 -22.8044 -22.6813 -22.6329
   -14.8181  -7.1723  -6.3776  -3.1132  -2.5213  -1.5855  -1.3101   0.4929

          k =-0.5000-0.5000-0.5000 (  1472 PWs)   bands (ev):

   -51.5803 -50.8478 -23.6262 -23.3880 -23.3189 -22.7849 -22.6690 -22.6173
   -14.6787  -7.0607  -6.6353  -2.8490  -2.2905  -2.1376  -1.7912   0.1650

          k =-0.5000 0.0000 0.0000 (  1462 PWs)   bands (ev):

   -51.5789 -50.8462 -23.6211 -23.3720 -23.3069 -22.7822 -22.6645 -22.6045
   -14.7809  -7.5262  -6.3616  -2.3960  -2.2370  -1.6975  -1.4347   0.4629

          k = 0.0000-0.5000 0.0000 (  1462 PWs)   bands (ev):

   -51.5787 -50.8464 -23.5858 -23.3894 -23.3050 -22.7927 -22.6648 -22.6123
   -14.8259  -7.4224  -6.3005  -2.4319  -2.2499  -1.6879  -1.5406   0.4015

          k =-0.5000 0.0000 0.5000 (  1492 PWs)   bands (ev):

   -51.5835 -50.8511 -23.6293 -23.3884 -23.3306 -22.7938 -22.6809 -22.6251
   -14.7764  -7.1918  -6.5891  -2.9060  -2.4813  -1.6051  -1.3263   0.5063

          k =-0.5000 0.5000 0.0000 (  1492 PWs)   bands (ev):

   -51.5833 -50.8509 -23.6371 -23.3996 -23.3231 -22.7987 -22.6797 -22.6244
   -14.6856  -7.2299  -6.6781  -2.6309  -2.2303  -2.1776  -1.3459   0.4723

     highest occupied level (ev):     0.6079

!    total energy              =    -224.09084152 Ry
     Harris-Foulkes estimate   =    -224.09084153 Ry
     estimated scf accuracy    <       0.00000007 Ry

     The total energy is the sum of the following terms:

     one-electron contribution =    -196.14215918 Ry
     hartree contribution      =     104.12701592 Ry
     xc contribution           =     -41.73481595 Ry
     ewald contribution        =     -90.34088232 Ry

     convergence has been achieved in   8 iterations

     Forces acting on atoms (cartesian axes, Ry/au):

     atom    1 type  4   force =     0.01864714    0.07976252    0.02077385
     atom    2 type  4   force =     0.12894648   -0.01283047    0.04047850
     atom    3 type  3   force =    -0.04673149   -0.08741018    0.07805161
     atom    4 type  2   force =    -0.06973747    0.01581375   -0.07960970
     atom    5 type  2   force =    -0.03253062    0.00802292   -0.06785585
     atom    6 type  1   force =     0.00681391   -0.00318120   -0.02610247
     atom    7 type  2   force =     0.05005660   -0.00019036   -0.01014314
     atom    8 type  2   force =    -0.02748109    0.04474104   -0.01295929
     atom    9 type  2   force =    -0.02814336   -0.04435545   -0.01362925
     atom   10 type  2   force =     0.00015989   -0.00037257    0.07099574

     Total force =     0.270043     Total SCF correction =     0.000341


     Computing stress (Cartesian axis) and pressure

          total   stress  (Ry/bohr**3)                   (kbar)     P= -131.21
  -0.00047803   0.00013914   0.00008718        -70.32     20.47     12.82
   0.00013914  -0.00077747  -0.00000050         20.47   -114.37     -0.07
   0.00008718  -0.00000050  -0.00142037         12.82     -0.07   -208.94


     init_run     :      0.97s CPU      0.99s WALL (       1 calls)
     electrons    :      6.42s CPU      6.43s WALL (       1 calls)
     forces       :      0.18s CPU      0.18s WALL (       1 calls)
     stress       :      0.42s CPU      0.42s WALL (       1 calls)

     Called by init_run:
     wfcinit      :      0.37s CPU      0.37s WALL (       1 calls)
     potinit      :      0.03s CPU      0.03s WALL (       1 calls)
     hinit0       :      0.53s CPU      0.54s WALL (       1 calls)

     Called by electrons:
     c_bands      :      4.98s CPU      4.99s WALL (       8 calls)
     sum_band     :      1.05s CPU      1.05s WALL (       8 calls)
     v_of_rho     :      0.17s CPU      0.17s WALL (       9 calls)
     newd         :      0.25s CPU      0.25s WALL (       9 calls)
     mix_rho      :      0.02s CPU      0.02s WALL (       8 calls)

     Called by c_bands:
     init_us_2    :      0.12s CPU      0.12s WALL (     152 calls)
     cegterg      :      4.77s CPU      4.78s WALL (      64 calls)

     Called by sum_band:
     sum_band:bec :      0.00s CPU      0.00s WALL (      64 calls)
     addusdens    :      0.21s CPU      0.22s WALL (       8 calls)

     Called by *egterg:
     h_psi        :      3.94s CPU      3.95s WALL (     217 calls)
     s_psi        :      0.36s CPU      0.36s WALL (     217 calls)
     g_psi        :      0.02s CPU      0.02s WALL (     145 calls)
     cdiaghg      :      0.10s CPU      0.10s WALL (     209 calls)

     Called by h_psi:
     h_psi:pot    :      3.93s CPU      3.94s WALL (     217 calls)
     h_psi:calbec :      0.40s CPU      0.40s WALL (     217 calls)
     vloc_psi     :      3.16s CPU      3.17s WALL (     217 calls)
     add_vuspsi   :      0.36s CPU      0.36s WALL (     217 calls)

     General routines
     calbec       :      0.64s CPU      0.64s WALL (     321 calls)
     fft          :      0.16s CPU      0.16s WALL (     124 calls)
     ffts         :      0.01s CPU      0.01s WALL (       8 calls)
     fftw         :      3.47s CPU      3.47s WALL (    6436 calls)

     Parallel routines

     PWSCF        :      8.35s CPU      8.39s WALL


   This run was terminated on:   2:39:52  14Dec2020            

=------------------------------------------------------------------------------=
   JOB DONE.
=------------------------------------------------------------------------------=
