LAMMPS (3 Mar 2020)
Reading data file ...
  orthogonal box = (0 0 0) to (17.469 17.469 17.469)
  1 by 1 by 1 MPI processor grid
  reading atoms ...
  217 atoms
  read_data CPU = 0.00102067 secs
Reading potential file library.meam with DATE: 2012-06-29
Reading potential file LiSi.meam with DATE: 2020-11-07
1 atoms in group Li
216 atoms in group Si
Neighbor list info ...
  update every 1 steps, delay 10 steps, check yes
  max neighbors/atom: 2000, page size: 100000
  master list distance cutoff = 6
  ghost atom cutoff = 6
  binsize = 3, bins = 6 6 6
  2 neighbor lists, perpetual/occasional/extra = 2 0 0
  (1) pair meam/c, perpetual
      attributes: full, newton on
      pair build: full/bin/atomonly
      stencil: full/bin/3d
      bin: standard
  (2) pair meam/c, perpetual, half/full from (1)
      attributes: half, newton on
      pair build: halffull/newton
      stencil: none
      bin: none
Setting up Verlet run ...
  Unit style    : metal
  Current step  : 0
  Time step     : 0.003
Per MPI rank memory allocation (min/avg/max) = 8.895 | 8.895 | 8.895 Mbytes
Step Temp E_pair E_mol TotEng Press Volume 
       0         1400   -951.04357            0    -911.9553   -116399.41    5330.9442 
    3200    1352.8368   -958.70622            0   -920.93476    4675.0914    4542.9086 
Loop time of 2.34113 on 1 procs for 3200 steps with 217 atoms

Performance: 354.291 ns/day, 0.068 hours/ns, 1366.862 timesteps/s
100.0% CPU use with 1 MPI tasks x no OpenMP threads

MPI task timing breakdown:
Section |  min time  |  avg time  |  max time  |%varavg| %total
---------------------------------------------------------------
Pair    | 2.2796     | 2.2796     | 2.2796     |   0.0 | 97.37
Neigh   | 0.013082   | 0.013082   | 0.013082   |   0.0 |  0.56
Comm    | 0.014001   | 0.014001   | 0.014001   |   0.0 |  0.60
Output  | 2.6085e-05 | 2.6085e-05 | 2.6085e-05 |   0.0 |  0.00
Modify  | 0.02956    | 0.02956    | 0.02956    |   0.0 |  1.26
Other   |            | 0.004838   |            |       |  0.21

Nlocal:    217 ave 217 max 217 min
Histogram: 1 0 0 0 0 0 0 0 0 0
Nghost:    953 ave 953 max 953 min
Histogram: 1 0 0 0 0 0 0 0 0 0
Neighs:    4298 ave 4298 max 4298 min
Histogram: 1 0 0 0 0 0 0 0 0 0
FullNghs:  8596 ave 8596 max 8596 min
Histogram: 1 0 0 0 0 0 0 0 0 0

Total # of neighbors = 8596
Ave neighs/atom = 39.6129
Neighbor list builds = 22
Dangerous builds = 0
Setting up Verlet run ...
  Unit style    : metal
  Current step  : 3200
  Time step     : 0.003
Per MPI rank memory allocation (min/avg/max) = 9.666 | 9.666 | 9.666 Mbytes
Step PotEng KinEng TotEng Temp Press Density c_msdli[4] c_msdsi[4] 
    3200   -958.70622    37.771462   -920.93476    1352.8368    4675.0914    2.2200112            0 1.016035e-31 
    3300   -953.57014    36.119662   -917.45048    1293.6753    3347.8843    2.2010682   0.27110461  0.085415953 
    3400   -952.38626    38.331616   -914.05465    1372.8995   -2512.5694     2.186504  0.095351462   0.10027653 
    3500   -953.80101    36.552097   -917.24891    1309.1636   -3496.0551     2.190968  0.027041707    0.1006175 
    3600   -959.00204    38.002463   -920.99958    1361.1104    2081.2088    2.2131625  0.053082952  0.090482455 
    3700   -954.44883    41.281745   -913.16708    1478.5624    2870.7915    2.2023503  0.041921189  0.073978264 
    3800    -952.4674    37.155561   -915.31184    1330.7774    2046.4316    2.1995302   0.03328908  0.092329355 
    3900   -956.77786    37.539124   -919.23874    1344.5153   -3249.1173    2.1953261  0.050009758  0.097462103 
    4000   -953.94362     39.42417   -914.51945    1412.0308   -1378.5324    2.1964886  0.014556158    0.1210717 
    4100   -949.62304    37.263254   -912.35979    1334.6346    6652.5714    2.2024228   0.23894536   0.11086057 
    4200   -954.68823    38.860151   -915.82808    1391.8297    621.02732    2.2024397  0.034074724   0.10399859 
    4300   -953.32303    35.621357   -917.70168    1275.8278   -1760.0915    2.1967169 0.0064639735  0.087049048 
    4400    -951.2794    42.203207    -909.0762    1511.5658   -5404.5267    2.1797629    0.2229349  0.086866059 
    4500   -956.04083    42.793749   -913.24708    1532.7169    2150.4026    2.2039921   0.10205394  0.088315096 
    4600   -956.07221    39.709681   -916.36253    1422.2568    3295.1932    2.2115853  0.080006367   0.10144328 
    4700    -953.3464    38.856831   -914.48957    1391.7108    230.40382    2.1955527   0.11505602   0.10585893 
    4800   -950.39087      41.5025   -908.88837    1486.4691   -5692.2355    2.1709731  0.034729225   0.10168799 
    4900   -953.72893    36.838653   -916.89028     1319.427   -1595.8244    2.1954618  0.025386115   0.10450319 
    5000   -953.54017    38.159902   -915.38026    1366.7493    5851.2481    2.2095408  0.054376503  0.087038621 
    5100   -952.65822    42.993949   -909.66427    1539.8873     2854.883    2.2000033  0.052742956  0.089810102 
    5200    -953.6342    38.020285   -915.61391    1361.7487   -1767.1266     2.193245   0.11568422   0.10632232 
    5300   -953.00673    35.944007   -917.06273     1287.384   -6277.8789    2.1807934   0.14194601  0.095246782 
    5400   -953.23293     39.75568   -913.47725    1423.9043   -1893.6848    2.1886607   0.22332059   0.08082279 
    5500   -949.50329    36.805296   -912.69799    1318.2322    8585.4204    2.2118692   0.27944523  0.099154891 
    5600   -958.07084    38.254118   -919.81673    1370.1238    7575.7967    2.2261954  0.019001497  0.083974982 
    5700   -954.75716    39.418634   -915.33853    1411.8325   -1170.6984    2.1938273   0.12600321  0.098863635 
    5800   -953.87712    40.076825   -913.80029    1435.4065   -9169.5029    2.1716816   0.11589512   0.10441267 
    5900   -954.11154    33.088318   -921.02322    1185.1036   -2270.7179     2.194731  0.092684328  0.094695034 
    6000   -955.15195    37.707642    -917.4443     1350.551    5225.1323    2.2151836   0.10414484   0.10320884 
    6100   -952.44027    39.324283   -913.11599    1408.4532    8691.1436    2.2131061   0.27537977   0.10077027 
    6200   -958.42743    40.887284   -917.54015    1464.4342   -3122.7107    2.1954093   0.19028999  0.085956652 
    6300   -957.88339    37.103699    -920.7797    1328.9199   -7204.9479    2.1826791   0.20075046  0.084235409 
    6400   -955.63237    42.047781   -913.58459     1505.999   -6707.6419    2.1779745   0.11295543  0.096078747 
    6500   -957.14696     41.66878   -915.47818    1492.4246    2120.2922    2.2058193   0.16973523  0.091199456 
    6600   -959.14283    39.953731    -919.1891    1430.9978    8138.3442    2.2210425   0.17574672  0.081405151 
    6700   -949.24953    38.733296   -910.51623    1387.2862    331.99723    2.1842356   0.29094551  0.096060108 
    6800   -954.80288    40.706887   -914.09599    1457.9731   -7523.4863     2.178302  0.021283706  0.093978814 
    6900   -956.24796    38.660122   -917.58784    1384.6654   -3068.7699    2.1904889   0.15076102  0.094035372 
    7000   -953.77317     40.90462   -912.86855    1465.0551    6419.4193     2.205842  0.050168513  0.084308117 
    7100   -952.29793     41.39088   -910.90705    1482.4712    5055.2849        2.203   0.13625952   0.10173928 
    7200   -954.58657    37.568171    -917.0184    1345.5556   -4543.3217    2.1904061  0.037772403  0.090663464 
    7300   -953.39455    38.439253   -914.95529    1376.7546      -8027.9    2.1761327   0.21380409   0.10049624 
    7400   -948.91641    39.811678   -909.10473    1425.9099   -2218.8653    2.1781413   0.14640552   0.11456918 
    7500   -954.96839    37.531795   -917.43659    1344.2528    11388.986    2.2235966   0.20937239  0.090298767 
    7600   -956.48747    40.820714   -915.66675    1462.0499    6159.4494    2.2153997   0.21000539  0.096036125 
    7700   -951.41632    39.134296   -912.28202    1401.6486   -6801.6108    2.1774465  0.067943831   0.10332556 
    7800   -955.09752    37.571396   -917.52613    1345.6711   -13762.418    2.1672004  0.077538224   0.10265379 
    7900   -955.02855    36.731777   -918.29677     1315.599   -1885.1172    2.1935854   0.20905656   0.10672021 
    8000   -949.77526    36.951042   -912.82422    1323.4523    12245.805    2.2244598   0.25583793   0.10757766 
    8100   -953.49141    37.194923   -916.29649    1332.1873    7957.8191    2.2151163  0.038376954  0.096184878 
    8200   -957.61614    36.503682   -921.11246    1307.4295    -3409.994    2.1964868   0.14091342    0.0914694 
    8300   -954.01517    39.966696   -914.04847    1431.4621   -5775.2647    2.1818009   0.15439285   0.10565178 
    8400   -950.44529    35.274838   -915.17045    1263.4168     1001.848    2.1937999  0.070326291   0.11201348 
    8500   -958.34425    37.701564   -920.64269    1350.3333    2550.4493    2.2133771  0.056213601  0.099847024 
    8600   -949.57773    36.667546   -912.91018    1313.2985    3312.1071    2.1959489  0.033728376     0.115925 
    8700    -954.2327    40.291509   -913.94119    1443.0957   -286.45555    2.1971661   0.01903146  0.099655961 
    8800   -956.26597    38.018739   -918.24723    1361.6933   -2207.7598    2.1951065   0.15065574  0.096602141 
    8900   -949.50493    35.697506   -913.80742    1278.5552    2211.5464    2.1907734  0.077952662   0.10111924 
    9000   -951.31963    39.439973   -911.87966    1412.5968    2354.6015     2.195838  0.013465515   0.10139501 
    9100    -953.6673    36.895676   -916.77163    1321.4693      2774.24    2.2022138  0.084015388  0.098413311 
    9200   -953.50237    37.856346   -915.64602     1355.877   -1016.7734    2.1932362   0.10850058  0.087837961 
    9300   -949.80703    40.382559   -909.42447    1446.3568   -5107.4728    2.1734649   0.25206649  0.095059481 
    9400    -956.3392    39.294333   -917.04487    1407.3805   -1001.9665     2.201089   0.24497289   0.08740126 
    9500   -955.76737    40.249383   -915.51799    1441.5869    5915.9511    2.2160282    0.1507022   0.10247088 
    9600   -950.11705    40.622814   -909.49424    1454.9619    5424.5926    2.1986301  0.038188957    0.1035056 
    9700   -954.75822    38.103457   -916.65476    1364.7276   -7735.3913    2.1837795  0.090139682   0.11009027 
    9800   -953.73725    36.984495   -916.75276    1324.6505   -8940.6484     2.172232   0.09609412  0.098637273 
    9900   -951.96288    39.617884   -912.34499    1418.9689   -103.27326    2.1941447  0.063508144  0.089731615 
   10000   -955.62108    37.316498   -918.30458    1336.5416    11309.302    2.2287135  0.053021076  0.093357071 
   10100   -955.70283    37.232905   -918.46992    1333.5476    4284.9069    2.2116263   0.24938102  0.091771547 
   10200   -953.97639    39.816768   -914.15962    1426.0922   -6249.7114    2.1769469  0.012373741   0.10278984 
   10300   -953.92189    39.615921   -914.30597    1418.8986   -8400.3435    2.1742617   0.12354014   0.09291246 
   10400   -959.45961    38.103718    -921.3559     1364.737    2329.6996    2.2118269  0.098237182  0.075243354 
   10500   -951.77528     37.54422   -914.23106    1344.6978    8310.0003    2.2122164   0.10754688   0.09249938 
   10600   -953.54547    39.027486   -914.51799     1397.823    1325.1431    2.1990543   0.34031873   0.10057227 
   10700   -956.59467    36.201271    -920.3934    1296.5982   -4124.9974    2.1914957  0.035662358  0.092883365 
   10800   -955.24056    39.105871   -916.13469    1400.6305   -3650.5464    2.1907333  0.039357899   0.10373258 
   10900   -951.04155    37.526963   -913.51458    1344.0797     3854.093    2.1958223   0.14425063  0.098574839 
   11000   -955.45801    38.548677   -916.90934    1380.6738    1777.0246    2.2021887  0.036876595  0.086674174 
   11100   -958.34099    38.352371   -919.98862    1373.6428     -1818.72    2.2031838   0.47835741   0.10527217 
   11200   -951.41628    40.215063   -911.20122    1440.3577   -2600.2157     2.181372  0.040905257   0.09273579 
   11300   -953.85183    39.386649   -914.46519    1410.6869   -1002.4389    2.1951731   0.40054015  0.099151562 
   11400   -955.12727    38.029787   -917.09748    1362.0891    2893.1554    2.2054961  0.049218206  0.090008155 
   11500   -954.89005    41.737831   -913.15221    1494.8977    2117.5111    2.1997746  0.090035226   0.09168341 
   11600   -952.43989    41.618222   -910.82167    1490.6138   -2568.6759    2.1830119  0.079385555   0.10399119 
   11700   -952.78311    36.211262   -916.57185    1296.9561   -3735.5827    2.1829855   0.02133656  0.091006726 
   11800   -955.53789    39.917565   -915.62032    1429.7024   -2113.0214     2.192428  0.053673056  0.093749139 
   11900   -953.18369    45.032862   -908.15083    1612.9138    3735.4549    2.2001075   0.15869179   0.09971945 
   12000   -953.88921    38.108413   -915.78079    1364.9052    10482.425    2.2198078   0.12335645  0.098271729 
   12100   -955.14797    38.789962   -916.35801    1389.3158   -4509.1532    2.1838607  0.088316361   0.09799828 
   12200   -950.30105    38.674402   -911.62665    1385.1768   -15247.902    2.1466836  0.074712078   0.10836071 
   12300    -951.4552    38.344044   -913.11116    1373.3446   -3207.3614    2.1793613   0.11991726  0.093491084 
   12400   -954.34022    36.764993   -917.57523    1316.7887    13891.768    2.2323047      0.18778  0.095039651 
   12500   -953.79516    39.807216   -913.98794    1425.7501    9762.3752    2.2178075   0.11510526  0.093495028 
   12600   -955.47932    40.727262   -914.75206    1458.7028   -4586.1273    2.1822485   0.27788342  0.087129408 
   12700   -959.12631    37.073784   -922.05252    1327.8485   -7776.6448    2.1873045   0.23019548  0.083563263 
   12800   -953.77369    38.240614   -915.53308    1369.6401   -341.78959    2.1894004  0.057393156  0.091190748 
   12900   -957.88955    43.999692   -913.88985    1575.9094    1018.5176    2.2031504  0.025840444  0.096511101 
   13000   -958.62611    38.450716    -920.1754    1377.1652    3279.9305    2.2110593   0.12086061   0.09730273 
   13100    -954.0625    37.065543   -916.99696    1327.5533   -854.20566    2.1919561  0.039053489  0.086521629 
   13200   -953.26629    39.433185   -913.83311    1412.3537   -3215.3545    2.1822243   0.18388765  0.097558305 
   13300   -954.00291    37.030119   -916.97279    1326.2846   -1764.5541    2.1926972  0.046286434  0.092434848 
   13400   -956.78342    36.466563   -920.31686       1306.1     6081.968    2.2134459   0.15108392  0.091874096 
   13500   -955.62289     44.01191   -911.61097     1576.347   -937.98937    2.1924774   0.15401895  0.091181188 
   13600   -953.72822    39.155995   -914.57222    1402.4258   -3879.7214    2.1876212  0.022924519   0.10595396 
   13700   -957.00843     39.51583    -917.4926    1415.3137   -4828.5318    2.1901223   0.13904292  0.093066125 
   13800   -954.42127    40.706229   -913.71504    1457.9495    722.67329    2.1976045   0.12943527  0.094277135 
   13900   -950.98228    40.507831   -910.47445    1450.8436     7686.119    2.2071075   0.06676525   0.10705993 
   14000   -957.64272    41.690242   -915.95248    1493.1933   -3361.5281    2.1944213  0.095883436  0.093383455 
   14100   -954.19281    37.502903   -916.68991     1343.218   -8193.5244    2.1750361  0.095513615   0.10070612 
   14200   -952.03506    43.214133   -908.82092    1547.7735   -8299.6396    2.1693145  0.024028658   0.11235758 
   14300   -953.51454    38.493434   -915.02111    1378.6952    7955.1379    2.2157262  0.019264553   0.10036381 
   14400   -957.05607    40.757065     -916.299    1459.7702    7928.2135    2.2173993  0.022819099  0.096074574 
   14500   -953.29275    39.578547   -913.71421      1417.56   -1690.8556     2.186619  0.074945103  0.095360266 
   14600   -949.68816    40.466768   -909.22139    1449.3729   -8669.4063    2.1602232   0.16231143   0.10472263 
   14700   -956.21668    37.821813   -918.39487    1354.6402    568.86843     2.200761  0.097766869  0.096253474 
   14800   -954.92893    39.283448   -915.64548    1406.9906    7652.8577     2.217596  0.054708586   0.10219631 
   14900   -951.55972    38.436525   -913.12319    1376.6569     5376.449    2.2001591   0.45292274   0.10119222 
   15000   -949.39308    40.332732   -909.06035    1444.5722   -5396.8905    2.1714815     0.169371   0.10499178 
   15100   -958.43113    40.165953   -918.26518    1438.5988   -2954.7569    2.1952064   0.22381329   0.10001039 
   15200    -954.7163    38.285931   -916.43037    1371.2632    2112.3955    2.2019311   0.15580167  0.084690976 
   15300   -957.58066    43.459331   -914.12132    1556.5556    160.05372    2.1994629  0.096356047  0.099643841 
   15400   -954.20434    39.994588   -914.20975    1432.4611   -1657.2558    2.1912932  0.093976926   0.10010075 
   15500   -955.44879    34.121279   -921.32751    1222.1005    1957.1773     2.206296  0.074337979  0.093775128 
   15600   -956.04751    40.069763   -915.97775    1435.1536    328.75876    2.1957684  0.081432926   0.09168321 
   15700     -956.783    42.975286   -913.80772    1539.2189   -2438.6381    2.1906843  0.044733175  0.087757459 
   15800   -955.56215     35.84092   -919.72123    1283.6918    -358.3037    2.1984754    0.0891877  0.089382826 
   15900    -956.8537    37.997993   -918.85571    1360.9503   -786.84532     2.199723  0.024390653  0.092341462 
   16000   -951.76314    37.917868   -913.84527    1358.0805     2986.137    2.1972147   0.20267288   0.10309357 
   16100   -957.57319    41.077523   -916.49567    1471.2479   -2138.8915     2.196213  0.056657893  0.089128342 
   16200   -959.39435    37.633841   -921.76051    1347.9077    905.29263    2.2076188   0.22952885  0.080672223 
   16300   -953.66282    40.099581   -913.56324    1436.2216   -2684.3465    2.1900821   0.15437992   0.10096054 
   16400   -955.36606    40.792562   -914.57349    1461.0417    614.08584    2.2002185  0.035364479  0.099422729 
   16500   -953.34009    34.825262   -918.51483    1247.3146    2522.4769    2.2051132  0.006061836   0.10145186 
   16600    -955.6815    38.244832   -917.43667    1369.7912    1517.2701    2.2030621   0.06121279   0.11267096 
   16700   -953.00386    41.112994   -911.89087    1472.5183   -720.64708    2.1884222  0.040769992  0.099891759 
   16800   -955.20424    39.576532   -915.62771    1417.4879   -1960.2259    2.1918992   0.23247529  0.096117161 
   16900   -958.00001    40.531442   -917.46857    1451.6893   -1574.6514    2.2016151  0.099059648   0.10110897 
   17000   -950.38301    41.412159   -908.97085    1483.2334    1678.7264    2.1930938   0.11804795  0.097207303 
   17100   -952.56065    38.932834   -913.62782    1394.4329    4093.7601    2.2075907  0.067134934   0.11885352 
   17200   -956.32783    39.332717   -916.99512    1408.7553   -2329.1598    2.1990403   0.16355885   0.10906617 
   17300   -953.17747    40.595536   -912.58193    1453.9849   -5334.9212    2.1803879   0.15993445    0.1044723 
   17400   -951.74821    41.359511    -910.3887    1481.3477   -2451.7204    2.1825989  0.050744436   0.10391735 
   17500     -954.229    37.629446   -916.59956    1347.7503    12057.786    2.2305429    0.1593699   0.10745145 
   17600   -953.81387    40.158539   -913.65533    1438.3332    17357.768     2.238163  0.022532151   0.11377149 
   17700   -950.64311    38.328444   -912.31467    1372.7859   -4744.2703    2.1774304  0.025272548   0.11943778 
   17800   -953.32654    33.319257   -920.00728     1193.375   -12490.405    2.1677495    0.1734199   0.10877719 
   17900   -957.82581     40.72449   -917.10132    1458.6035   -6860.6543    2.1862747    0.1411936   0.10524351 
   18000   -953.99569    41.197293   -912.79839    1475.5376    9018.2876    2.2152588   0.19138472  0.095679249 
   18100   -956.72334    38.709734   -918.01361    1386.4423     9448.404    2.2256484  0.038984016   0.10029824 
   18200   -957.23346    37.342828   -919.89063    1337.4847    -3155.529    2.1983681   0.30851479    0.1070639 
   18300   -952.93285    38.629573   -914.30328    1383.5712   -9751.9942    2.1712119   0.02210701   0.10267681 
   18400    -955.0578    39.321997   -915.73581    1408.3713   -5435.4759    2.1875563   0.19879213   0.10833017 
   18500   -958.01291    37.013853   -920.99905     1325.702    9362.8304    2.2256627  0.047998186  0.089892813 
   18600    -956.1865    43.146067   -913.04043    1545.3357    3652.7409    2.2095081  0.013097772  0.096589052 
   18700   -955.12266    40.780813   -914.34184    1460.6208   -2240.1793    2.1912149   0.21417543  0.091118221 
   18800   -956.28958    38.235334   -918.05424     1369.451   -7763.1126    2.1833757  0.067173582   0.10195074 
   18900   -954.09029    37.775563   -916.31473    1352.9837   -492.10044    2.1947833   0.11038679  0.095553554 
   19000   -955.61393    44.496141   -911.11779    1593.6904    3550.3399    2.2054621  0.023661951   0.10133747 
   19100   -952.78203    37.299407   -915.48262    1335.9295    2396.7566     2.204048  0.065089553   0.10933306 
   19200   -956.46415    38.802114   -917.66204     1389.751   -4925.8577    2.1886822  0.060122783  0.095827572 
   19300   -952.69428    43.543306   -909.15098    1559.5633   -6765.6071    2.1699709  0.086313818   0.10057018 
   19400   -955.10912    40.551803   -914.55732    1452.4185    2526.8568    2.2046299  0.012769967  0.091851923 
   19500   -953.95325    37.711001   -916.24225    1350.6713    10682.158    2.2214036   0.10191266  0.092082106 
   19600   -956.16675      43.4997   -912.66705    1558.0015    576.42085    2.1982193    0.2719975  0.091359459 
   19700   -952.73774    41.533825   -911.20391     1487.591   -13372.011    2.1555423    0.2332004   0.10546229 
   19800   -955.15393    36.728928   -918.42501     1315.497   -9889.1702    2.1728958  0.055240441  0.092274389 
   19900   -953.59917    39.309962    -914.2892    1407.9403    9830.7641      2.21531   0.16525347  0.092852128 
   20000   -954.14659    42.641612   -911.50497    1527.2679    12533.638    2.2259721  0.057079696   0.10424052 
   20100   -958.50905    38.667797   -919.84126    1384.9403    646.53567    2.2063809  0.074115293   0.10028633 
   20200   -955.42087    38.687117   -916.73375    1385.6322   -8478.5284    2.1763686   0.10980541   0.10543209 
   20300   -955.55339    42.257083   -913.29631    1513.4955   -6421.7237    2.1829574  0.049086954   0.10160936 
   20400   -956.25469    36.914854   -919.33984    1322.1562    3166.8533    2.2127515  0.050765855    0.1029226 
   20500   -956.15611    38.049606   -918.10651    1362.7989    4927.8541    2.2143179 0.0087348832  0.098212991 
   20600   -953.19452    40.147088   -913.04743    1437.9231    895.25472    2.1955464  0.021544841  0.098232858 
   20700    -952.7545    35.256698    -917.4978    1262.7671    -4415.196    2.1888163  0.058367403   0.10164605 
   20800   -953.52133    33.896037   -919.62529    1214.0331   -1413.6042    2.1952585   0.12819867  0.093842558 
   20900   -952.03761    39.703874   -912.33374    1422.0488    1736.8102    2.1966112  0.078229426   0.10556086 
   21000   -954.43077    38.955707   -915.47506    1395.2522    5778.9068    2.2115479   0.34931475  0.097206596 
   21100   -958.07036    39.189578   -918.88078    1403.6286    999.28531    2.2091749   0.22070435  0.091525305 
   21200    -950.3316    40.190596   -910.14101    1439.4814   -7002.8352    2.1723252  0.020663332   0.11240401 
   21300   -953.57055    38.776989   -914.79356    1388.8511   -2582.9732    2.1871098   0.12773103   0.10919323 
   21400   -953.95915    37.063116   -916.89603    1327.4664     7084.864    2.2159737  0.028364099   0.10799434 
   21500   -952.24058    41.733699   -910.50688    1494.7498    11520.091    2.2212582  0.050109305   0.11598211 
   21600   -954.78965     41.75989   -913.02976    1495.6878   -459.69479    2.1961819  0.022354405   0.10110842 
   21700   -954.72511    36.867139   -917.85797    1320.4472   -13193.745    2.1683644   0.11626673   0.10491201 
   21800   -955.44078    41.583554   -913.85723    1489.3721   -9089.0076    2.1787882   0.17032268   0.10673282 
   21900    -951.4472    41.902418   -909.54478    1500.7927    6610.9368     2.212356   0.19923893   0.10942803 
   22000   -957.85724    40.034813   -917.82243    1433.9018    10603.698    2.2334706   0.34694851   0.10546973 
   22100   -957.34116    41.884557    -915.4566    1500.1529   -3813.7888    2.1954546  0.013309697   0.10029453 
   22200   -953.71636    41.495905   -912.22045    1486.2328   -7742.2831    2.1743555   0.15056912  0.098499996 
   22300   -957.82574    37.429733     -920.396    1340.5973   -1369.7102    2.2033747  0.036688297   0.09524092 
   22400   -958.01514    41.913784   -916.10136    1501.1998     929.8917    2.2080304  0.087320842    0.1088292 
   22500   -958.53361    45.557858   -912.97575    1631.7172   -479.77156    2.2043592  0.062726936   0.10806374 
   22600   -952.62364    33.056402   -919.56724    1183.9604    2108.6787    2.2014491   0.10075339   0.11298984 
   22700   -951.88591    35.371186   -916.51472    1266.8676   -2681.8619    2.1856478  0.015700953   0.11251664 
   22800   -955.83848    42.981744   -912.85674    1539.4502   -3141.2555    2.1904434  0.085685089   0.10263818 
   22900   -956.73185    38.918741   -917.81311    1393.9282    3456.8175    2.2092659   0.11203854  0.090647549 
   23000   -954.40215     36.62527   -917.77689    1311.7843    4054.7117    2.2107675   0.24548521   0.10946224 
   23100   -953.25239     41.65156   -911.60083    1491.8078    -2927.423    2.1864553   0.19790108  0.094336285 
   23200   -957.01646    39.877819   -917.13864    1428.2789   -8673.7629    2.1820238  0.059202426  0.092899395 
   23300   -955.38325    39.059664   -916.32358    1398.9755   -2000.8206    2.1922973  0.037414873  0.097480394 
   23400   -954.20004    44.739085   -909.46096    1602.3918    4836.2686     2.204928  0.053596965  0.091685383 
   23500   -954.73783    38.951454   -915.78637    1395.0998    8855.6387    2.2206687  0.055891244   0.11056638 
   23600   -955.27176    38.137281   -917.13447    1365.9391   -2579.1336    2.1920033   0.14094855   0.11019555 
   23700   -951.04371    41.005183   -910.03853     1468.657   -14507.527      2.15612   0.17154153   0.12611988 
   23800   -956.18248    39.405093   -916.77739    1411.3475   -5422.0013    2.1902111  0.095271098   0.11566344 
   23900   -955.36948    38.675337   -916.69415    1385.2103    8490.6988      2.22476   0.28227146   0.10724596 
   24000   -952.88761    40.564512   -912.32309    1452.8737    8622.2344    2.2162585   0.17315263   0.10619573 
   24100   -955.83562     41.23364   -914.60198    1476.8395   -7181.3405    2.1831836   0.26874523   0.10680969 
   24200   -956.29243    36.717753   -919.57468    1315.0968   -8258.3726    2.1828839  0.019056511   0.10726774 
   24300   -952.47813    38.257934    -914.2202    1370.2605    504.73155    2.1971019  0.083674922   0.11155276 
   24400     -955.153    41.353331   -913.79967    1481.1264    3725.9952    2.2100402  0.062899087   0.10634151 
   24500   -956.31647    35.279504   -921.03697    1263.5839    4581.2458     2.218117  0.066342275  0.097344526 
   24600   -952.56033      38.1082   -914.45213    1364.8975   -2628.2798    2.1906961   0.15506854   0.10141224 
   24700   -954.38849    40.020436   -914.36805    1433.3869   -4939.9447    2.1871853  0.082018474   0.11019851 
   24800   -955.46168    35.282816   -920.17886    1263.7025    130.09859    2.2045908   0.18496453   0.11289673 
   24900   -950.11593    35.588916   -914.52701    1274.6659    6605.8054    2.2073777   0.11469423   0.11529998 
   25000    -953.7955    40.586793   -913.20871    1453.6717    2679.7097    2.2048417   0.22117116   0.10960588 
   25100   -956.24331    38.160582   -918.08273    1366.7737   -583.87873    2.1986145   0.10086448   0.10890074 
   25200   -953.17031    37.855767   -915.31455    1355.8563   -2408.0765    2.1886337  0.050608804    0.1058289 
   25300   -950.28419    38.693543   -911.59065    1385.8624    1107.9452    2.1899668  0.094329553   0.10750858 
   25400    -952.9655    36.152017   -916.81348    1294.8341    3217.6343     2.206344   0.22792538   0.10513749 
   25500   -956.41564     40.37821   -916.03743    1446.2011    3234.6249    2.2090435   0.18514303  0.091617019 
   25600   -950.08576    40.681965    -909.4038    1457.0805   -2205.6356    2.1807264   0.33760422   0.10344576 
   25700   -954.96401    38.019955   -916.94406    1361.7369   -6607.7124    2.1827206   0.02574918   0.10347108 
   25800   -953.56157    37.745634   -915.81593    1351.9117    1088.8334    2.1952127  0.024715044  0.096090795 
   25900   -953.11475     43.58549   -909.52926    1561.0742    7373.1778     2.209934   0.33021215  0.099614842 
   26000   -957.78709    41.066832   -916.72026     1470.865    6183.4091    2.2186524   0.15483074   0.10318356 
   26100   -953.52912    36.383359   -917.14576      1303.12   -4908.2833     2.184015  0.033973436   0.10915645 
   26200   -954.55928    41.531168   -913.02811    1487.4958    -11528.12    2.1638232  0.051496118   0.11604594 
   26300   -951.85044    36.950155   -914.90028    1323.4205   -890.19056    2.1920124  0.077459496   0.10980524 
   26400   -958.30593    39.165075   -919.14086     1402.751    10048.447     2.230954  0.099767949  0.099776195 
   26500   -954.69466    41.043801   -913.65086    1470.0401    6520.6566    2.2112533  0.084710941  0.097116449 
   26600   -953.99223    38.911935    -915.0803    1393.6844   -4820.0937    2.1834548  0.042289125  0.092009139 
   26700   -959.08478    37.247146   -921.83763    1334.0577   -7821.6072    2.1891848  0.074535029   0.10016928 
   26800   -954.84922    40.121141   -914.72808    1436.9938   -1155.6404    2.1941451   0.15754144   0.10141621 
   26900   -955.64552    41.637848   -914.00767    1491.3167    4390.4304    2.2098588   0.10931939  0.099155823 
   27000   -957.55448     37.82639   -919.72809    1354.8041      4136.56    2.2139736   0.15957725   0.09353372 
   27100   -955.18242    41.661709   -913.52071    1492.1713   -3882.4932    2.1870246  0.048144121  0.097444231 
   27200   -954.22157    40.710967   -913.51061    1458.1192   -4414.5547    2.1833288  0.043425435   0.10318116 
   27300   -955.09878    37.591094   -917.50768    1346.3767    205.57001    2.1971685   0.21082604   0.09900121 
   27400   -953.54642    37.735911   -915.81051    1351.5635    6668.4254    2.2091436 0.0023224673   0.10139691 
   27500   -949.46801    38.924071   -910.54393    1394.1191    3747.3025    2.1919902   0.11166264   0.10237894 
   27600   -954.52695    37.925616   -916.60133     1358.358   -3655.3335    2.1869648  0.023215317  0.088318437 
   27700   -955.47036    39.436556   -916.03381    1412.4744   -5805.5505    2.1848116   0.27933713  0.097611458 
   27800   -950.11592    41.381157   -908.73477     1482.123    1753.0973    2.1884681   0.15439822   0.10269694 
   27900   -957.58373    41.441746   -916.14198     1484.293    13194.045     2.236394  0.076351068   0.10799631 
   28000   -955.82046     39.85749   -915.96297    1427.5508      6713.92    2.2166061  0.030689956   0.10192309 
   28100   -952.18567    40.224231   -911.96144    1440.6861   -14369.618    2.1550109  0.037746941  0.099668921 
   28200   -953.37337    41.018313   -912.35506    1469.1272   -15127.639    2.1527191  0.087825674   0.10247835 
   28300   -959.78358    41.740048   -918.04354    1494.9772    3498.9577    2.2134143  0.077548807  0.086761909 
   28400   -953.03179    40.122521   -912.90927    1437.0432    12614.733    2.2276031  0.096558319   0.10911855 
   28500   -955.35375    40.922961   -914.43079     1465.712    2066.8706    2.2053256   0.24501844  0.098148316 
   28600   -955.93569    35.280685     -920.655    1263.6262   -5811.5867    2.1893916   0.12389871   0.10189369 
   28700   -954.02823    39.348465   -914.67977    1409.3193   -7514.8548    2.1778078   0.06039647  0.099502666 
   28800   -953.54161     39.91504   -913.62657     1429.612    1671.8268    2.1981548  0.097589584  0.090308374 
   28900   -958.94558    38.697655   -920.24793    1386.0096    8886.4741    2.2258752    0.1090311  0.090591472 
   29000   -949.82797    36.352541   -913.47543    1302.0162    4750.3194    2.1985989   0.20388174  0.091870642 
   29100   -953.87235     39.77344   -914.09891    1424.5404   -6609.0654    2.1808729  0.019005049  0.096720824 
   29200   -953.73997    34.643262   -919.09671     1240.796   -5332.5905    2.1861781   0.10153357   0.10285005 
   29300   -952.30412    37.869597   -914.43452    1356.3516    3190.1604    2.2012354  0.052366352   0.10475256 
   29400   -955.49675    43.534193   -911.96255    1559.2369    6939.9813    2.2142541  0.028559181  0.096455839 
   29500   -955.28408    38.182888   -917.10119    1367.5726    2678.2156    2.2038103  0.070252936  0.090380271 
   29600   -950.57043    35.941051   -914.62937    1287.2781   -5394.2368    2.1764622   0.11573167  0.098205526 
   29700   -948.68697    38.082416   -910.60456     1363.974   -6638.9623    2.1714019   0.22326397   0.11828811 
   29800   -954.99646    37.663615   -917.33285    1348.9741    4374.5276    2.2112448  0.015547655   0.10066676 
   29900   -952.52505    37.527363   -914.99768     1344.094    11094.975    2.2215607  0.047606965   0.09576621 
   30000   -950.74937    40.855807   -909.89356    1463.3069    1795.4886    2.1926425     0.193208  0.097035237 
   30100   -955.98242    38.239877   -917.74254    1369.6137   -8655.8472    2.1796217  0.096043012  0.094245525 
   30200   -956.08124    39.732767   -916.34847    1423.0836   -8878.4982    2.1763913  0.077235547  0.093072223 
   30300   -952.22377    40.695172    -911.5286    1457.5535    4663.6856    2.2022614  0.090281357   0.09053913 
   30400   -958.24114    39.633374   -918.60776    1419.5237    16691.236    2.2470996  0.057057371  0.088519411 
   30500   -956.77433    39.227846   -917.54648    1404.9992    2538.0752    2.2088213  0.064890414   0.09973193 
   30600   -953.84069    40.092139   -913.74855     1435.955   -22798.529    2.1401242   0.07824245   0.10936459 
   30700   -957.02345     42.41133   -914.61212      1519.02    -16524.83    2.1602801   0.12473875  0.094127258 
   30800   -957.20315    37.491125   -919.71202    1342.7961    7999.2366    2.2226742    0.1589384   0.09996995 
   30900   -953.92859    41.966235   -911.96235    1503.0783    6285.8235    2.2105146   0.19837618  0.085220096 
   31000   -954.30607    39.736462   -914.56961     1423.216    699.59872     2.197415   0.06203202    0.0977339 
   31100   -956.80804    37.700105   -919.10793     1350.281   -4958.3731    2.1873319   0.00244958  0.096263592 
   31200   -954.28196    42.406631   -911.87533    1518.8517   -7208.0109    2.1770177   0.15844617  0.097531391 
   31300   -954.98915    41.634669   -913.35448    1491.2028    3499.7672    2.2039982  0.035144304   0.10498146 
   31400   -955.15478    37.914613   -917.24016    1357.9639    8359.4513    2.2159151  0.085708035  0.093288819 
   31500   -952.70609    40.636079   -912.07001     1455.437    1173.8382    2.1921915   0.15870093  0.099458713 
   31600   -952.36809    39.993855   -912.37423    1432.4348   -6721.1008    2.1742153   0.28258906  0.097837509 
   31700   -952.56114    34.695467   -917.86568    1242.6658    -1843.644    2.1894893   0.38538409   0.10382355 
   31800   -954.82178    41.710915   -913.11087    1493.9337    3672.3506    2.2073153   0.10757566  0.095457076 
   31900   -951.52765    40.540694   -910.98695    1452.0206    8386.2234    2.2099171  0.038235995   0.10354218 
   32000   -955.70174    37.227735     -918.474    1333.3625   -671.81566     2.201771   0.16228934   0.10504685 
   32100   -954.38315    39.426393   -914.95675    1412.1104   -6489.0926    2.1802166  0.036554846   0.09867881 
   32200   -950.87177    38.827963   -912.04381    1390.6768   -3118.2462    2.1818046 0.0034629693   0.10712006 
   32300   -953.16446    33.003895   -920.16056    1182.0798    9311.4807    2.2239089  0.040458635   0.11047707 
   32400   -952.97168    37.632936   -915.33875    1347.8753    8659.2852    2.2170529  0.046241241   0.10142516 
   32500   -953.74058    40.139714   -913.60087     1437.659   -2166.5502    2.1886851   0.20812701  0.097769715 
   32600   -955.26231    35.249998   -920.01231    1262.5271    -9921.444    2.1796783   0.29194754    0.1101367 
   32700    -955.9758    39.444737   -916.53106    1412.7674   -5440.1688     2.188004   0.11025308   0.09720989 
   32800   -951.95948    39.732293   -912.22719    1423.0667    12849.044    2.2237494   0.20216359   0.10120385 
   32900   -955.83841    38.817684   -917.02073    1390.3087    11758.594     2.234328   0.24181781   0.10942372 
   33000   -955.08983     36.15438   -918.93545    1294.9188   -4468.8969    2.1902127  0.054204652  0.098217594 
   33100   -949.60314    38.219269   -911.38388    1368.8756   -14357.603    2.1510098  0.010529587   0.11105876 
   33200   -955.26626    38.880116   -916.38615    1392.5448   -3585.8851    2.1909115  0.065054928   0.10369979 
   33300   -953.97364    36.969902   -917.00374    1324.1278    8762.0056     2.218082   0.13540357   0.09566883 
   33400   -953.73933    43.904154   -909.83518    1572.4876    1456.6977    2.1992194   0.10554425     0.107699 
   33500   -956.95087    40.402388   -916.54848     1447.067   -2424.1503    2.1954372   0.04071744   0.10554336 
   33600   -952.64948    35.653051   -916.99643     1276.963   -3179.0965    2.1888269  0.023318306   0.11280122 
   33700   -953.44157    42.994273    -910.4473    1539.8989   -2589.4137     2.186418   0.11193418    0.1056862 
   33800   -955.73548    38.294048   -917.44143    1371.5539    5924.7391    2.2146405   0.12569249   0.08950381 
   33900   -953.91429    37.289459   -916.62484    1335.5732    5006.2602    2.2121742   0.30831527   0.10510338 
   34000   -952.09278    40.353609   -911.73917    1445.3199   -2845.9225    2.1888329  0.018061589   0.10120435 
   34100   -956.41558    38.066771   -918.34881    1363.4137   -6906.7077    2.1879525    0.0399973   0.10675591 
   34200    -956.4946    39.143358   -917.35124    1401.9731   -1641.9331    2.1998762  0.062340233   0.10402353 
   34300   -951.83262    40.166961   -911.66566    1438.6349     6625.873    2.2136285    0.1539581  0.099353639 
   34400   -957.76422    40.064986   -917.69923    1434.9825    6114.0991    2.2200582   0.10111416  0.093319351 
   34500   -958.76724    40.702426   -918.06482    1457.8133    -7358.063     2.188798   0.20619667  0.093424507 
   34600   -953.77226    41.211195   -912.56107    1476.0356   -12248.932    2.1647067  0.019037751    0.1103125 
   34700   -954.71339     36.94836   -917.76503    1323.3563    36.713401    2.2007379  0.021941002   0.12204723 
   34800    -957.5609     40.21228   -917.34862     1440.258    10683.351    2.2341873   0.07846644   0.10353759 
   34900    -952.7828    42.040926   -910.74188    1505.7535    7140.4675    2.2118154  0.093793105  0.099328658 
   35000   -955.12769    38.130392    -916.9973    1365.6924    -7020.568    2.1843249  0.047784751  0.098376292 
   35100   -954.77765    37.633892   -917.14376    1347.9095   -8450.6129    2.1780862  0.038798634  0.099931546 
   35200   -952.45154    41.974102   -910.47743    1503.3601   -1310.6478    2.1868461  0.067815389   0.10360558 
   35300   -956.69941     39.81755   -916.88186    1426.1202     3471.055    2.2133871  0.068171014  0.098719557 
   35400    -953.8664    36.972614   -916.89379     1324.225    3889.1616    2.2069914  0.035195472  0.096368203 
   35500   -949.95643    39.205966   -910.75047    1404.2155   -3349.4815    2.1808216 0.0031759473   0.10581099 
   35600    -954.9464    37.094702   -917.85169    1328.5977    -1826.642    2.1950314   0.04571782   0.10585793 
   35700   -953.96974    37.418389   -916.55135     1340.191    1517.7783    2.2022409  0.067881873   0.10513938 
   35800   -953.00725    41.828142   -911.17911    1498.1324    1469.8851    2.1996116   0.10948258    0.1219949 
   35900   -955.79406    37.436021   -918.35804    1340.8225    2597.6736    2.2082793  0.039014128   0.10433832 
   36000   -956.38802    39.793279   -916.59474    1425.2509   -4363.3361    2.1914976  0.063925523   0.10087592 
   36100   -951.01194    38.752788   -912.25915    1387.9843   -5558.2946     2.182842   0.18729665    0.1171612 
   36200    -954.2649     35.10077   -919.16413    1257.1823    3327.9602    2.2101313  0.038989715  0.096584504 
   36300    -955.8088    39.300886   -916.50791    1407.6152    6739.1744    2.2196106  0.016727188   0.10978146 
   36400   -950.00253    38.053454   -911.94907    1362.9367     5022.983    2.2048251  0.048185391   0.11922205 
   36500   -953.35324    34.885057   -918.46818    1249.4562   -5708.5338    2.1842706   0.16214124   0.09762952 
   36600   -952.04453    35.725225    -916.3193     1279.548   -10050.778    2.1734039   0.11344099  0.097157457 
   36700     -953.524    41.681998     -911.842     1492.898    999.61832    2.1991152   0.15963786   0.10424114 
   36800   -957.75676    40.914885   -916.84188    1465.4228    13181.929    2.2358597  0.023847714   0.10141349 
   36900    -956.6024     39.22017   -917.38223    1404.7243    5123.1338    2.2140785   0.16297508    0.1103736 
   37000   -951.11553    39.819926    -911.2956    1426.2053   -9606.8607    2.1666903  0.033328141    0.1111962 
   37100   -956.96458    39.048383    -917.9162    1398.5715   -7924.4785    2.1833823   0.10516379  0.084174061 
   37200   -955.06932    38.788039   -916.28128    1389.2469    2276.8007    2.2079017   0.22733861   0.10045914 
   37300   -953.92351    43.604416   -910.31909     1561.752    4130.8773    2.2065296    0.1571829   0.10859126 
   37400   -956.52347    38.901659   -917.62181    1393.3163    1413.2298    2.2079703 0.0013938839   0.10486074 
   37500   -951.49527    35.338476   -916.15679     1265.696   -2176.1252    2.1882197   0.20695882   0.10673245 
   37600   -951.62678    40.425089   -911.20169    1447.8801   -3375.5457    2.1787041  0.045270409  0.099266573 
   37700   -955.89015    37.170507   -918.71965    1331.3128    1961.8421    2.2060227   0.12950321  0.089152811 
   37800   -956.96193    41.227436   -915.73449    1476.6172    2570.5989    2.2075478  0.093411476  0.095956871 
   37900   -952.80446    40.970686   -911.83377    1467.4214    973.34166     2.195542  0.062120648   0.11191725 
   38000   -956.21291    36.852682   -919.36023    1319.9294   -3770.2871    2.1980683   0.16174287   0.10060878 
   38100   -955.03902    39.568275   -915.47075    1417.1921   -4817.9932    2.1853323  0.057109626   0.10107326 
   38200   -956.14105    43.764896   -912.37616    1567.4999   -2863.1407    2.1925061  0.062897359   0.10105903 
   38300   -955.47742    36.539734   -918.93768    1308.7208    8209.5213      2.22304  0.098556707    0.1061103 
   38400   -955.68309    40.840771   -914.84232    1462.7683    4547.2478    2.2112754  0.073069073   0.10363191 
   38500   -949.85277    36.892353   -912.96041    1321.3503   -5880.7758    2.1741298  0.038635996     0.115186 
   38600   -955.32657    36.282923   -919.04364    1299.5227   -13330.925    2.1655043   0.27414449   0.10115558 
   38700   -955.33412    40.381457   -914.95266    1446.3173   -983.75598    2.1938569   0.10143477  0.093114406 
   38800   -950.81169    40.618745   -910.19295    1454.8161    16648.416    2.2277643  0.058917707   0.10341672 
   38900   -957.40763    40.251076   -917.15656    1441.6476    8486.8099    2.2209586   0.14677317  0.098031727 
   39000   -954.58108    39.206517   -915.37456    1404.2353   -6047.2332    2.1818873   0.28687844   0.10070824 
   39100   -948.99827    37.979603   -911.01867    1360.2916   -8641.4362    2.1664161  0.053030265   0.11201292 
   39200   -957.03632    38.510786   -918.52553    1379.3167   -101.60012    2.2023298  0.065359393   0.10140042 
   39300   -956.64839    41.717381   -914.93101    1494.1653    5716.4539    2.2131269  0.086833865  0.094158151 
   39400   -951.45777     40.31075   -911.14702    1443.7849    2161.0017    2.1950241   0.12886895   0.11011904 
   39500   -956.36326    37.299772   -919.06349    1335.9426    -3663.258    2.1927494  0.024855835  0.097506629 
   39600   -953.57827    37.750081   -915.82819     1352.071    -3844.891    2.1826778  0.059170537  0.097265328 
   39700   -955.15433    42.939921   -912.21441    1537.9522   -1302.7247    2.1893091  0.096846936   0.10357325 
   39800   -958.46821    38.973128   -919.49508    1395.8761    5673.5125    2.2194685  0.098315581   0.09246922 
   39900   -955.47597    39.791956   -915.68402    1425.2036    1383.1277    2.2047335   0.15155953  0.085466382 
   40000   -952.21362    39.121067   -913.09256    1401.1747   -3347.7341    2.1830295   0.22516117   0.10297263 
   40100   -956.98737    37.561929   -919.42544    1345.3321   -5799.6423    2.1878306  0.090816239   0.10762705 
   40200   -954.27783    38.740432    -915.5374    1387.5418    1100.2354    2.1975174   0.14138478  0.099504684 
   40300   -953.53409    41.656566   -911.87753    1491.9871    10397.112    2.2217968  0.060781865   0.10219571 
   40400   -955.60135    38.062115   -917.53923    1363.2469    7386.2895    2.2172594  0.033876718   0.10379578 
   40500   -952.53033    37.394263   -915.13607    1339.3269   -9459.6978    2.1694081   0.29077868   0.11562241 
   40600   -950.99071     39.53963   -911.45108    1416.1661   -14846.759     2.152826  0.030767707   0.11519323 
   40700   -957.05483    39.736542   -917.31829    1423.2188    1191.4273    2.2051658   0.17758456   0.10128489 
   40800   -953.29997    37.740369    -915.5596    1351.7232     14154.55    2.2302252   0.35477764  0.099404942 
   40900   -953.49194    43.240427   -910.25151    1548.7153     2709.679    2.1984617   0.25166326  0.088718194 
   41000   -957.02824    39.248156   -917.78009    1405.7266   -5022.4248    2.1884415  0.043244568   0.10307426 
   41100   -953.28095    37.027487   -916.25346    1326.1903   -4844.4007    2.1838817   0.30754457   0.10009316 
   41200   -951.02641    40.294444   -910.73196    1443.2009    899.56157    2.1917618  0.057710819   0.10738664 
   41300   -958.83455    40.277532   -918.55702    1442.5951    4786.6828    2.2186955 0.0046680949   0.10563098 
   41400   -954.79554    38.344618   -916.45092    1373.3652    1155.8514    2.2027396  0.079948921  0.098837705 
   41500   -951.03011    38.507464   -912.52265    1379.1977   -2832.5715     2.181007   0.30533028   0.10642133 
   41600   -955.60527    36.078491   -919.52678    1292.2007   -2176.3128    2.1926574  0.019465429    0.1030149 
   41700   -954.21885    37.322513   -916.89634     1336.757    1601.3136    2.2019025  0.056591612  0.098889476 
   41800   -951.58284    39.425512   -912.15733    1412.0789    7324.0377    2.2072609  0.037302863   0.10231177 
   41900   -955.91755    37.602784   -918.31476    1346.7954    3354.4816    2.2093317   0.03387796  0.096503548 
   42000   -955.78817     37.98891   -917.79926     1360.625   -7302.7252    2.1826421  0.031171321   0.09869462 
   42100   -947.94837    35.317118   -912.63126    1264.9311   -6104.2694    2.1671226   0.13921927   0.11881554 
   42200   -954.62847    37.434908   -917.19356    1340.7827    2858.7069    2.2052638   0.12621483  0.097718988 
   42300    -951.2886    34.197601   -917.09099    1224.8341    18571.239    2.2419223    0.2060249   0.11776592 
   42400   -951.88791     41.91465   -909.97326    1501.2308    5642.7455    2.2043976   0.08109779    0.1061203 
   42500   -954.84881    38.861092   -915.98772    1391.8634   -12972.975    2.1660071   0.12399198  0.091102928 
   42600   -951.50502    34.470418   -917.03461    1234.6053   -9808.9052    2.1725092  0.076020186   0.12039988 
   42700   -950.25032    40.430152   -909.82017    1448.0614    3553.1915    2.1963566   0.25693468   0.11063977 
   42800   -952.48536     37.21706    -915.2683    1332.9801    10462.669    2.2179239  0.074368533   0.10022444 
   42900   -957.22179    39.901764   -917.32003    1429.1365    1541.2445    2.2045868   0.27831893   0.10545999 
   43000   -949.72582    37.698679   -912.02714      1350.23   -4958.0974    2.1786645   0.13525835   0.11174423 
   43100   -953.98411    39.639251   -914.34485    1419.7342   -5644.3708    2.1824654   0.14301837   0.10256472 
   43200   -958.24171    39.969004    -918.2727    1431.5448    1307.8909    2.2070165  0.046528003  0.091369577 
   43300   -953.19186    40.376098   -912.81577    1446.1254    7711.8747    2.2118441  0.081269206   0.10485793 
   43400   -954.08507    39.186666    -914.8984    1403.5243    1637.7937    2.2027934  0.089378056   0.11031766 
   43500   -952.86616    32.777514   -920.08864    1173.9717   -2314.6159    2.1934688   0.15997212   0.10440793 
   43600   -952.09599     38.13745   -913.95854    1365.9452    -3447.757    2.1829823  0.057025444   0.10180125 
   43700   -953.33445    39.023684   -914.31076    1397.6869    3119.8884    2.2021707   0.19578127  0.094561442 
   43800    -959.9968     39.65875   -920.33805    1420.4326    8308.6444    2.2272825   0.12463849   0.10049476 
   43900   -952.74608    39.895429   -912.85065    1428.9096     2087.676    2.1969312   0.07367255    0.1101489 
   44000   -951.90909    37.279577   -914.62951    1335.2192   -7374.8941    2.1738922   0.20995254   0.10868579 
   44100   -955.66504     36.15783   -919.50721    1295.0423   -7680.7222     2.179774  0.099447058  0.098743342 
   44200   -951.80851    37.750937   -914.05757    1352.1017    9710.1205    2.2113468   0.23803635   0.10081597 
   44300   -951.63247    39.906802   -911.72567    1429.3169    18437.803    2.2353029  0.037217144   0.10909376 
   44400   -953.79091    36.507927   -917.28299    1307.5815    3576.3909    2.2042889   0.09756566   0.10246431 
   44500   -953.81934    39.593939   -914.22541    1418.1113   -12071.913    2.1627949   0.08481524   0.12466082 
   44600   -948.55897    38.083423   -910.47555    1364.0101   -6201.3898    2.1713964  0.060400046   0.10797758 
   44700   -957.52932    40.464148   -917.06517     1449.279    3397.5899    2.2104836   0.12312312  0.097267363 
   44800   -956.44985    41.335703   -915.11415     1480.495    6478.9045    2.2133698   0.25945171  0.097124909 
   44900   -951.90657    42.235342   -909.67123    1512.7168   -1799.4725    2.1867914   0.36329678   0.10287802 
   45000   -955.07953    37.363145   -917.71639    1338.2123   -3835.2688    2.1878214   0.21116255   0.10688245 
   45100   -954.12796    38.051389   -916.07657    1362.8628   -3002.9605    2.1893004  0.035239943   0.10486011 
   45200   -948.38576    37.290138   -911.09562    1335.5975    3022.3833    2.1957222   0.16363851   0.11312874 
   45300   -957.05555     38.40452   -918.65103    1375.5106    5090.9969    2.2166613  0.041136967  0.099917751 
   45400    -957.4401    40.238279   -917.20182    1441.1892   -5117.8994    2.1947492   0.16509167   0.10647907 
   45500   -951.66176    38.508962   -913.15279    1379.2514   -5275.8292    2.1770926   0.13912964   0.10819639 
   45600   -957.03164    38.749502   -918.28214    1387.8666   -3220.3045    2.1941838  0.040162349   0.11207527 
   45700   -957.73893    39.089568   -918.64936    1400.0466    5751.1559    2.2201915  0.094889428    0.1050628 
   45800   -956.39932    43.841202   -912.55812    1570.2329    6315.9544    2.2154851  0.087573423  0.092932803 
   45900   -954.84635    37.863683   -916.98266    1356.1398   -2937.3933    2.1906574  0.060264333   0.10536538 
   46000   -954.25808    34.028831   -920.22925    1218.7893   -11981.168    2.1701418    0.1497397   0.10381889 
   46100   -950.84128    38.122736   -912.71855    1365.4181   -5865.2927    2.1767701  0.022677515   0.11675558 
   46200   -953.43477    38.684438   -914.75034    1385.5363    12204.635    2.2255043   0.05272186   0.10537498 
   46300   -955.09863    37.102803   -917.99582    1328.8878     12578.46    2.2335621  0.075260363   0.10478424 
   46400    -949.4768     39.43285   -910.04395    1412.3417    -2614.003    2.1823264   0.13940111   0.12602135 
   46500     -954.123    39.363302    -914.7597    1409.8507   -6846.9393    2.1788805   0.06150316   0.11583284 
   46600   -954.54328    37.434225   -917.10905    1340.7582   -57.679376    2.1957536  0.083747527   0.10764109 
   46700   -949.86829    39.365261   -910.50303    1409.9209    4740.2969     2.200371   0.15232476   0.11686137 
   46800   -953.57759    39.521158   -914.05643    1415.5045    1990.9609    2.2032913    0.1052292   0.10927348 
   46900   -954.13143    36.565404   -917.56602    1309.6402   -430.72115    2.1955087  0.021376776   0.10449846 
   47000    -953.2205    40.528019   -912.69248    1451.5667   -3699.5989     2.184414   0.19556917   0.10464098 
   47100   -950.22886    37.778822   -912.45003    1353.1004    300.41754       2.1912  0.082291493   0.09637306 
   47200   -956.92507    38.409226   -918.51584    1375.6792    5182.1598    2.2139658  0.086803159  0.091629486 
   47300     -956.079    42.101183   -913.97782    1507.9117    3115.0606    2.2064539 0.0028095496   0.10063509 
   47400   -953.03732    39.150697   -913.88663     1402.236   -2497.6578    2.1881766  0.014174841   0.10181851 
   47500   -957.04943    36.029069   -921.02036    1290.4306   -3532.2129    2.1928386  0.039861758  0.097808411 
   47600   -956.40428    41.446284   -914.95799    1484.4556   -3067.0558    2.1926692  0.043430869  0.097278457 
   47700   -952.43972    38.852337   -913.58739    1391.5498    5587.9394      2.20841   0.10447247   0.11412222 
   47800   -958.11038    37.499636   -920.61074     1343.101    6098.6415    2.2211759   0.24038944   0.10773546 
   47900   -953.22173    38.771381   -914.45035    1388.6503   -2859.5289    2.1850587  0.096680495   0.10179119 
   48000   -953.32609    39.393922   -913.93217    1410.9474   -9384.2734    2.1714204   0.04702486  0.098967249 
   48100   -954.85877    36.680443   -918.17833    1313.7604   -1810.6703    2.1955356  0.037776809  0.089887276 
   48200   -953.40415    36.309539   -917.09461     1300.476     14451.27    2.2294015  0.047431188  0.096963043 
   48300   -952.80689    41.791434   -911.01546    1496.8176    6464.3228    2.2079584     0.058429   0.10071166 
   48400   -954.74986    38.225183   -916.52468    1369.0874   -7610.4146    2.1798263  0.029175956   0.10106465 
   48500   -956.47289    39.419111   -917.05377    1411.8496    -12013.65    2.1731385  0.050311284   0.10402265 
   48600   -951.48581    42.205314    -909.2805    1511.6413   -642.52133    2.1863902   0.12477378   0.10630898 
   48700   -957.41116    42.092327   -915.31883    1507.5945    8317.9045    2.2213881  0.054665931   0.10153391 
   48800   -953.41258    36.461396   -916.95118     1305.915    5662.9988    2.2113372  0.026927897   0.10885398 
   48900   -948.71097    38.165491   -910.54548    1366.9495   -1536.3441    2.1807228  0.063057278   0.11263728 
   49000   -952.49853    36.820999   -915.67753    1318.7947   -4728.7981    2.1857852   0.07039571   0.11471366 
   49100    -954.7716     37.42429   -917.34731    1340.4024   -485.57771    2.1989947   0.19055369    0.0989128 
   49200   -954.92365    42.699232   -912.22441    1529.3316    2690.4494    2.2018294  0.073407015  0.089356353 
   49300   -955.37847    40.343166   -915.03531    1444.9459     2064.866    2.2030643  0.032278042  0.091489265 
   49400   -958.91061    39.962421   -918.94819     1431.309   -3311.2161    2.1993405   0.11605197   0.09419274 
   49500   -951.76604    37.948552   -913.81749    1359.1795   -2615.8752    2.1871492  0.099217668   0.10392777 
   49600   -952.81176    38.857835   -913.95392    1391.7467    1131.2493      2.19507  0.070601038   0.10230548 
   49700   -955.94003    35.719842   -920.22018    1279.3552     6427.299    2.2185814  0.082373342   0.10304389 
   49800   -950.49954    36.978449    -913.5211    1324.4339    4432.3948    2.2038717  0.071259782   0.10733839 
   49900   -954.71926    39.899952   -914.81931    1429.0716   -6615.3286    2.1822236   0.21711202   0.10911935 
   50000     -958.018    36.923106   -921.09489    1322.4518   -9614.4423    2.1815711  0.096944886    0.0931949 
   50100   -956.60589    42.191791    -914.4141    1511.1569   -1422.5615    2.1982013 0.0062444645   0.10312108 
   50200   -953.68092    40.529811   -913.15111    1451.6309    14930.288    2.2352142  0.055375459   0.11434121 
   50300   -954.75259     36.13709    -918.6155    1294.2995    10505.541    2.2252722  0.036764681  0.097442206 
   50400   -954.99642    43.285888   -911.71053    1550.3435   -11222.468    2.1708731   0.24269665  0.096001389 
   50500   -955.22485      41.9203   -913.30455    1501.4331   -11733.915     2.169439  0.084098323   0.10351592 
   50600   -953.53544    36.295465   -917.23997    1299.9719    2504.6176    2.2037622   0.32110333    0.1051582 
   50700   -954.71579    40.567031   -914.14876    1452.9639    9373.0065    2.2189171   0.19743883  0.099184255 
   50800   -952.90786    42.400923   -910.50694    1518.6473    1361.1632    2.1955011  0.010942214   0.10289525 
   50900   -956.32557    38.896466    -917.4291    1393.1303   -5691.0695     2.187828   0.16305258  0.093150506 
   51000     -956.108    40.956561   -915.15144    1466.9155   -5361.5811    2.1854708  0.077199833   0.10003925 
   51100   -950.51646    41.231182   -909.28528    1476.7514    1620.5046    2.1898626  0.038083437   0.10793713 
   51200   -956.65505    38.967629   -917.68743    1395.6792     6336.602    2.2158361  0.047934738  0.099196963 
   51300   -955.57802    39.434429   -916.14359    1412.3982    502.03853     2.199209   0.11228849   0.11509773 
   51400   -951.00827    38.783828   -912.22444    1389.0961   -5895.5019    2.1749038  0.062700679   0.10932135 
   51500   -956.68469    37.253503   -919.43119    1334.2854   -4933.1089    2.1912683  0.050826141   0.09525142 
   51600   -954.23737    36.491883   -917.74549    1307.0069    4210.9652    2.2028532  0.044552499  0.095838725 
   51700   -953.66313    40.681549   -912.98158    1457.0656    6022.5545    2.2084677  0.034677586  0.096749725 
   51800   -954.98085    37.841305   -917.13955    1355.3383    2426.3272    2.2041051   0.21112228   0.10266011 
   51900   -956.58646    35.930385   -920.65608    1286.8961   -9682.2737    2.1804855   0.10993869   0.09883557 
   52000   -952.43355    38.081678   -914.35188    1363.9476    -9993.431    2.1642271  0.068735214  0.096794051 
   52100   -955.56585    41.071675   -914.49417    1471.0385    7177.7526     2.213553  0.017162401  0.091999236 
   52200   -959.02937    40.406307   -918.62306    1447.2074    19316.351    2.2531415  0.075558942  0.089819024 
   52300   -953.10311    42.231553   -910.87156    1512.5811    3390.5301    2.1959998   0.17968705   0.10699199 
   52400     -953.789     40.11079   -913.67821     1436.623   -10784.443    2.1665718  0.092666459   0.10764414 
   52500   -957.02159    39.386724   -917.63487    1410.6896   -9596.9801    2.1820431  0.094580939   0.10019529 
   52600   -951.60586    36.878854     -914.727    1320.8668    7529.2207    2.2096561   0.01024636   0.10917201 
   52700   -952.73692    42.348728   -910.38819    1516.7778    5464.5644    2.2067996   0.19853764  0.086136011 
   52800   -955.52173    38.886117   -916.63561    1392.7597   -1207.7333    2.1977991   0.23465864  0.090597808 
   52900   -955.47755    39.936535   -915.54101    1430.3818   -6728.9246    2.1822929  0.016102879  0.096598267 
   53000   -950.11216    40.983827   -909.12833     1467.892   -3367.6522    2.1759998   0.22492393   0.11073062 
   53100   -955.13371    37.817737   -917.31597    1354.4942    5383.1867    2.2145311  0.075842045  0.098828245 
   53200   -955.79878    40.114247   -915.68454    1436.7469    6448.5285    2.2148295   0.11534773  0.093725854 
   53300   -952.97829    41.589167   -911.38913    1489.5731   -1464.3173    2.1869994  0.040849376   0.10420295 
   53400   -953.05914    35.070372   -917.98877    1256.0935   -6736.5968    2.1808567   0.11199162   0.10626219 
   53500   -955.98708    38.237105   -917.74997    1369.5144   -6539.6637    2.1873313   0.11256007   0.10925323 
   53600   -951.44829     38.78049    -912.6678    1388.9765    8165.4825    2.2110728   0.18869872    0.1062989 
   53700   -956.25277    38.746737   -917.50603    1387.7676    10075.539    2.2284972  0.038801455   0.10427012 
   53800   -955.32758    35.768194   -919.55938     1281.087   -314.43165    2.2042978  0.065213294  0.098668409 
   53900   -954.00335    40.283179   -913.72017    1442.7974   -12436.652    2.1691935      0.16505   0.11156898 
   54000   -956.64108     40.89613   -915.74495    1464.7511    -9954.259    2.1799534   0.12264349   0.10171001 
   54100   -954.75455    34.539115   -920.21543    1237.0658     10972.01    2.2272081  0.053990229  0.097271567 
   54200   -954.37785    42.307125   -912.07072    1515.2878    7890.4557    2.2165432  0.091290492  0.099976653 
   54300   -955.88254    41.313483   -914.56906    1479.6991   -244.21865    2.1971718   0.25924436  0.099185499 
   54400   -955.55774    36.818208   -918.73954    1318.6947   -4607.1855    2.1926991   0.15654848    0.1044956 
   54500   -953.08462    38.594962   -914.48966    1382.3316   -936.33095    2.1964536  0.028356469   0.10227857 
   54600   -957.05142    44.817218    -912.2342    1605.1902   -659.81731    2.2003808   0.24993486    0.1001714 
   54700   -954.12142    37.549691   -916.57173    1344.8938    2311.6297    2.2051923  0.099009748   0.09953165 
   54800   -955.43138    38.338861   -917.09251     1373.159   -2282.3293     2.199205  0.080009785   0.10293692 
   54900   -950.57418    41.028459   -909.54572    1469.4906   -5602.2801    2.1753329  0.072282371   0.11637306 
   55000   -952.90492    36.641575   -916.26335    1312.3683     1495.084    2.1982576   0.31370085  0.090540652 
   55100   -954.35562    38.291014    -916.0646    1371.4453    5421.8954    2.2112458   0.10424142  0.099786267 
   55200   -954.04877    44.979451   -909.06932    1611.0008    1258.1078    2.1952943  0.031035309   0.10007445 
   55300   -954.14793     38.22391   -915.92402    1369.0418   -1054.0749     2.193487  0.032865422  0.089911836 
   55400   -954.54747    37.710437   -916.83703    1350.6511   -5465.9907    2.1847119     0.069589   0.10474885 
   55500   -953.19083    41.398114   -911.79272    1482.7303   -1872.1758    2.1882779   0.11118686  0.095420966 
   55600   -953.77927     37.95006   -915.82921    1359.2335    5711.3769     2.209437   0.13589956  0.093785809 
   55700   -956.42304    38.085813   -918.33723    1364.0957    2548.9059    2.2111875  0.038357091  0.094889427 
   55800   -953.94737    39.849731   -914.09764    1427.2728   -1541.3316    2.1907378   0.19094493   0.10487089 
   55900   -956.80816    42.935419   -913.87274     1537.791    -9393.219    2.1778513   0.14711806   0.11044565 
   56000   -957.98348     37.04971   -920.93377    1326.9862    630.69524    2.2058952    0.2284798  0.091498186 
   56100   -953.58353     39.12887   -914.45466    1401.4542    6298.7944    2.2143383   0.10581812    0.1023656 
   56200    -952.8756    38.894153   -913.98144    1393.0475    5391.7011     2.209512   0.30491106   0.11438621 
   56300   -955.24432    34.476403   -920.76791    1234.8197   -3104.1257     2.192629   0.10616032   0.10065866 
   56400   -951.48646    37.060637   -914.42582    1327.3776   -9100.1138    2.1689202  0.023261548   0.10836389 
   56500   -954.93437     41.26123   -913.67314    1477.8276     -1097.48    2.1950369   0.15009274  0.092949807 
   56600    -952.3935    35.111477   -917.28202    1257.5658    13451.832    2.2291069   0.15879193  0.091177598 
   56700   -957.58446    40.129562    -917.4549    1437.2954    4853.9896    2.2172771   0.27312303  0.094745809 
   56800    -952.2968    41.150692   -911.14611    1473.8686   -9598.6352    2.1694143   0.10044344  0.099027125 
   56900   -955.82924     39.20885   -916.62039    1404.3188   -8656.1186    2.1745929   0.16226823  0.097647978 
   57000   -954.99345    39.154362   -915.83909    1402.3673    1072.1013    2.2016187   0.04843213   0.11404208 
   57100   -952.86006    44.455093   -908.40497    1592.2202    3578.8348    2.2008786   0.10452834   0.10763615 
   57200   -956.84578    41.066541   -915.77924    1470.8546    2887.0866    2.2076301   0.19682632  0.096587632 
   57300   -956.77031    40.079212    -916.6911     1435.492   -4297.9528    2.1914267   0.20502019   0.10233099 
   57400   -950.10407    39.646102   -910.45797    1419.9796   -4462.7363    2.1784499   0.12782279   0.10701506 
   57500   -956.85212    41.138864   -915.71325    1473.4449   -444.50138    2.2000267  0.047335838   0.10179545 
   57600   -957.89813    40.715915   -917.18222    1458.2964    1581.1962    2.2088045   0.16916116  0.095550298 
   57700   -952.28465    39.217042   -913.06761    1404.6122    3270.4384    2.2004148   0.23866012    0.1035128 
   57800   -954.62823    41.543731    -913.0845    1487.9458   -3287.3098    2.1906737  0.065552452   0.10053765 
   57900   -953.27282    33.960347   -919.31247    1216.3365     1121.831    2.1997857   0.14913167  0.087859107 
   58000   -957.61875    42.968327   -914.65043    1538.9697    679.33435    2.2008175  0.070820224  0.090773873 
   58100   -957.26027     44.09291   -913.16736    1579.2481    812.57462    2.2032102   0.26659968   0.10394325 
   58200    -959.4718    38.439865   -921.03194    1376.7766    78.203525    2.2073077   0.15997566   0.10353066 
   58300   -954.49704     39.00221   -915.49483    1396.9177   -9572.1907    2.1747389  0.010270116   0.12003928 
   58400   -953.95581    39.968709   -913.98711    1431.5342   -7513.8138    2.1801368  0.014845177   0.09747323 
   58500    -953.7639     34.77327   -918.99063    1245.4524    10603.017     2.225154 0.0050949868  0.091386243 
   58600    -957.2382    39.266417   -917.97178    1406.3807    12063.336    2.2349886  0.046411122   0.10164456 
   58700    -951.5487    38.426649   -913.12205    1376.3032    -892.2394    2.1925113    0.1275221   0.11134384 
   58800   -954.51803    37.507399   -917.01063     1343.379   -10560.577    2.1687049   0.23928003   0.10116157 
   58900   -956.58818    38.483507   -918.10468    1378.3397   -5863.2523    2.1869388   0.34828106   0.09591742 
   59000   -951.23345    40.703316   -910.53014    1457.8452    4135.8188    2.1982912  0.087418588  0.096347111 
   59100   -953.82573     38.90797   -914.91776    1393.5424    7997.5961    2.2121996   0.40167908  0.097051126 
   59200     -953.235    35.799417   -917.43559    1282.2053    2924.7904    2.2019984  0.086132786   0.10021658 
   59300   -950.33071    41.071144   -909.25956    1471.0194   -5794.9212    2.1685385  0.090276814   0.11783679 
   59400   -956.02607    42.194611   -913.83146    1511.2579   -4019.2662     2.187617  0.033511286   0.09422128 
   59500   -955.41219    38.914751   -916.49744    1393.7852    3682.6453    2.2051037   0.10252841   0.10227211 
   59600   -957.98295    44.544711   -913.43824      1595.43    1149.2878    2.2034229  0.047351882  0.091753918 
   59700   -951.45722    42.083919    -909.3733    1507.2933    -2414.294    2.1801393  0.091408366   0.10248614 
   59800   -953.64796        36.35   -917.29796    1301.9252   -739.50823      2.19072   0.10591285  0.099738916 
   59900   -955.22648    39.910437   -915.31604    1429.4471    658.73238    2.1984709   0.12374758  0.094811461 
   60000   -955.23512    44.307327    -910.9278    1586.9278    2753.6727    2.2015667   0.18132219    0.0950943 
   60100   -957.47769    41.929967   -915.54772    1501.7794   -2173.2884    2.1975315  0.095003095  0.098767041 
   60200   -955.79884    38.062644    -917.7362    1363.2659   -11007.093    2.1737388  0.048931923   0.10602358 
   60300   -955.50212    40.121153   -915.38097    1436.9942   -7304.9835    2.1805144    0.1845177  0.094884029 
   60400   -952.28191    40.975005    -911.3069    1467.5761    11749.296    2.2245432  0.029907127   0.11676228 
   60500   -955.77506    37.013824   -918.76124     1325.701    16043.233    2.2404624  0.022513623  0.094454804 
   60600   -956.65822    38.582252   -918.07597    1381.8763   -5556.5382    2.1896708  0.077963146  0.093501633 
   60700   -954.06637    39.649033   -914.41734    1420.0846   -12296.582    2.1669701  0.037376128   0.10643949 
   60800   -951.90893    37.976524   -913.93241    1360.1814   -1786.4566    2.1903498  0.064142583   0.10685741 
   60900   -957.92892    36.363668   -921.56525    1302.4147    10286.345    2.2340086  0.037976901   0.10841885 
   61000   -954.33894    39.596933     -914.742    1418.2185    5076.0977    2.2115314  0.084439641  0.096777333 
   61100   -951.22761      36.8452   -914.38241    1319.6614    -3346.618    2.1858974  0.038942848   0.10768498 
   61200    -957.0396    37.981757   -919.05784    1360.3688   -7669.3529    2.1830378  0.076010528  0.094803404 
   61300   -955.90495    37.047603   -918.85735    1326.9108    527.07976    2.2025111   0.21546344    0.1060708 
   61400   -954.39849    41.308969   -913.08953    1479.5375     5641.489     2.210225  0.048934321  0.092718824 
   61500   -953.59428     37.69714   -915.89714    1350.1748    3590.0835    2.2054021  0.094492416  0.094052834 
   61600   -955.37314    35.549782   -919.82336    1273.2643   -4888.9523    2.1922251   0.15276728  0.091421458 
   61700   -954.58036    39.288367   -915.29199    1407.1668   -4706.5537    2.1869074   0.10584463  0.076453407 
   61800   -953.17373    40.312531    -912.8612    1443.8487    4003.8709    2.2054055  0.061261316   0.10626744 
   61900   -955.01911    39.955591   -915.06352    1431.0644     5815.443    2.2131127  0.029867144   0.10851724 
   62000   -955.54514    37.949965   -917.59518    1359.2301   -1386.8739    2.1974304  0.031084929  0.099706745 
   62100   -948.90689    39.515837   -909.39106     1415.314   -7452.6902    2.1668099   0.14873002   0.10727151 
   62200     -951.401    39.196201    -912.2048    1403.8658    41.162876    2.1917503   0.25940171  0.099335047 
   62300    -953.4332    38.080329   -915.35287    1363.8993     14531.92    2.2325075  0.078383925  0.097447733 
   62400   -955.98181    40.095179   -915.88664    1436.0639      11076.8    2.2278874  0.041521069   0.10199733 
   62500   -947.14548    38.830679    -908.3148    1390.7741   -8985.2162    2.1590223 0.0099948019   0.11379202 
   62600   -954.04489    38.767287    -915.2776    1388.5036   -13460.008    2.1634625  0.095687732  0.095141519 
   62700   -954.57394    38.327733   -916.24621    1372.7604   -1243.7984    2.1995446   0.12382443   0.10102676 
   62800   -951.47314    38.349741    -913.1234    1373.5486    9973.8543    2.2164782   0.28802384  0.081557232 
   62900   -951.25863    42.866344   -908.39229     1535.317    4947.6878    2.1956342  0.028891464  0.091706421 
   63000   -953.63839    36.713573   -916.92482     1314.947   -594.50377    2.1934632   0.34010526   0.10850082 
   63100   -954.90002    38.558342   -916.34168      1381.02   -6377.6937    2.1819799   0.12242458   0.10331475 
   63200   -956.53614    41.901248   -914.63489    1500.7508   -4140.9224    2.1901372  0.089392037   0.10664451 
   63300   -953.38879     39.88395   -913.50484    1428.4985    6515.6587    2.2082523   0.15508034   0.10955772 
   63400   -955.36096    33.344977   -922.01598    1194.2961    6691.3517    2.2162889  0.030724457  0.085944058 
   63500   -957.14936    37.722702   -919.42665    1351.0904   -6154.3069    2.1865179  0.064248952  0.088135989 
   63600   -955.69015     39.68735    -916.0028    1421.4569   -7194.1132    2.1791563  0.072879087   0.10861384 
   63700   -952.91367     39.52206   -913.39161    1415.5369    2327.8033    2.1984198    0.1803758   0.10829881 
   63800   -958.80994    38.442551   -920.36739    1376.8728    6065.3841    2.2231372  0.056719051  0.087935137 
   63900   -955.59125    37.105351    -918.4859    1328.9791    1887.6745    2.2065312  0.079460949  0.081436313 
   64000    -953.6846    39.316791   -914.36781    1408.1849   -4781.1155    2.1845858   0.55563615  0.099604626 
   64100   -952.52613     36.88393    -915.6422    1321.0486   -3266.0862    2.1861361   0.26261973   0.11016449 
   64200   -957.10588    35.164571   -921.94131    1259.4674    3268.4507    2.2134908   0.11044907    0.1103688 
   64300   -952.17305    38.086461   -914.08659    1364.1189    4278.1053    2.2020354   0.24411369   0.10767735 
   64400   -953.16212    38.420058   -914.74207    1376.0671    1209.2512    2.1971304  0.051919421  0.095185546 
   64500   -955.65297    36.098642   -919.55432    1292.9225   -884.77194    2.1978749   0.17803211   0.09643136 
   64600   -954.54531    36.781797   -917.76352    1317.3906    1446.4652    2.2013637   0.20747576   0.10398678 
   64700    -952.7926    39.572945   -913.21965    1417.3594        525.5     2.192479  0.012202518   0.11116523 
   64800   -953.12087    37.096041   -916.02483    1328.6457    774.46605    2.1941285   0.18616907  0.096427107 
   64900   -956.63485    38.285801   -918.34905    1371.2585   -2721.9294    2.1956165   0.33922732  0.096009511 
   65000   -950.59841     41.01694   -909.58147    1469.0781   -1984.4712    2.1837773  0.078020715   0.11159623 
   65100    -953.0832    39.909895   -913.17331    1429.4277    4328.4338     2.202728  0.038413665  0.096589286 
   65200   -955.10755     38.51986   -916.58769    1379.6417    3391.7279    2.2055389   0.28126051   0.10347097 
   65300   -951.97352    38.056287   -913.91723    1363.0382   -917.29951    2.1910705   0.31237412   0.10720483 
   65400   -949.59359    39.715922   -909.87767    1422.4803   -5342.8303     2.169263  0.087311692   0.10978835 
   65500   -955.32174    38.176813   -917.14493     1367.355   -2839.3087    2.1914706   0.04093872    0.1019529 
   65600   -956.82644    41.995878   -914.83056      1504.14     6797.888    2.2135054   0.06973514  0.091947364 
   65700   -951.50676    42.387951   -909.11881    1518.1827    7098.3108    2.2075726   0.14503288  0.099095679 
   65800    -956.3646    39.774669   -916.58993    1424.5844   -4612.0132    2.1879089  0.086902931   0.10082442 
   65900   -957.15724    40.491262   -916.66598    1450.2502    -14947.31    2.1629017   0.12511123  0.095885231 
   66000   -953.31612    40.818955   -912.49717     1461.987   -3646.2042    2.1790633   0.23575444  0.090549596 
   66100    -957.4608    39.772413   -917.68838    1424.5036    8127.9613     2.222019  0.013477024  0.084656932 
   66200   -957.37623    38.459806   -918.91642    1377.4908    6348.8803    2.2174633  0.082523994   0.09288012 
   66300    -952.6623    38.200483   -914.46182    1368.2028   -229.40102    2.1877213  0.096945181   0.10074062 
   66400   -954.50657    40.058089   -914.44848    1434.7355   -7032.4544     2.179495   0.11834973   0.10074535 
   66500   -960.83109    39.165587    -921.6655    1402.7693    -1665.225    2.2060365  0.056132196  0.080072458 
   66600   -954.41512    39.711432   -914.70369    1422.3195    2370.7193    2.1990595  0.027538539  0.079075557 
   66700   -956.01768    41.730152   -914.28752    1494.6227    176.36883    2.1981601   0.13801682  0.091346498 
   66800   -956.34782      36.0361   -920.31172    1290.6824   -636.89153    2.1999053   0.13926125  0.093940175 
   66900   -951.43176    35.834657    -915.5971    1283.4675    297.40311    2.1878295    0.1124352  0.098741869 
   67000   -953.08091    39.590931   -913.48998    1418.0036    1760.0945    2.1919342 0.0093550237  0.089261495 
   67100   -954.33662    37.172636   -917.16399     1331.389    4194.9249    2.2041065   0.18096195   0.09202509 
   67200   -953.50966    34.248295   -919.26137    1226.6497    536.67827    2.1986468   0.29480389  0.092909577 
   67300   -954.33731     43.34764   -910.98967    1552.5553    -9715.186    2.1662141   0.12661624  0.099465963 
   67400    -953.7282    38.324638   -915.40356    1372.6495    -3896.803    2.1843421   0.02201534  0.098061374 
   67500   -951.82964    35.394784   -916.43485    1267.7128    9485.3765    2.2186444  0.047662289  0.091330753 
   67600   -951.57378    42.746609   -908.82717    1531.0285     10158.35    2.2125557  0.046029004  0.092828206 
   67700   -953.08629    39.921884   -913.16441    1429.8571   -2833.7519    2.1832089 0.0043601311  0.081765017 
   67800   -952.86149    35.461482   -917.40001    1270.1017   -13816.795    2.1596876  0.034326535   0.10141413 
   67900   -953.91335    40.658546    -913.2548    1456.2417   -5825.4195    2.1787564   0.22140949  0.099155999 
   68000   -952.50852    43.539556   -908.96896     1559.429    6796.7025     2.208423   0.20279562   0.10159193 
   68100   -956.39048    39.462402   -916.92808    1413.4001    8615.3777    2.2228697  0.079639464  0.096300971 
   68200   -952.80819    37.581556   -915.22664     1346.035    325.02694    2.1920712  0.084954135   0.10173685 
   68300   -947.17752    35.441971   -911.73555    1269.4029   -4427.7998    2.1718758  0.088442457   0.12228102 
   68400    -957.3473    37.014206   -920.33309    1325.7146    -2241.477    2.1992522  0.091114868  0.092860839 
   68500   -957.75406    40.608565    -917.1455    1454.4515    282.17252    2.2060186 0.0053084258  0.091955927 
   68600   -954.98235    41.830895   -913.15145    1498.2309    1613.4406    2.2025581  0.048414869  0.090065295 
   68700   -956.11615    38.335577   -917.78057    1373.0414   -2839.0055     2.193805  0.068218525   0.10156652 
   68800    -956.6839     36.91575   -919.76815    1322.1883   -4579.3968    2.1902569   0.10054276  0.088974647 
   68900   -952.91325    39.074976   -913.83827    1399.5239   -394.26457    2.1941071  0.096880861  0.090861414 
   69000      -957.66    42.166657   -915.49335    1510.2568    3782.9838    2.2107182   0.12282295   0.08368014 
   69100   -957.46984    36.349744    -921.1201     1301.916    4221.2084    2.2174503   0.12631531   0.10966183 
   69200   -953.74668    40.827016   -912.91967    1462.2756   -7688.6827    2.1766991   0.24271499   0.11972748 
   69300   -953.48216    38.557732   -914.92443    1380.9981   -8029.5381    2.1722716  0.061421151   0.10643799 
   69400   -957.25732     39.24666   -918.01066     1405.673    3663.0101    2.2082043   0.02015365  0.084141574 
   69500   -954.49643    38.495124   -916.00131    1378.7557    19284.027    2.2412928 0.0096478088  0.089838741 
   69600   -951.60009    40.715499   -910.88459    1458.2815    4689.1278    2.1989836    0.1098557   0.10735637 
   69700   -953.66329    37.406893    -916.2564    1339.7793   -13151.725    2.1641863   0.13354033   0.10905056 
   69800   -952.28383    36.099926    -916.1839    1292.9684   -8034.3821    2.1746315   0.17950886  0.093496914 
   69900   -954.13948    45.702689   -908.43679    1636.9046     1646.405    2.1954877  0.035795216  0.084234201 
   70000   -954.06764    39.300934    -914.7667    1407.6169    9826.5251    2.2180747  0.072817507  0.095483487 
   70100   -955.05899    38.113576   -916.94542    1365.0901    6.0871388    2.1997985   0.13885911   0.10309502 
   70200   -949.55092    37.373788   -912.17713    1338.5935   -4808.1523    2.1743041   0.11431088   0.12459457 
   70300   -951.19904     39.21526   -911.98378    1404.5484   -4986.8018    2.1765874   0.23684619   0.11002216 
   70400   -953.95704    36.141286   -917.81576    1294.4498    5035.0962    2.2100661  0.058083473   0.10568591 
   70500   -953.40376     39.75652   -913.64724    1423.9344    8110.8222    2.2146826   0.14443141   0.11095743 
   70600   -953.00247    39.086369    -913.9161     1399.932    973.72869    2.1959688  0.016873681  0.096293274 
   70700   -956.81306     36.04237   -920.77069     1290.907   -4968.8133    2.1911522   0.11644739  0.094703175 
   70800   -951.08104     35.85342   -915.22762    1284.1395   -2470.6747    2.1861071   0.10892818   0.10172849 
   70900   -953.89484    40.453383   -913.44145    1448.8935    2422.6907    2.2010986  0.055093707  0.091205834 
[...]
  186800   -950.35243    37.940387   -912.41205    1358.8871    9548.6739    2.2121902   0.25998092   0.10082826 
  186900   -956.08897    36.220487   -919.86848    1297.2865   -8406.6029    2.1783874   0.13514861  0.091349248 
  187000   -951.99268    36.331657   -915.66103    1301.2682   -9501.8614    2.1702272  0.029307471   0.10443675 
  187100   -950.77975    38.332421   -912.44733    1372.9283      2379.42    2.1965895  0.018561405   0.10298849 
  187200   -956.52443    37.137281   -919.38715    1330.1227    8483.3687      2.22734   0.16025387   0.10479626 
  187300   -955.17885    39.885935   -915.29291    1428.5696    3147.9311    2.2072363  0.023456488  0.098401365 
  187400   -951.98238    38.597995   -913.38438    1382.4402   -5375.9619    2.1819744  0.014529857   0.10922392 
  187500   -957.86726    38.644299   -919.22296    1384.0987   -7212.4991    2.1882754  0.078411745   0.10444493 
  187600   -955.77235    40.501189   -915.27116    1450.6057    36.738611    2.2016868   0.21304638   0.10602251 
  187700   -952.82729     40.79603   -912.03126    1461.1659    7334.8042    2.2132228   0.10778877   0.11464456 
  187800   -956.13305    38.264907   -917.86815    1370.5102    3888.3445    2.2126694   0.14487906   0.11049043 
  187900   -953.11531    38.531681   -914.58363    1380.0651   -5803.5023     2.183214   0.28320638   0.12069275 
  188000   -951.91701    40.283453   -911.63356    1442.8072   -7866.5198    2.1744725   0.17985695   0.10351355 
  188100   -955.75947    38.201008   -917.55846    1368.2216    1852.6803    2.2064412   0.14148844  0.088012187 
  188200   -956.71927    41.782896   -914.93637    1496.5118     7454.594    2.2222853   0.17975936    0.1074399 
  188300   -951.23392    40.886675   -910.34724    1464.4124    1911.7486    2.1996139 0.0050895604   0.11345967 
  188400   -954.17158    36.352565   -917.81902     1302.017    -5534.974    2.1855196  0.068302926   0.10673159 
  188500   -953.89175    38.400463   -915.49128    1375.3653   -8025.9399    2.1768359   0.11849459   0.10399344 
  188600   -955.46097     44.75759   -910.70338    1603.0545    -268.8771    2.1952885  0.023547875  0.095041713 
  188700   -956.34701    37.960847   -918.38616    1359.6199    12670.589    2.2380625   0.14500439   0.10638632 
  188800   -954.43243    38.914721   -915.51771    1393.7842    4510.0676    2.2109519   0.13169443   0.12910324 
  188900   -952.67434    39.750507   -912.92383     1423.719   -14732.208    2.1579746   0.28347128   0.11763869 
  189000    -955.3748    35.689622   -919.68518    1278.2728   -15621.013    2.1610711   0.05591065   0.11789733 
  189100   -954.97625    38.006979   -916.96927    1361.2722    4602.5917    2.2151479   0.11873294    0.1081918 
  189200    -956.8451    45.701919   -911.14318     1636.877    13196.277    2.2316873    0.1330148  0.096059646 
  189300   -958.38536    40.832025   -917.55334    1462.4551    501.70171    2.2059797  0.045948234   0.10586208 
  189400   -951.98371    34.078588   -917.90513    1220.5714   -3348.0015    2.1887353   0.17044612   0.10767028 
  189500   -948.45369    36.740152   -911.71354     1315.899    -4399.534    2.1771149   0.23413293   0.11568729 
  189600   -958.19752     40.81237   -917.38515    1461.7511   -380.55935    2.2037965   0.28587316  0.097595129 
  189700   -956.92855    40.017006   -916.91154     1433.264    5021.4213    2.2148403   0.25976387   0.10095309 
  189800   -953.49571    42.878564   -910.61715    1535.7547    737.40606    2.1937221    0.1657156   0.11751116 
  189900   -954.79545    37.346094   -917.44936    1337.6016   -3897.5942      2.18831   0.16920676   0.11061255 
  190000   -953.18036    36.772042   -916.40832    1317.0412    -3314.203    2.1864506  0.034627889   0.11342229 
  190100   -952.85618    42.499846   -910.35633    1522.1904   -307.06341    2.1917291  0.088941324   0.11142144 
  190200   -954.84544    37.331448     -917.514    1337.0771    7216.1813    2.2165051   0.12429656   0.10747193 
  190300   -957.16631    41.052049   -916.11426    1470.3355    1417.7564    2.2028278 0.0096823646   0.11376486 
  190400   -950.87883    39.516772   -911.36206    1415.3475   -4820.3176    2.1755303   0.11539492   0.10888256 
  190500   -957.44667    38.261751   -919.18492    1370.3972   -6758.0042    2.1860604   0.21728856   0.10429245 
  190600   -956.39434    40.185053   -916.20928    1439.2829    805.30967    2.2027641   0.27739698  0.094954808 
  190700   -953.79394    42.585617   -911.20832    1525.2624    7815.1533    2.2142303   0.11957517  0.098979663 
  190800   -955.92176    37.476384   -918.44537    1342.2682    3444.4858    2.2092015    0.3602775   0.11418785 
  190900   -953.63312    36.651153   -916.98196    1312.7114   -9911.4844    2.1736053   0.12178445   0.11394635 
  191000   -951.58878    38.677351   -912.91143    1385.2824   -10788.581    2.1662105   0.14433266   0.12050513 
  191100   -952.71127    34.530085   -918.18119    1236.7424    7655.6182    2.2121095  0.073173828   0.11665303 
  191200   -956.68099    39.213337   -917.46766    1404.4795    11822.671     2.231356  0.099762143   0.11262881 
  191300   -951.55919    39.643597   -911.91559    1419.8899    1778.7493    2.1958315  0.046565438   0.10551147 
  191400   -953.11578    35.286913   -917.82886    1263.8493   -6041.1138    2.1799915     0.145644   0.11338031 
  191500   -956.53628    39.697973   -916.83831    1421.8374   -6296.0063    2.1861366  0.069794894   0.10757096 
  191600    -952.8521    41.630589   -911.22152    1491.0567     309.4034    2.1920518  0.042900933   0.11753833 
  191700   -956.31604    38.885023   -917.43102    1392.7205    3039.8259    2.2077436  0.082094063   0.10231027 
  191800   -955.35959    38.738549   -916.62104    1387.4743    907.99066    2.2006162   0.17611585  0.094978486 
  191900   -952.68094     41.86461   -910.81633    1499.4385   -5066.1292    2.1801023  0.033944171   0.10804994 
  192000   -955.94961    38.050215   -917.89939    1362.8207   -2950.8327    2.1938714    0.1343971    0.1066075 
  192100   -953.96858    38.242599   -915.72598    1369.7112    1883.0159    2.2022935   0.12799465   0.12446134 
  192200   -951.00937    40.586785   -910.42258    1453.6714    3895.6887    2.1997575  0.016732868   0.11841657 
  192300     -957.218    39.034781   -918.18322    1398.0843    731.05694    2.2068516    0.1710517  0.099764184 
  192400   -955.05901    39.327113    -915.7319    1408.5546   -7136.5756    2.1811537   0.11809081   0.10769146 
  192500    -952.1486    40.128949   -912.01965    1437.2734   -6559.4387    2.1719461  0.043390008   0.11828248 
  192600   -957.33104    37.723397   -919.60764    1351.1153     3876.029    2.2138603   0.21085915   0.10328677 
  192700   -954.66757    39.517464    -915.1501    1415.3723    11455.903     2.225093  0.098892903   0.09100806 
  192800   -953.71222     41.03182    -912.6804     1469.611    889.03243    2.1945766   0.28388956  0.095339135 
  192900    -955.9061    36.439554   -919.46655    1305.1327   -11938.365    2.1714187  0.063830809   0.10485798 
  193000   -955.57275    39.508571   -916.06418    1415.0537   -9832.1181    2.1704089   0.23126595   0.09706551 
  193100   -954.23342    42.277338   -911.95608    1514.2209    4989.5945    2.2048397   0.10614028    0.1059008 
  193200   -955.45322    38.346547   -917.10667    1373.4342    11063.111     2.227239  0.078011654   0.09929778 
  193300   -957.63017    39.906195   -917.72398    1429.2952      -788.08    2.1998268  0.036828285  0.098813443 
  193400   -953.40229    42.065334   -911.33695    1506.6277   -10171.979     2.170145    0.1593564   0.12388744 
  193500   -956.27423    38.979141   -917.29509    1396.0915   -3326.1617    2.1911772 0.0088930229  0.098456144 
  193600   -955.19844      38.9213   -916.27714    1394.0198    3827.6123    2.2057073  0.034402717  0.090930286 
  193700   -953.73957     43.79931   -909.94026    1568.7324    1858.2226    2.1936458  0.060153218  0.098328158 
  193800    -954.2065    36.922049   -917.28445    1322.4139    269.32843    2.1985022    0.1991357   0.10482561 
  193900   -954.47614    38.476105   -916.00003    1378.0745   -3835.3257     2.187621  0.050875109   0.11217134 
  194000   -950.40972    39.531555   -910.87817    1415.8769    -645.5838    2.1834635   0.19708723   0.10060154 
  194100   -959.00979     40.42029    -918.5895    1447.7082     1752.177    2.2112494    0.1650324  0.091588132 
  194200   -954.19323    38.694566   -915.49866     1385.899    3689.6455    2.2032941   0.18160698  0.092412236 
  194300   -952.32334    40.216326   -912.10702    1440.4029   -4133.4485    2.1808496  0.025933897   0.10906473 
  194400   -957.41622    37.584495   -919.83173    1346.1403   -6688.7395    2.1903139  0.024220239   0.11101777 
  194500   -952.60975    36.922219   -915.68753      1322.42   -27.579447    2.1924432  0.058248457  0.098049652 
  194600   -950.11382    38.059578   -912.05424     1363.156    7602.2965     2.208684  0.080492742   0.10342507 
  194700   -957.50545    38.758203   -918.74725    1388.1783      7792.32    2.2229017   0.27728107  0.098733147 
  194800   -955.46373    40.313731      -915.15    1443.8916   -5171.9136     2.185046   0.20054813   0.11133921 
  194900   -950.33646    37.487001   -912.84946    1342.6484   -10151.993    2.1624905  0.020544718   0.11752737 
  195000   -955.97319    37.601432   -918.37176    1346.7469   -3783.4201    2.1924345   0.10828699  0.097256905 
  195100   -956.73737    40.747188   -915.99019    1459.4165    10309.116    2.2265854    0.2035362   0.10106604 
  195200   -953.18789    42.344569   -910.84332    1516.6289    5919.2503    2.2107187   0.10364334   0.10706704 
  195300   -952.04246    34.564708   -917.47775    1237.9825   -3106.5526     2.189584   0.27986403   0.11488437 
  195400   -953.28545    37.752401   -915.53305    1352.1541   -6724.3227    2.1777601  0.089616171   0.10757614 
  195500   -950.73422    40.584488   -910.14973    1453.5892   -2412.6853    2.1858301     0.256111    0.1102009 
  195600   -957.51625     39.92683   -917.58942    1430.0343    5376.6237    2.2179571  0.032083924   0.10500516 
  195700   -953.54021    38.067147   -915.47306    1363.4271    4687.0379      2.21045  0.022897413   0.11645507 
  195800   -951.17495    40.092691   -911.08226    1435.9748   -1221.0049    2.1873141   0.17456569   0.11181755 
  195900   -957.15737    37.972175    -919.1852    1360.0256   -3623.6208    2.1968633   0.12628962   0.11045758 
  196000   -955.46009    39.705602   -915.75449    1422.1107   -2124.3155    2.1959712    0.2246281   0.11252822 
  196100   -956.57607    44.767552   -911.80852    1603.4114    542.28184     2.200858  0.089079336   0.10307248 
  196200   -956.06947    36.676205   -919.39327    1313.6087    4276.4351    2.2146074   0.13389531   0.11570936 
  196300   -952.42483    36.846678   -915.57815    1319.7144   -697.09853    2.1959361   0.17780281   0.12228057 
  196400   -951.51307    38.626782   -912.88628    1383.4712   -1878.8256    2.1835054   0.16720323   0.10330204 
  196500   -954.32167    34.736084   -919.58559    1244.1205    1801.7463    2.2027808   0.11968055  0.099588407 
  196600   -954.88468    39.476914   -915.40777    1413.9199    5007.9026    2.2082835  0.037872832    0.0983995 
  196700   -953.56471    41.048059   -912.51665    1470.1926    2734.5074    2.2038019   0.20733409   0.11417059 
  196800   -955.02208    36.332556   -918.68953    1301.3004    -3343.285    2.1900742   0.11241825  0.098054553 
  196900   -951.55983     37.20657   -914.35326    1332.6044   -9772.5342    2.1647357   0.27346187    0.1141467 
  197000   -951.03663    38.888365   -912.14826    1392.8402    707.33602    2.1933847  0.025842322   0.10960616 
  197100   -957.04109    40.536986   -916.50411    1451.8878    12937.655    2.2333429   0.13143068   0.10025603 
  197200   -955.05134    38.494335     -916.557    1378.7275    8425.7338    2.2219627   0.13884275   0.11029102 
  197300   -952.64661    42.411492   -910.23512    1519.0258   -8647.0186    2.1661444   0.17647524   0.10346686 
  197400   -956.02454    38.278279   -917.74626    1370.9891   -10881.783    2.1751977  0.055496561   0.10815284 
  197500   -955.72487    39.669458   -916.05541    1420.8161   -719.64056    2.2007099  0.050882476  0.097101828 
  197600   -950.32747    40.256603   -910.07087    1441.8455    8777.2649    2.2114699    0.1189933    0.1099443 
  197700   -954.19303    36.686322   -917.50671     1313.971    6384.9845    2.2132239  0.048318511   0.10220477 
  197800   -955.83707     38.96511   -916.87196     1395.589   -5645.9237    2.1859632   0.11645522  0.097091311 
  197900   -951.26882    39.000731   -912.26809    1396.8648   -7288.7949    2.1733559  0.019065513   0.11119116 
  198000   -955.28849    36.100992    -919.1875    1293.0066    1837.8751    2.2048424   0.12268787   0.10129764 
  198100   -953.51215    36.231989   -917.28016    1297.6985    6732.9863    2.2120923   0.11969666    0.1101243 
  198200    -956.1989    43.534323   -912.66458    1559.2416    1378.3233    2.1987889  0.055023456   0.10525044 
  198300   -957.11908    38.762252   -918.35683    1388.3233    -5359.106    2.1885499  0.086430398  0.093886975 
  198400   -958.83141    40.645217   -918.18619    1455.7643   -6543.4631    2.1882824   0.06941189  0.090342207 
  198500   -951.65683    39.255525    -912.4013    1405.9906    2287.9548    2.1977064  0.036953148  0.099923112 
  198600   -956.88751    39.941928   -916.94558     1430.575    5013.2678    2.2158902   0.19406167  0.092507345 
  198700   -954.97045    36.048086   -918.92237    1291.1117    3948.0291    2.2093187  0.068163219  0.091324398 
  198800   -951.56077    40.299088   -911.26168    1443.3672   -9552.5423    2.1637625   0.17293338   0.10288135 
  198900   -955.01065    38.458849    -916.5518    1377.4565   -11756.939    2.1668177     0.156916  0.096329696 
  199000   -951.78466     35.50574   -916.27892    1271.6868    10534.359    2.2185335   0.19708068  0.090803223 
  199100   -952.36452    44.025945   -908.33857    1576.8497    18507.369    2.2337588   0.17905754   0.10746141 
  199200   -954.09476    39.393972   -914.70079    1410.9492    2272.4648    2.2016491  0.056734685   0.10587878 
  199300   -954.60196    36.824057    -917.7779    1318.9042   -9698.8407    2.1707628  0.021356386  0.095723965 
  199400   -950.70615    39.399519   -911.30663    1411.1479   -3895.0913    2.1729569   0.14631282  0.099355115 
  199500    -952.6443     39.05348   -913.59082     1398.754    5377.8733    2.2042844  0.003041532  0.084938591 
  199600   -955.03196    37.724389   -917.30757    1351.1508    8025.0867    2.2180835  0.059912416   0.09449337 
  199700   -956.48799    43.134226   -913.35377    1544.9116    13.430498    2.1953844   0.16038154    0.0870118 
  199800    -953.3671    40.233897    -913.1332    1441.0323    -8111.467    2.1755376  0.088971173   0.10166106 
  199900   -956.23751    36.539034   -919.69848    1308.6957   -3570.8953    2.1945018    0.4164016  0.097375533 
  200000   -955.56754    41.521593   -914.04595    1487.1529    2582.1693    2.2037396   0.36518225  0.098019038 
  200100   -952.21294    38.980587   -913.23235    1396.1432    7360.4588    2.2129719   0.27704116  0.098644857 
  200200   -956.73625    36.310003   -920.42624    1300.4926    3597.1151    2.2131691 0.0078688957  0.092106304 
  200300   -955.09973    40.830142   -914.26959    1462.3876   -7193.5423     2.177893   0.33007872   0.11241221 
  200400   -953.53537    39.702534   -913.83284    1422.0008   -5963.6365    2.1797608   0.18460572   0.10512594 
  200500    -956.7063    37.112852   -919.59345    1329.2478    3445.3176    2.2144353  0.031699983  0.095624778 
  200600   -953.76164     39.75287   -914.00877    1423.8037     10306.41    2.2213853   0.21541181  0.094021152 
  200700   -953.23041     40.39046   -912.83995    1446.6398    3528.6573     2.203992  0.037742504  0.092643035 
  200800   -954.85829    36.366066   -918.49222    1302.5006   -10605.512    2.1747316   0.15588131   0.10467328 
  200900   -949.06304    35.601489   -913.46155    1275.1162   -10017.745    2.1641203  0.073806767   0.11458196 
  201000    -951.2698    39.745147   -911.52466     1423.527    6597.5573     2.208218   0.17751131   0.11083873 
  201100   -957.15192    41.250124    -915.9018    1477.4298    14704.455    2.2370903  0.027083014  0.091276883 
  201200   -957.17483    41.299041   -915.87579    1479.1819    1551.0735    2.2032234  0.092377902  0.084948551 
  201300   -945.69955    36.211813   -909.48774    1296.9758   -7191.5673    2.1587301   0.37957414   0.10355938 
  201400   -953.61145    35.662699   -917.94876    1277.3085   -2140.4801    2.1923989   0.26824758  0.099394015 
  201500   -951.71689    35.652233   -916.06466    1276.9337    4328.5493    2.2020728   0.13747569   0.10976173 
  201600   -953.31839    41.550473   -911.76792    1488.1873    1536.2787    2.1977968  0.023409991   0.10848703 
  201700   -956.48959    39.042318   -917.44727    1398.3542   -456.10962    2.1969053  0.081803818  0.091565616 
  201800   -958.33842    40.070181   -918.26824    1435.1686   -5570.4186    2.1879744   0.12399965  0.081802835 
  201900   -951.98639    38.432343   -913.55405    1376.5071   -205.85828    2.1920219   0.10726823  0.094227266 
  202000   -954.37552    38.843699   -915.53182    1391.2404    4067.7447    2.2071549  0.015994744   0.10304575 
  202100    -956.3775     36.06227   -920.31523    1291.6197    5252.7495    2.2168729   0.01120252   0.10142036 
  202200   -953.72983    40.014491   -913.71534    1433.1739   -2574.4852    2.1883034 0.0060070145   0.10098556 
  202300    -950.0961    35.058659   -915.03744     1255.674   -4122.9585    2.1809022   0.39865482  0.096404531 
  202400    -957.4567    36.559458   -920.89725    1309.4272   -1302.3006    2.2004226  0.017906115  0.091750782 
  202500   -952.47628    38.932275     -913.544    1394.4129    4583.0813    2.2066638   0.18518742   0.11372267 
  202600   -953.38323    39.428666   -913.95457    1412.1918     7135.286    2.2145064 0.0051762074  0.095400037 
  202700   -956.30981     37.40635   -918.90346    1339.7598   -1774.8693    2.1962475   0.13421782  0.091555956 
  202800   -948.98974    37.145948    -911.8438    1330.4331    -9021.778    2.1623346   0.21254013    0.1010301 
  202900   -953.12748     40.26474   -912.86274     1442.137   -2937.3569    2.1857868  0.048246571  0.093231124 
  203000   -956.84986    40.527966   -916.32189    1451.5648    9774.1247    2.2267082   0.11200418  0.092351495 
  203100   -957.41271    41.471305    -915.9414    1485.3518    8084.9104    2.2222472  0.064262621  0.087621802 
  203200   -950.21262    40.929324   -909.28329      1465.94    -7587.458    2.1694554   0.17920019  0.094312632 
Loop time of 144.216 on 1 procs for 200000 steps with 217 atoms

Performance: 359.461 ns/day, 0.067 hours/ns, 1386.809 timesteps/s
100.0% CPU use with 1 MPI tasks x no OpenMP threads

MPI task timing breakdown:
Section |  min time  |  avg time  |  max time  |%varavg| %total
---------------------------------------------------------------
Pair    | 140.94     | 140.94     | 140.94     |   0.0 | 97.73
Neigh   | 0.22282    | 0.22282    | 0.22282    |   0.0 |  0.15
Comm    | 0.85236    | 0.85236    | 0.85236    |   0.0 |  0.59
Output  | 0.067306   | 0.067306   | 0.067306   |   0.0 |  0.05
Modify  | 1.8353     | 1.8353     | 1.8353     |   0.0 |  1.27
Other   |            | 0.2988     |            |       |  0.21

Nlocal:    217 ave 217 max 217 min
Histogram: 1 0 0 0 0 0 0 0 0 0
Nghost:    957 ave 957 max 957 min
Histogram: 1 0 0 0 0 0 0 0 0 0
Neighs:    4126 ave 4126 max 4126 min
Histogram: 1 0 0 0 0 0 0 0 0 0
FullNghs:  8252 ave 8252 max 8252 min
Histogram: 1 0 0 0 0 0 0 0 0 0

Total # of neighbors = 8252
Ave neighs/atom = 38.0276
Neighbor list builds = 377
Dangerous builds = 0
Total wall time: 0:02:26
