LAMMPS (3 Mar 2020)
Reading data file ...
  orthogonal box = (0 0 0) to (17.469 17.469 17.469)
  1 by 1 by 1 MPI processor grid
  reading atoms ...
  217 atoms
  read_data CPU = 0.00101133 secs
Reading potential file library.meam with DATE: 2012-06-29
Reading potential file LiSi.meam with DATE: 2020-11-07
1 atoms in group Li
216 atoms in group Si
Neighbor list info ...
  update every 1 steps, delay 10 steps, check yes
  max neighbors/atom: 2000, page size: 100000
  master list distance cutoff = 6
  ghost atom cutoff = 6
  binsize = 3, bins = 6 6 6
  2 neighbor lists, perpetual/occasional/extra = 2 0 0
  (1) pair meam/c, perpetual
      attributes: full, newton on
      pair build: full/bin/atomonly
      stencil: full/bin/3d
      bin: standard
  (2) pair meam/c, perpetual, half/full from (1)
      attributes: half, newton on
      pair build: halffull/newton
      stencil: none
      bin: none
Setting up Verlet run ...
  Unit style    : metal
  Current step  : 0
  Time step     : 0.003
Per MPI rank memory allocation (min/avg/max) = 8.895 | 8.895 | 8.895 Mbytes
Step Temp E_pair E_mol TotEng Press Volume 
       0         1800   -951.04357            0   -900.78722   -114161.75    5330.9442 
    3200    1763.7456   -939.48583            0   -890.24171     8413.685    4629.1892 
Loop time of 2.26694 on 1 procs for 3200 steps with 217 atoms

Performance: 365.885 ns/day, 0.066 hours/ns, 1411.595 timesteps/s
100.0% CPU use with 1 MPI tasks x no OpenMP threads

MPI task timing breakdown:
Section |  min time  |  avg time  |  max time  |%varavg| %total
---------------------------------------------------------------
Pair    | 2.1542     | 2.1542     | 2.1542     |   0.0 | 95.03
Neigh   | 0.063338   | 0.063338   | 0.063338   |   0.0 |  2.79
Comm    | 0.015149   | 0.015149   | 0.015149   |   0.0 |  0.67
Output  | 2.6986e-05 | 2.6986e-05 | 2.6986e-05 |   0.0 |  0.00
Modify  | 0.029282   | 0.029282   | 0.029282   |   0.0 |  1.29
Other   |            | 0.004908   |            |       |  0.22

Nlocal:    217 ave 217 max 217 min
Histogram: 1 0 0 0 0 0 0 0 0 0
Nghost:    957 ave 957 max 957 min
Histogram: 1 0 0 0 0 0 0 0 0 0
Neighs:    4138 ave 4138 max 4138 min
Histogram: 1 0 0 0 0 0 0 0 0 0
FullNghs:  8276 ave 8276 max 8276 min
Histogram: 1 0 0 0 0 0 0 0 0 0

Total # of neighbors = 8276
Ave neighs/atom = 38.1382
Neighbor list builds = 108
Dangerous builds = 1
Setting up Verlet run ...
  Unit style    : metal
  Current step  : 3200
  Time step     : 0.003
Per MPI rank memory allocation (min/avg/max) = 9.663 | 9.663 | 9.663 Mbytes
Step PotEng KinEng TotEng Temp Press Density c_msdli[4] c_msdsi[4] 
    3200   -939.48583    49.244114   -890.24171    1763.7456     8413.685    2.1786338            0 4.6422045e-32 
    3300   -941.72595     46.73194   -894.99401    1673.7686   -7562.7642    2.1521334   0.15493624    0.1193792 
    3400   -931.84257    46.915451   -884.92712    1680.3413   -1216.3497    2.1446745   0.11224674   0.13161814 
    3500    -941.8661    52.523966   -889.34213     1881.218    8166.6875    2.1868264  0.087231185    0.1200532 
    3600   -945.54058    51.587289   -893.95329    1847.6696   -5209.2734    2.1593443   0.25188077   0.12892747 
    3700    -942.1265    55.351946   -886.77456     1982.506   -8776.5996    2.1415421  0.047321646   0.13477719 
    3800   -940.18078    52.603727   -887.57706    1884.0747    6758.0824    2.1782725  0.044107877   0.12429709 
    3900   -945.31468    50.698285    -894.6164    1815.8287    1018.5037    2.1744057  0.025581663   0.13038254 
    4000    -937.2339    48.275057   -888.95884    1729.0375   -6026.4494    2.1380192    0.2642464   0.13857232 
    4100   -942.54395    57.052865   -885.49109    2043.4267    62.573889    2.1625514   0.41369582   0.13899933 
    4200   -944.04254    49.395932   -894.64661    1769.1831    7706.4035    2.1894581   0.17909227   0.13508558 
    4300   -940.83549    52.011411   -888.82408    1862.8601   -8373.4465    2.1411952   0.19705081   0.15188668 
    4400   -942.16805    55.038027   -887.13002    1971.2625   -4733.7918    2.1500627   0.10449086   0.15133969 
    4500   -939.83646    46.693549   -893.14291    1672.3936    10642.984    2.1859315  0.060264002   0.16231745 
    4600   -940.93043    50.206428     -890.724    1798.2122   -1378.4307    2.1607726   0.19481936   0.18726895 
    4700   -934.04826    48.537229   -885.51103    1738.4275    -6639.587    2.1298689  0.027905619   0.16887544 
    4800   -942.03613    49.403909   -892.63222    1769.4689    4864.8089    2.1787381    1.3162671   0.16928443 
    4900   -945.01516    53.364703   -891.65046    1911.3301    3857.3202    2.1789536   0.30218246   0.14605735 
    5000   -936.15567     51.40872   -884.74695    1841.2739   -9302.5544    2.1257892   0.13222042   0.16419012 
    5100   -941.05708    46.708861   -894.34822     1672.942      3820.52    2.1694129  0.054439768   0.15271382 
    5200   -945.31017    53.425165   -891.88501    1913.4957    6722.2301    2.1838072  0.093850057   0.15273776 
    5300   -936.95388    50.154624   -886.79925    1796.3568   -5372.7676    2.1406471  0.050477845   0.16760803 
    5400   -940.05419    50.649173   -889.40502    1814.0697   -6962.3441    2.1441078  0.058136227   0.15001302 
    5500    -944.2899    50.045546   -894.24435      1792.45    10469.666    2.1933338  0.031334736   0.14901382 
    5600   -933.12154    45.625563   -887.49598    1634.1422    3170.3106    2.1554216  0.044098558   0.18095628 
    5700     -936.331    47.123191   -889.20781    1687.7818   -7523.4101    2.1314375   0.03501965    0.1724766 
    5800   -944.46114    48.259912   -896.20123     1728.495    6446.8461    2.1839217  0.089030034   0.13854732 
    5900   -942.13114     54.89432   -887.23682    1966.1155    3349.8765     2.165642  0.039377338   0.13434755 
    6000   -939.71905    51.117204   -888.60184    1830.8329   -6854.5564    2.1364152  0.097185866   0.13672473 
    6100   -942.89717    48.791741   -894.10543    1747.5432    1014.6296    2.1638011 0.0048502065   0.14567749 
    6200   -941.99473    48.741168   -893.25356    1745.7319    11510.551    2.1900195  0.083215581   0.14579289 
    6300    -938.1929    52.388477   -885.80443    1876.3652   -8136.6714    2.1319955   0.16137959   0.16879357 
    6400   -945.16317    51.739936   -893.42324    1853.1369   -5828.2275    2.1497167   0.17174164   0.15015997 
    6500   -946.07617    55.310201   -890.76597    1981.0108     8391.617    2.1920733   0.31228365    0.1464738 
    6600    -937.3594    54.040524   -883.31888    1935.5356   -2283.5306    2.1495568    0.1551298   0.15915374 
    6700   -940.23568    47.912472   -892.32321     1716.051   -6597.3645    2.1442784  0.078901022   0.14484779 
    6800   -943.32459    51.559386    -891.7652    1846.6702    4458.7024    2.1745327  0.099287967   0.14310291 
    6900   -939.15291    54.108656   -885.04425    1937.9758    2570.6027    2.1650448  0.079975845   0.14292386 
    7000   -937.37052    48.376915   -888.99361    1732.6857   -4625.2259    2.1468679    0.1993343   0.16601972 
    7100   -941.58654    47.791719   -893.79482     1711.726    2313.3503    2.1688706   0.14045168   0.15212144 
    7200   -938.22376     51.47298   -886.75079    1843.5755    6595.8113    2.1727083   0.10678292   0.15898867 
    7300    -940.2232    50.416919   -889.80628    1805.7512   -6113.1183    2.1513237  0.034084004    0.1671713 
    7400   -941.68338    44.847862   -896.83552    1606.2878   -1538.2994    2.1689821  0.017829627   0.14798763 
    7500   -936.65321    48.832562   -887.82064    1749.0053    7183.7199    2.1728525  0.031188929   0.15162263 
    7600   -937.87925    48.485088   -889.39416      1736.56   -865.00046    2.1591495   0.25558769   0.15806161 
    7700   -944.64258    46.829804   -897.81277    1677.2738   -4924.4272    2.1628988   0.19723901   0.12723601 
    7800   -945.59498    56.408709   -889.18627    2020.3554   -2204.4886    2.1665112  0.065860138   0.14879794 
    7900   -932.09282    44.636256   -887.45657    1598.7088    9464.1021    2.1714643     0.395412   0.14870863 
    8000   -942.35897    46.261663   -896.09731     1656.925   -6459.3851    2.1543154  0.057351069   0.14358034 
    8100   -940.42494    51.132905   -889.29204    1831.3952   -4700.6414    2.1547024  0.086826327   0.16399539 
    8200   -936.86238    51.896557   -884.96583    1858.7465    12402.203    2.1845443  0.097896625   0.14505628 
    8300   -942.33514    48.979944    -893.3552     1754.284   -7000.0616    2.1519811  0.028520884   0.16343658 
    8400   -936.62879    46.576403   -890.05239    1668.1978   -6049.9295    2.1396072  0.025473118   0.15575072 
    8500   -938.07104    56.503807   -881.56723    2023.7615     11185.45    2.1793372   0.07527652   0.13549469 
    8600   -942.32665    51.808234   -890.51842    1855.5831    197.83885    2.1685397   0.11675778   0.14379393 
    8700   -941.24916    48.038255    -893.2109    1720.5561   -14065.789    2.1304385   0.14281412    0.1387498 
    8800   -935.41604    51.217707   -884.19833    1834.4325    7443.2397    2.1673151  0.042175736   0.15085202 
    8900   -942.78553    52.828085   -889.95745    1892.1104    6855.2038     2.181851  0.014367097   0.14211416 
    9000   -943.66153    48.622885   -895.03864    1741.4954   -9281.8839    2.1467827   0.17897962    0.1296585 
    9100   -938.64094    50.960221   -887.68072    1825.2103    1998.4919    2.1561585  0.069422184   0.14359747 
    9200   -941.46626    52.833923   -888.63234    1892.3195    2953.4051    2.1729602   0.14031039   0.14652621 
    9300   -943.69363    46.298263   -897.39537    1658.2359    2040.5878    2.1728317   0.13540369   0.13196558 
    9400   -943.26107    53.513665    -889.7474    1916.6654   -7531.6982    2.1490153    0.1032707   0.13477333 
    9500   -935.18078    47.396017   -887.78476    1697.5534    6333.0555    2.1693442   0.58367316   0.15197748 
    9600   -939.44236    43.033968   -896.40839    1541.3207    6430.8874    2.1800539   0.26747623   0.14982708 
    9700   -938.83036    50.177842   -888.65252    1797.1883   -6404.3813    2.1431006   0.14077384    0.1672666 
    9800   -939.33348    51.974038   -887.35944    1861.5215    2970.9663    2.1670317  0.034853516   0.16096933 
    9900   -942.13382    49.451656   -892.68216     1771.179    4054.1259    2.1725746   0.18225375   0.13491409 
   10000   -942.14807    49.727355   -892.42072    1781.0535   -6011.6329    2.1470527   0.22840274   0.14297584 
   10100    -934.7746    50.764007    -884.0106    1818.1826   -1937.6047    2.1407403  0.066376047   0.16091303 
   10200   -938.95845    48.971643   -889.98681    1753.9866    13300.077    2.1874267  0.075423393   0.13078573 
   10300   -942.72972    49.832218    -892.8975    1784.8093   -2852.7108    2.1567206   0.44563264   0.13858579 
   10400   -931.34054    47.284103   -884.05643    1693.5451   -8748.0741    2.1168387   0.34685762   0.19488549 
   10500   -940.23371    54.724958   -885.50875    1960.0495     12154.41    2.1846857   0.17355706    0.1674797 
   10600   -944.47146    52.798218   -891.67324    1891.0407    6529.8519    2.1812108   0.12356529   0.15296103 
   10700   -939.81912    49.215193   -890.60393    1762.7097   -13090.929    2.1230343  0.025609822   0.14187679 
   10800   -936.20005    52.304806   -883.89524    1873.3685    4695.7787    2.1608132   0.23610564   0.15226214 
   10900   -941.97978    48.190135   -893.78965    1725.9959    11164.385    2.1881561   0.23481098   0.13764497 
   11000   -939.21298    46.349318   -892.86366    1660.0645   -6620.3285    2.1426672   0.22699428    0.1428393 
   11100   -940.95317     54.10485   -886.84832    1937.8395   -3045.1335     2.148721   0.17074604   0.13921677 
   11200   -944.46839    50.987686   -893.48071     1826.194    5891.7364    2.1813941  0.030861413   0.12720165 
   11300   -942.39035    46.739604   -895.65075    1674.0431    -1216.402    2.1647058  0.016264837   0.14221623 
   11400   -937.34844    50.076763   -887.27167    1793.5681   -5105.3468    2.1406251  0.073743286   0.15363945 
   11500   -936.26825    45.064726   -891.20352    1614.0551    6287.8808    2.1712578  0.085597728   0.14869933 
   11600   -942.53689     46.78049    -895.7564    1675.5075    6241.5853    2.1789204   0.10019484   0.14295949 
   11700   -937.45748     52.00173   -885.45575    1862.5134   -7608.8715    2.1315632  0.034828801   0.12292022 
   11800   -937.37658    46.991913   -890.38467    1683.0799    3033.5828    2.1669089  0.048847284   0.14184104 
   11900    -940.3921    46.940706   -893.45139    1681.2459     8840.677    2.1850914   0.15548936   0.13774487 
   12000   -932.80575    48.761818   -884.04393    1746.4715   -3814.3891    2.1302729   0.06009965   0.15614427 
   12100   -937.01688    47.086663   -889.93022    1686.4735   -1516.2678    2.1503555   0.21346642   0.15199968 
   12200   -939.24245    47.094673   -892.14778    1686.7604    10693.663    2.1852017   0.10982455   0.13832975 
   12300     -941.062    55.318923   -885.74308    1981.3232    -3736.025    2.1501923   0.12385869     0.135446 
   12400    -936.6654    48.837663   -887.82773     1749.188   -14767.081    2.1149385   0.24773603    0.1419226 
   12500   -943.29072     49.59299   -893.69773    1776.2411    10260.087    2.1878614  0.084651681   0.11962827 
   12600   -942.15775    54.523266   -887.63448    1952.8256    11977.554    2.1860006  0.035373223   0.13347991 
   12700   -936.06139     48.03983   -888.02156    1720.6125   -14466.736    2.1109072  0.086498873   0.13915522 
   12800   -944.36872    48.239677   -896.12904    1727.7703   -2084.5383    2.1629114   0.30155036   0.13168577 
   12900   -941.98627    50.253951   -891.73231    1799.9143    11692.216    2.1918217  0.056258964    0.1395221 
   13000   -939.77843    52.388843   -887.38958    1876.3784   -7075.6033    2.1408641   0.07485768   0.13847743 
   13100   -943.33282     49.01956   -894.31326    1755.7029   -6376.3845     2.149464   0.19957265   0.14297707 
   13200   -944.68293     51.33755   -893.34538    1838.7249    5581.2808    2.1823681  0.099308561   0.13286345 
   13300   -940.03496    54.257512   -885.77744    1943.3073   -2286.3913    2.1526472   0.09159693   0.15872294 
   13400   -941.91611      49.0619   -892.85421    1757.2193   -5674.2222     2.151178   0.11550249   0.13112263 
   13500   -940.17894    47.081338   -893.09761    1686.2828    4610.9551    2.1732811   0.13124145   0.14014136 
   13600   -940.29287    55.977194   -884.31568    2004.9001    1956.0821    2.1620195   0.22539059   0.14821697 
   13700   -943.68711    51.429585   -892.25752    1842.0212   -5827.7039    2.1526091   0.18638764   0.14259458 
   13800   -940.70077    47.658227   -893.04254    1706.9448    -603.0365    2.1604215    0.8079032   0.17776346 
   13900   -936.24601    52.757969   -883.48804    1889.5991    6730.3512    2.1678749   0.34643569   0.15492527 
   14000   -941.66173    50.461351   -891.20038    1807.3426   -2344.9311    2.1569695  0.032761948   0.13839505 
   14100   -942.06072    48.133563   -893.92716    1723.9697   -7314.9134    2.1451705   0.37001002   0.15718617 
   14200   -939.18921    54.999491   -884.18972    1969.8823    8101.7909    2.1775308  0.017280314   0.15266996 
   14300   -938.78877    49.676444   -889.11233    1779.2301    5703.0251    2.1707831  0.041862142   0.16367155 
   14400   -941.19547    45.110541   -896.08493     1615.696   -13973.718     2.129203   0.36541139   0.15805232 
   14500   -940.25636    51.694436   -888.56192    1851.5072    2389.3023    2.1677569   0.34712526   0.15708257 
   14600   -942.17036    56.028838   -886.14152    2006.7498    10422.546    2.1882328  0.062735913   0.15396874 
   14700   -943.56614    47.348521   -896.21761    1695.8523   -9404.6101    2.1440981   0.24898362   0.14725705 
   14800   -939.58028    48.093613   -891.48666    1722.5388   -5196.9589    2.1482185 0.0020243548   0.15487931 
   14900   -937.85975    53.050401   -884.80935     1900.073    7324.3047    2.1736394   0.10449862   0.14452239 
   15000   -944.40344    50.456804   -893.94663    1807.1797   -2856.1495    2.1612706  0.066950175   0.13929971 
   15100   -941.95746    50.523764    -891.4337     1809.578   -7196.5511    2.1482298  0.042922732   0.14934296 
   15200   -935.34716     50.82853   -884.51863    1820.4936    4158.6637    2.1590536   0.23778943   0.14812271 
   15300   -941.41298    48.653333   -892.75965    1742.5859    4567.0905     2.177897  0.084696636   0.14309468 
   15400    -936.0398    46.064821   -889.97498    1649.8748   -1382.9348    2.1465671  0.012819908   0.13306827 
   15500   -937.39213     52.90063    -884.4915    1894.7087   -1796.0294    2.1516527   0.14596407   0.13683003 
   15600   -941.45597    49.470175   -891.98579    1771.8422    4364.8769    2.1744497    1.0210548   0.13464689 
   15700   -942.61139     51.06158   -891.54981    1828.8406   -2039.1826    2.1625249    1.0752881   0.14791011 
   15800   -933.30338    48.716541   -884.58684    1744.8498   -4739.8485    2.1317051     1.540835   0.15381966 
   15900   -939.97903    47.631492   -892.34754    1705.9873    3179.9445    2.1725617    5.3797262   0.17028231 
   16000   -939.53843     47.61889   -891.91954     1705.536    5670.0064    2.1768911    4.8699522   0.15508809 
   16100   -932.92731    48.844281   -884.08303     1749.425   -7852.0004    2.1281716    19.170107   0.17178563 
   16200   -940.92019    51.692553   -889.22763    1851.4398   -3063.8743    2.1530395    18.263728   0.15906542 
   16300   -942.81576    51.662727   -891.15304    1850.3715    11263.939    2.1904321    16.212821   0.12429113 
   16400   -933.58676    50.824943   -882.76182    1820.3651   -410.09009    2.1425819    19.766622     0.178398 
   16500   -935.16141    48.331452   -886.82996    1731.0573   -7825.9353     2.125844     28.65691   0.17758911 
   16600   -944.05506    53.387715   -890.66734    1912.1543    5180.3679    2.1807223    37.237684   0.15693988 
   16700   -940.22732    51.236302   -888.99102    1835.0985    6653.5732    2.1767627     36.27507    0.1573837 
   16800   -935.81671    53.261029   -882.55569    1907.6169   -13166.333    2.1111552    52.294926   0.14969045 
   16900   -946.14099    52.376355   -893.76464    1875.9311    1522.9981    2.1726258    41.531286   0.12940293 
   17000   -942.33899    51.889112   -890.44988    1858.4798    8427.6647    2.1821696    47.083936   0.14317888 
   17100    -941.0959    54.028751   -887.06715    1935.1139   -8859.7319    2.1363001     44.76617   0.14759077 
   17200   -941.00856    54.537847   -886.47071    1953.3479   -7068.2877    2.1412006    45.120599   0.15765072 
   17300   -943.39752    48.703905   -894.69361    1744.3972    11138.889    2.1953956     44.25632   0.13490157 
   17400   -942.96726    52.669712   -890.29755    1886.4381   -4079.3928    2.1572285    48.590288   0.15803349 
   17500   -943.13881    54.366333   -888.77248    1947.2049   -10655.194    2.1403472    44.596334   0.15312922 
   17600   -945.28327    46.932899   -898.35037    1680.9662     5228.916    2.1855379    46.160571   0.14200486 
   17700   -940.05575    48.365319   -891.69043    1732.2703    2707.6217    2.1678045    42.292222    0.1653731 
   17800   -938.39714    49.394112   -889.00302     1769.118   -3594.5305    2.1498754    48.067782   0.16692731 
   17900   -941.91746    48.928066   -892.98939    1752.4259   -546.51753    2.1619549    45.317009   0.14859083 
   18000   -945.72232    47.294843   -898.42747    1693.9298    5315.8299    2.1860139    45.627308   0.15009736 
   18100   -937.01233    49.089659   -887.92267    1758.2136   -2505.7021    2.1442143    42.467296   0.14581917 
   18200    -938.1276    47.935971   -890.19163    1716.8926    2671.7265    2.1584421    43.876437   0.16650059 
   18300   -944.01878    49.392724   -894.62605    1769.0683    6068.2698     2.182108     42.81002   0.15460845 
   18400   -940.78393    51.460738   -889.32319     1843.137   -1861.7957    2.1553839    46.046298   0.15233295 
   18500   -938.53825      52.3498   -886.18845      1874.98   -7427.7751     2.136177    47.987125   0.17430546 
   18600   -938.43915    47.770564   -890.66859    1710.9683    6838.4855    2.1747574    45.659454    0.1583748 
   18700   -940.00086    48.295935   -891.70492    1729.7853    7600.4168    2.1822482    41.803778   0.14949984 
   18800   -938.14585     56.70795    -881.4379    2031.0731   -17315.587    2.1080889    46.435892   0.17070541 
   18900   -943.22272     53.34072     -889.882    1910.4712    2787.2957    2.1704081    44.849904   0.15308808 
   19000   -942.45735    51.785507   -890.67184    1854.7691    8773.0933    2.1838626    46.320329   0.15872506 
   19100     -938.627    48.123267   -890.50374    1723.6009   -6964.5332    2.1367753     44.17588   0.15480527 
   19200   -937.10519     55.03958   -882.06561    1971.3182   -3461.2393    2.1385119     46.79732   0.16184223 
   19300   -940.45433    48.059291   -892.39504    1721.3095    13680.375    2.1923999    43.690352   0.16294194 
   19400   -939.65475    47.307588   -892.34717    1694.3862   -4833.4041    2.1429878    40.452491   0.16333795 
   19500    -939.0699    51.252817   -887.81708      1835.69   -4888.5521    2.1436581     45.15451   0.16743739 
   19600   -940.52573    49.846163   -890.67957    1785.3088    7807.0085    2.1805797    40.190838   0.16062839 
   19700   -944.74426    47.974034   -896.77022    1718.2559    3300.8736    2.1779614     45.11509   0.13201758 
   19800   -942.00935    51.482556   -890.52679    1843.9184   -7600.3022    2.1455188    42.658335   0.16478147 
   19900   -940.47989    52.869546   -887.61034    1893.5954    -656.6132    2.1606628    42.757507   0.16206547 
   20000    -938.7815    41.747453   -897.03404    1495.2424    8285.2131    2.1835359    38.582034   0.15526309 
   20100   -939.81071    48.591214   -891.21949    1740.3611   -2595.0455    2.1522621    44.414828    0.1655379 
   20200    -939.4751     51.58163   -887.89347    1847.4669   -475.10966    2.1569118    41.828818   0.16101871 
   20300   -944.79562    51.327006   -893.46862    1838.3472    1128.6469    2.1736006    44.366286   0.14860536 
   20400   -943.14949     47.20529    -895.9442    1690.7223   -926.53924      2.16742    44.701045    0.1600318 
   20500   -935.60801    49.069789   -886.53822    1757.5019   -4497.7634    2.1434563    46.519844   0.16483954 
   20600   -940.57027    49.666786   -890.90348    1778.8841     3757.384    2.1697379    47.134989   0.13487106 
   20700   -943.70487    49.775275   -893.92959    1782.7698    5143.9927    2.1863586    44.405315    0.1387822 
   20800   -935.28292    52.882622    -882.4003    1894.0637   -16105.872    2.1083158    44.332667   0.15858113 
   20900   -943.40899    53.619938   -889.78905    1920.4717     264.4702    2.1649513     45.94464   0.14632369 
   21000   -941.38238    51.174821   -890.20755    1832.8965    13658.233    2.1993616    43.250506   0.15154098 
   21100   -939.23743    48.088396   -891.14904     1722.352   -11111.525    2.1311877    49.172183   0.15166243 
   21200   -938.73791    57.034206    -881.7037    2042.7584   -10427.636    2.1286213    43.627408   0.16465941 
   21300   -942.32954    51.195283   -891.13425    1833.6294    14436.501    2.2011591     45.09615   0.13826358 
   21400   -941.96445    49.657807   -892.30664    1778.5626   -5395.0423    2.1502769    46.585409   0.13820387 
   21500   -938.04052    50.290171   -887.75035    1801.2115   -4635.1758    2.1351607    42.748255   0.13983446 
   21600   -940.75212    49.033758   -891.71836    1756.2114    8102.5919    2.1841582     46.96881   0.13405293 
   21700   -946.63268     50.09929   -896.53339    1794.3749    1197.3232    2.1763821     44.14294   0.12995038 
   21800   -940.36041    50.232365   -890.12804    1799.1411   -6085.9294    2.1417906    45.587246   0.13146245 
   21900   -940.39711    52.457243   -887.93987    1878.8282    -996.9283    2.1615365       47.548   0.13585684 
   22000   -943.58766    46.417879   -897.16978    1662.5201    7351.5348     2.188601    48.551228   0.14285763 
   22100   -939.52636    47.980342   -891.54602    1718.4819   -5057.5708    2.1490075    44.009801   0.13654341 
   22200    -945.6853    57.388058   -888.29724    2055.4321   -3120.4071    2.1593432    44.144796   0.12380468 
   22300   -947.06546    54.923333   -892.14213    1967.1546    3589.6112    2.1815243    41.457911   0.13613006 
   22400   -944.31267    45.379117   -898.93356    1625.3154   -2932.6499    2.1666594    44.109977   0.13912437 
   22500   -937.44502     49.43978   -888.00524    1770.7536   -9057.5511    2.1354803    50.262052   0.16334643 
   22600   -938.26921    50.149228   -888.11998    1796.1635    17307.183    2.1997886    45.843473   0.14681464 
   22700   -942.56993    50.234866   -892.33507    1799.2307   -1304.6454    2.1666373     46.20341   0.14158349 
   22800   -934.21026    49.613522   -884.59674    1776.9764   -13919.348    2.1107221    47.860064   0.17588575 
   22900   -938.34047    55.762608   -882.57786    1997.2144    10060.023    2.1767904    44.694282   0.16413146 
   23000   -939.02458    49.785582     -889.239     1783.139    5291.5289    2.1755996    42.795796   0.15353754 
   23100   -942.49611    50.533154   -891.96296    1809.9143    -8332.061    2.1456667     42.01414    0.1491096 
   23200   -936.82259    51.109728   -885.71286    1830.5651    4787.3408    2.1629318    45.294581   0.14994985 
   23300   -937.63385    55.031432   -882.60242    1971.0263   -93.927626    2.1570562    42.945421   0.17593285 
   23400    -944.2072    52.884208   -891.32299    1894.1205   -5926.6201    2.1576127    43.870699   0.14481978 
   23500   -937.77068    47.476019   -890.29466    1700.4188     2603.491    2.1638706     38.44088   0.16176657 
   23600   -933.29847    51.163495   -882.13498    1832.4909    6463.9502    2.1591062    44.486126   0.16594741 
   23700   -939.01331    53.236805    -885.7765    1906.7493    -5640.582    2.1461042    39.967828   0.16018966 
   23800   -941.24268    49.464295   -891.77839    1771.6317   -4249.5928     2.158536    42.579401    0.1623944 
   23900   -940.95678     52.01757   -888.93921    1863.0807    7293.2852    2.1811121    43.522266    0.1488282 
   24000   -941.35199    53.237807   -888.11419    1906.7852   -4439.7156    2.1519995    42.935766    0.1464559 
   24100   -945.62856    46.756156    -898.8724     1674.636   -3657.7196    2.1670947    49.192062   0.13154327 
   24200    -944.6828    51.043088   -893.63971    1828.1783    846.33993    2.1749057    47.567362   0.14381319 
   24300   -938.85151     50.17634   -888.67517    1797.1345    1667.6884    2.1634934    43.363328   0.16475718 
   24400   -939.89929    49.457593    -890.4417    1771.3916   -7408.7574    2.1417452    45.352069   0.16431133 
   24500   -948.00883    48.848612   -899.16021    1749.5801    4691.3106    2.1930528    43.257588   0.14500458 
   24600   -942.73883    53.330591   -889.40823    1910.1083    2106.3748    2.1764432    45.415232   0.14789476 
   24700   -935.74839    46.168141   -889.58025    1653.5754   -8358.3445    2.1393342    44.761951   0.16366619 
   24800   -942.67947    50.578086   -892.10138    1811.5236   -1044.8186    2.1643405    49.085429   0.14837549 
   24900   -947.85801     49.52047   -898.33754    1773.6436    12653.271    2.2091625    47.666855    0.1410667 
   25000    -936.2971    48.815674   -887.48143    1748.4004   -10445.838    2.1309598    26.483307   0.18406271 
   25100   -936.45634    47.357513   -889.09883    1696.1744   -4268.1465    2.1451867    27.730116   0.19023334 
   25200   -942.37182    51.842519    -890.5293     1856.811    11635.018    2.1899097    26.749032   0.17114642 
   25300   -941.70336    50.223889   -891.47947    1798.8376    -1925.525     2.155168    30.082257   0.18692918 
   25400   -931.24048    51.623396   -879.61708    1848.9628   -7684.5216    2.1169552    24.183075   0.21807472 
   25500   -940.32198    54.487032   -885.83495    1951.5279    10072.943    2.1822341    24.188051   0.20060701 
   25600   -942.03395    52.411391   -889.62256     1877.186   -1359.4886    2.1625509    28.872392    0.1845985 
   25700   -939.63373    48.867143   -890.76659    1750.2438   -5906.1526    2.1423427    26.231049   0.17444787 
   25800   -946.78704    46.027063   -900.75998    1648.5225    3681.0376     2.186262    26.234081   0.16862213 
   25900    -944.5648    49.605474   -894.95932    1776.6882    1955.6994    2.1751862    27.012933   0.16477519 
   26000   -940.74225    50.648702   -890.09355    1814.0528   -2825.0184    2.1514665    27.462006   0.17829673 
   26100    -939.5348    50.686921   -888.84788    1815.4217   -1438.3829    2.1523504    27.069616   0.17680294 
   26200   -941.35672    47.113002   -894.24372    1687.4169    4999.9456    2.1796182    28.653175   0.16626362 
   26300    -941.9809    45.108391   -896.87251     1615.619    360.10143    2.1695625    24.840028   0.16565567 
   26400   -935.92364     46.60785   -889.31579    1669.3242   -2778.3038    2.1506062    26.865267    0.1854937 
   26500   -935.99459    47.430991    -888.5636    1698.8061    1286.6564    2.1589428    27.448186   0.19010019 
   26600   -942.96794    46.473165   -896.49478    1664.5002    6805.0515    2.1840259    26.057818   0.17119207 
   26700   -942.17111       49.934   -892.23711    1788.4548   -5179.8184    2.1527669    27.429395   0.16392189 
   26800   -939.38203    51.047669   -888.33436    1828.3424   -1920.3457    2.1533479    27.095162   0.16929055 
   26900   -941.34846    52.050806   -889.29765    1864.2711     8322.334    2.1802194    28.335191   0.15229104 
   27000   -943.40773    46.278909   -897.12882    1657.5427   -3928.7865    2.1592095    28.037975   0.16391885 
   27100   -940.42079    52.429221   -887.99157    1877.8245   -6643.2417    2.1409905    28.620283   0.17650985 
   27200   -939.63507    53.848634   -885.78644    1928.6628    11944.292    2.1835593    38.054756   0.16451386 
   27300   -939.33688    47.415782    -891.9211    1698.2614   -2037.3437    2.1544224    26.610262   0.16105914 
   27400   -938.59482    50.714278   -887.88054    1816.4015   -9860.7012      2.13222    22.580421    0.1532318 
   27500   -934.66322    53.771367   -880.89185    1925.8954    5892.1554    2.1603122    27.698448   0.18013834 
   27600   -941.22066    53.046978   -888.17368    1899.9504    5547.0133     2.173296    24.355606   0.17554729 
   27700   -941.85242    50.400478   -891.45194    1805.1624    -6270.844    2.1440406    25.584392   0.16566622 
   27800   -933.59975    49.478002   -884.12175    1772.1226    2112.3581    2.1460393    27.110195   0.16728622 
   27900   -936.36793    53.875122   -882.49281    1929.6115    2704.9386    2.1642269    25.423938   0.17334293 
   28000   -943.23724    52.599544   -890.63769    1883.9249   -4644.3492    2.1497159    29.291831   0.16006729 
   28100   -939.80831     50.43808   -889.37023    1806.5091    821.73991    2.1585628    28.299611   0.17910761 
   28200   -936.59627    52.668019   -883.92825    1886.3774    4062.5853    2.1581249    26.543792   0.17630404 
   28300   -933.35092     52.32687   -881.02405    1874.1587   -4255.2239    2.1355801    25.940064   0.20137246 
   28400   -942.31339    52.356539   -889.95685    1875.2214   -1209.4164    2.1600111    30.490235   0.14898501 
   28500   -938.38222     50.17564   -888.20658    1797.1094    10968.012    2.1866555    26.091369   0.14857794 
   28600   -942.82202    51.589508   -891.23251    1847.7491    -12868.17    2.1331491    25.847081   0.17582073 
   28700   -946.10081    44.839796   -901.26102    1605.9989   -4247.9376     2.161371    25.678053   0.15741513 
   28800   -941.35481    49.822759   -891.53205    1784.4705    11020.742    2.1927359    27.828908    0.1600932 
   28900   -937.88604    48.626397   -889.25964    1741.6212    -3510.043     2.146611    29.437479   0.16142761 
   29000   -934.75568    49.083881    -885.6718    1758.0066   -11010.342    2.1243952    17.618076    0.1764658 
   29100   -942.62687    47.286147   -895.34073    1693.6183    9875.7689    2.1924911    36.232999   0.15769477 
   29200   -941.49013    48.578763   -892.91137    1739.9151    265.00704    2.1654433    28.150978   0.17945443 
   29300   -939.02847    50.897898   -888.13057    1822.9781   -7972.2435    2.1374869    24.794473   0.18584927 
   29400   -937.48995    51.556179   -885.93377    1846.5554    4443.1824     2.170333    22.787737   0.16933504 
   29500     -945.298    49.458194    -895.8398    1771.4131    2054.2829    2.1861118    26.736383   0.16649487 
   29600   -938.81886    50.259982   -888.55888    1800.1303   -10477.626     2.137215    30.901635   0.19459626 
   29700   -938.13186    51.363849   -886.76801    1839.6668   -186.35062    2.1533396    24.593178   0.20079754 
   29800   -939.09213    46.267882   -892.82425    1657.1478    10139.759    2.1893096    34.085725   0.16308023 
   29900    -934.6825    46.925898    -887.7566    1680.7155    2752.7087    2.1532625    26.233828   0.21104613 
   30000     -935.521    50.411033   -885.10997    1805.5404   -1428.1521    2.1455201    29.646677   0.18023812 
   30100   -943.51242    51.961003   -891.55141    1861.0547    2432.5729     2.172917    25.437669   0.16004405 
   30200   -938.82675     48.02252   -890.80423    1719.9925    2993.7652    2.1662995    26.411696   0.17293884 
   30300   -934.64716    51.672618   -882.97454    1850.7258   -5457.2269     2.135174    26.274533   0.18850959 
   30400   -939.19159    47.301494   -891.89009     1694.168    1494.2894    2.1679238    28.188735   0.18389508 
   30500   -940.50642    49.513843   -890.99258    1773.4063     2121.226    2.1679169    23.839035   0.17330163 
   30600   -936.59743    53.865951   -882.73148     1929.283   -1468.8733    2.1467736    25.913185   0.18017633 
   30700   -940.65035    48.235831   -892.41451    1727.6326    1845.3648    2.1714477    26.149623   0.18194354 
   30800   -941.76026    51.059665    -890.7006     1828.772   -3190.2102    2.1585945    25.880794   0.18694146 
   30900   -941.63423    57.372422   -884.26181    2054.8721   -8101.9484    2.1435836    30.022087   0.17965065 
   31000   -942.42001    48.272929   -894.14708    1728.9612    5095.8897    2.1777882    24.570318   0.16186717 
   31100   -941.92023    50.559854   -891.36038    1810.8706   -1548.2486    2.1606245    33.380503   0.15168072 
   31200   -936.86152    50.743991   -886.11753    1817.4657   -5806.9997    2.1376173    25.597321   0.16641988 
   31300   -943.56874    49.588331    -893.9804    1776.0742     2993.536    2.1754749    26.930386   0.16719554 
   31400   -941.16823    48.165523   -893.00271    1725.1143    4901.9792    2.1780812    24.096211    0.1710039 
   31500    -936.5795    51.294024   -885.28547    1837.1659   -10643.543    2.1304224     27.00912   0.17724577 
   31600   -937.36295    46.066947     -891.296     1649.951    79.447466    2.1583965    46.211238   0.15292548 
   31700   -941.89488    49.090158   -892.80472    1758.2314    10991.769     2.195629    43.649501   0.14340942 
   31800    -936.6611    51.266226   -885.39487    1836.1703   -2075.3282     2.147892    45.551593   0.17003729 
   31900   -938.52901    49.343422   -889.18559    1767.3024   -11396.522    2.1280024    45.702701   0.14344573 
   32000   -944.42303     51.47193    -892.9511    1843.5379     10374.27    2.1942043    42.932426   0.14091441 
   32100   -940.59063    55.425016   -885.16562    1985.1231    5025.3422    2.1695729    44.302358    0.1544123 
   32200   -933.58524    46.572005   -887.01324    1668.0403   -11565.044    2.1226232    45.574802   0.16243482 
   32300   -940.67748    48.355925   -892.32155    1731.9339    91.597224    2.1639476    56.809348   0.17505455 
   32400   -941.74066    50.623044   -891.11762    1813.1338    8955.3438    2.1870226     55.55683   0.15515037 
   32500   -939.03353    55.142631    -883.8909     1975.009   -5910.0741    2.1347319     64.41097   0.18001112 
   32600   -940.07082    48.831887   -891.23893    1748.9811    1403.7832    2.1644522    91.915714   0.18256582 
   32700   -938.30675    49.952963   -888.35378     1789.134     9605.224    2.1778667    96.613421   0.16858796 
   32800   -935.57047    52.904657   -882.66582     1894.853   -5400.3112    2.1376791    95.793331   0.17351942 
   32900   -942.02995    49.322254    -892.7077    1766.5443   -3576.6689    2.1561617    94.944803   0.14721396 
   33000   -939.32018    49.834157   -889.48602    1784.8788    2659.6509    2.1695405    58.709797   0.19159532 
   33100   -935.69466    52.754824   -882.93984    1889.4865   -1243.6049    2.1451977    75.210084   0.18194572 
   33200   -943.33828    50.793295   -892.54499    1819.2316    -3838.604    2.1587438    71.564727   0.16939891 
   33300   -943.02804    52.050083   -890.97796    1864.2452   -2899.7165    2.1592597    89.567408   0.17293262 
   33400    -936.1698    51.604312   -884.56549    1848.2793    5216.1508     2.161133    71.722109   0.17737697 
   33500   -942.37782    49.159665   -893.21816    1760.7209   -2478.8866    2.1590461    75.786521   0.17732886 
   33600    -942.9253    49.873931   -893.05136    1786.3033   -4814.3903    2.1499211    74.399638   0.16765466 
   33700   -938.08625    52.311158    -885.7751     1873.596     5539.334    2.1696552    71.681971   0.16626157 
   33800   -941.50398    50.128305   -891.37567    1795.4141    2397.3241    2.1683645    66.248239   0.16578457 
   33900   -947.58416    50.318548   -897.26561    1802.2279    -14402.38    2.1401306     49.64225   0.15871144 
   34000   -938.89657    50.653844   -888.24273     1814.237    1597.7668    2.1603551    83.290915   0.17585675 
   34100   -938.67663     52.13235   -886.54428    1867.1917     13621.65    2.1899453    80.019053   0.17552655 
   34200   -940.27393    45.950719   -894.32321    1645.7881   -8037.1003    2.1383127    76.046341   0.17641452 
   34300   -939.54419    52.309301   -887.23489    1873.5295   -8246.8855    2.1341645    105.01497   0.14593725 
   34400   -938.29241    54.583424   -883.70899    1954.9803    8663.0862    2.1726747    99.930549   0.15085085 
   34500   -943.10702    51.308552   -891.79846    1837.6863   -2532.8809    2.1591601    105.07693   0.13156459 
   34600   -939.67895    48.171465   -891.50748    1725.3272   -4123.7942    2.1469701    107.57646   0.15980559 
   34700   -936.33283     55.30936   -881.02347    1980.9807    1384.4153    2.1468198     126.8015   0.19128088 
   34800   -940.50688    51.589153   -888.91772    1847.7364     8515.677    2.1739266    112.59076   0.15727623 
   34900   -942.53103    50.494559   -892.03647     1808.532    -5228.019     2.143082    130.01213   0.17912388 
   35000   -934.45203    51.261377   -883.19065    1835.9966    1432.0316    2.1488084    128.85835   0.17391953 
   35100   -942.99206    52.070444   -890.92162    1864.9745    4475.8722     2.178615    130.78832   0.16730869 
   35200   -942.71124    49.742418   -892.96882     1781.593   -7200.1793     2.147947    139.12864   0.15841988 
   35300   -940.25578    53.164804   -887.09097    1904.1705   -3993.5376    2.1498954    122.52043   0.17479665 
   35400   -939.89893    49.679968   -890.21896    1779.3563     1639.058    2.1712716    124.81332   0.18595702 
   35500   -941.71101    45.962718   -895.74829    1646.2179    3186.0313    2.1733878    125.67565   0.17031794 
   35600   -939.85734       52.259   -887.59834    1871.7279   -5554.4328    2.1457722    131.19821   0.17644315 
   35700   -937.76493    50.421383   -887.34355    1805.9111   -694.05009    2.1549723    151.89597   0.15291987 
   35800   -941.59778    45.725748   -895.87203    1637.7305    4150.4114    2.1784404    129.06293   0.17918785 
   35900   -938.18855    51.323788   -886.86476     1838.232   -3022.7703    2.1449405    137.60575   0.17770744 
   36000    -941.2248    53.952189   -887.27261    1932.3717   -4127.0603    2.1494995    159.33325   0.16298788 
   36100   -944.31302    49.772915   -894.54011    1782.6853    1554.6512    2.1707855    185.67715   0.14481186 
   36200    -939.2071    48.054961   -891.15214    1721.1544     621.2847    2.1619101    190.41749   0.13754146 
   36300   -934.42567    48.432048   -885.99363    1734.6603    309.36395    2.1451049    184.42009   0.15039378 
   36400   -939.38795    46.836582   -892.55136    1677.5165    2793.0471    2.1630461    182.38259   0.14831384 
   36500   -940.05805    48.611577   -891.44647    1741.0904    6588.9437    2.1698944    174.86943   0.14097098 
   36600   -938.12894    53.675483   -884.45346    1922.4611   -5257.6075    2.1395883    192.04035   0.15572567 
   36700   -939.25871    46.174807   -893.08391    1653.8141    2678.2586    2.1601916    193.16283   0.13860223 
   36800   -944.38986    54.185201   -890.20466    1940.7174    5103.7101    2.1764853    190.38113   0.13745331 
   36900   -936.58411    53.240347   -883.34376    1906.8762   -1790.3874    2.1426774    184.59724   0.14695048 
   37000   -946.36316    52.530755    -893.8324    1881.4611   -7673.9676     2.155891    194.08181   0.15150138 
   37100   -937.87461    46.676572   -891.19804    1671.7855    6048.0047    2.1729255    178.03174   0.16022679 
   37200   -934.47087    49.432004   -885.03887    1770.4751    5071.3203    2.1586935     184.5026   0.16446664 
   37300   -940.82793    50.435345   -890.39259    1806.4112   -9188.1743    2.1382846    194.15846   0.14488058 
   37400   -943.73946    49.619144   -894.12032    1777.1778    2458.1918    2.1726352    195.98853   0.13748514 
   37500   -942.59144    56.594344    -885.9971    2027.0042    9018.5557    2.1848027    193.78359   0.14061581 
   37600   -941.66893    50.853371   -890.81556    1821.3833    -11043.01    2.1349136    188.43388   0.14648818 
   37700   -941.42764    43.636221   -897.79142    1562.8912   -3994.9784    2.1590885    183.24673   0.16091309 
   37800   -938.06534    49.402273   -888.66307    1769.4103    14670.075    2.1917594    174.84547    0.1412946 
   37900   -938.19244    50.064652   -888.12779    1793.1343    576.66215    2.1510878    187.08351      0.15319 
   38000   -939.36697     44.94897     -894.418    1609.9091   -8823.6694    2.1363844    187.67342   0.14996959 
   38100   -942.50511    50.500036   -892.00508    1808.7282    5450.3473       2.1802    181.07598   0.14355893 
   38200   -938.00885    53.352597   -884.65626    1910.8965    2132.1805    2.1552138    188.40977   0.15173877 
   38300   -942.82069    49.733802   -893.08689    1781.2844   -5558.2075    2.1493841    187.39077   0.15180588 
   38400   -944.08217    53.145112   -890.93705    1903.4652    -974.3017    2.1636677    186.54694   0.13500952 
   38500   -937.76037    55.006521   -882.75385    1970.1341    960.22024    2.1516526    191.52039   0.16137021 
   38600   -940.27143    47.778155   -892.49327    1711.2403    1723.6497    2.1616589    182.59064   0.14307194 
   38700   -941.89232    50.652983   -891.23933    1814.2062   -469.69103    2.1565485    176.74824   0.14501814 
   38800   -934.19808    50.544173   -883.65391     1810.309    2033.3725    2.1510713    180.91294   0.16436663 
   38900   -942.81815    49.122138   -893.69602    1759.3768    536.93285    2.1698658    184.26366   0.14678397 
   39000   -941.74976      49.4183   -892.33146    1769.9843   -4576.9924    2.1458488    185.50487   0.14582429 
   39100   -934.32179    48.741421   -885.58037    1745.7409    3212.0381    2.1543043     192.2944   0.15076387 
   39200   -939.94304    47.120126   -892.82291     1687.672    7041.5342    2.1801727    197.29198   0.16186149 
   39300   -939.04131    45.219807    -893.8215    1619.6095   -8850.0597    2.1339622    197.50585   0.15753606 
   39400   -937.34666     49.69903   -887.64763     1780.039    2443.5312    2.1561176    182.52177   0.14875765 
   39500   -943.00947    53.223144   -889.78632      1906.26    12725.405    2.1967557    186.64447   0.15640998 
   39600   -942.04845    44.165509   -897.88294    1581.8484   -10479.498    2.1419399    185.10014   0.14398433 
   39700   -938.05001    49.345314    -888.7047    1767.3702    -11089.68    2.1282822    190.58025   0.14970707 
   39800   -940.31047    54.616874    -885.6936    1956.1784    16153.069    2.1955047    190.21647   0.14006774 
   39900   -943.71412    50.424067   -893.29005    1806.0072    933.52929    2.1661195    187.77306   0.15491476 
   40000   -936.88733     48.94426   -887.94307    1753.0059   -7236.0863    2.1353076    189.37771   0.16735632 
   40100   -935.97681    53.090713    -882.8861    1901.5168    6598.3327    2.1622157    179.42677   0.15055034 
   40200   -945.53208    53.934512   -891.59757    1931.7386    4655.2248    2.1794021    182.94387   0.13524874 
   40300   -941.24919    50.238729   -891.01046    1799.3691   -5384.7722    2.1494231    185.01279   0.15049193 
   40400   -937.88713    55.339247   -882.54789    1982.0511    -4735.498    2.1419412    189.11104   0.14070928 
   40500   -941.68363    48.873809   -892.80982    1750.4826    7257.4307    2.1847365    182.90739   0.15172077 
   40600   -941.24723    49.433404   -891.81382    1770.5253    -4312.381    2.1530071    174.87108   0.15770759 
   40700    -942.7048    56.534494    -886.1703    2024.8606   -5837.3936    2.1437007    189.32714   0.13931833 
   40800   -940.98223    45.870298   -895.11194    1642.9077    7860.1016    2.1841361    180.62403   0.14087299 
   40900    -940.9064    47.501194    -893.4052    1701.3205   -2092.3283    2.1578381    189.25977   0.14126273 
   41000   -936.22893    48.215817   -888.01311    1726.9157   -3506.0162    2.1412789    185.56588   0.14101682 
   41100    -942.4092    50.315038   -892.09416    1802.1022    3688.2526    2.1733481    181.38745   0.14182026 
   41200    -946.4264    49.728376   -896.69803    1781.0901    3548.9391    2.1844028    184.60452   0.13122933 
   41300   -940.27168    52.476127   -887.79556    1879.5046   -13122.881     2.125815     190.4115   0.12591644 
   41400   -936.11562     46.27824   -889.83738    1657.5187    4218.5831    2.1631101    185.38817   0.15961461 
   41500   -944.69377    51.140408   -893.55336     1831.664    12950.001     2.205153    194.43343   0.13362246 
   41600   -936.45451    52.868764   -883.58575    1893.5674   -10451.698    2.1239512    191.41911   0.16767564 
   41700   -942.01162      53.6593   -888.35232    1921.8815   -6429.7348     2.146057     186.9821   0.15516713 
   41800   -945.30934    54.295387   -891.01395    1944.6639    8933.5883    2.1939877    178.08158   0.14709236 
   41900   -942.96145     51.54874   -891.41271    1846.2889   -2295.0566    2.1577457    184.28539    0.1263289 
   42000   -933.80708    50.730718   -883.07637    1816.9903   -11895.053    2.1187482    191.37223   0.17458802 
   42100   -940.97371    48.992504   -891.98121    1754.7338    10796.525    2.1892153    189.52322   0.13859431 
   42200   -942.28671    50.561567   -891.72514     1810.932    2636.4602    2.1710996    189.26004   0.14929833 
   42300   -938.94851    53.277927   -885.67058    1908.2221   -10877.804    2.1293611    188.77711   0.15776374 
   42400   -942.96321    50.999645   -891.96357    1826.6223   -659.66228    2.1608825    187.04628   0.14587532 
   42500   -945.60206    52.011912   -893.59014    1862.8781    2127.7789    2.1728221    195.02036   0.14961988 
   42600   -941.12048    53.415406   -887.70508    1913.1461   -4877.1022    2.1529588    188.65317   0.19441425 
   42700   -938.60378    50.883864   -887.71991    1822.4755   -4236.9637    2.1470913    193.98214   0.15933321 
   42800   -942.77472    47.327023    -895.4477    1695.0823    5330.7298    2.1801272    180.14452   0.16900084 
   42900   -934.01783    47.152909   -886.86493    1688.8462    2487.8441     2.157319    187.68456    0.1784507 
   43000   -940.80678    53.355635   -887.45115    1911.0053   -8087.4195    2.1418523    199.17016    0.1615904 
   43100    -943.7357    47.994601    -895.7411    1718.9926    4129.9036    2.1788374    197.05028   0.14091468 
   43200   -939.16754    50.067428   -889.10011    1793.2337    4010.8352    2.1717873    192.29511   0.16105919 
   43300   -939.44465    51.634404   -887.81025    1849.3571   -8362.8621    2.1394548    206.84582   0.18545832 
   43400   -948.82293    53.160631    -895.6623     1904.021   -4982.1244    2.1655253    211.07655   0.14774563 
   43500    -941.6884    51.772431   -889.91597    1854.3007    12075.922    2.1940598    188.37629   0.16322542 
   43600   -938.10508    52.183851   -885.92123    1869.0363   -5763.7952    2.1389458    193.64418   0.15870646 
   43700   -941.10721    48.654336   -892.45288    1742.6219    -13759.95    2.1313134    189.82046   0.15908531 
   43800   -939.56468    48.837517   -890.72716    1749.1828    13541.511    2.1920238    177.58755   0.16443107 
   43900   -939.55937    57.369489   -882.18988     2054.767    235.59884    2.1517139    191.50582   0.16192938 
   44000   -941.52351    51.215843   -890.30767    1834.3658   -10451.155    2.1406208    187.96853   0.17261075 
   44100   -938.80772    47.938324   -890.86939    1716.9769    3235.0102    2.1628107    180.68683     0.168741 
   44200   -934.23224    52.824807   -881.40743     1891.993    6538.1973    2.1627429    178.04081   0.16858825 
   44300   -938.52583    49.490429    -889.0354    1772.5677   -4859.4136    2.1491961    180.29737   0.18225745 
   44400   -941.75286    49.644984   -892.10788    1778.1033   -7659.4365    2.1447649    136.51348   0.17725633 
   44500   -936.41599    53.738987     -882.677    1924.7356    7222.4347    2.1643391    176.33808   0.18960051 
   44600   -942.52422    52.308295   -890.21593    1873.4934    2647.2125    2.1702364    167.72139   0.16028618 
   44700   -941.78061     48.51274   -893.26787    1737.5504   -9488.7298    2.1394939    163.08867     0.176565 
   44800   -934.67193    49.976532    -884.6954    1789.9781     339.6231    2.1491076    159.08525   0.16239307 
   44900   -939.94801    49.855158   -890.09285     1785.631    8735.5791    2.1765082    191.89962   0.15954242 
   45000   -943.40521    49.391383   -894.01383    1769.0202   -2340.1547    2.1600196    186.11987   0.15039463 
   45100    -937.1024       51.154    -885.9484    1832.1508   -3539.5664    2.1448123    177.01744   0.17210042 
   45200   -942.71139    54.293753   -888.41763    1944.6053   -3479.8187    2.1563746    138.40799   0.14222171 
   45300   -944.04269    47.978215   -896.06448    1718.4057    3606.5269    2.1749217    147.48264   0.12901324 
   45400   -937.60924    50.150713   -887.45853    1796.2167    -603.1025     2.151608     145.5442   0.14332924 
   45500   -936.84262    47.957885   -888.88474    1717.6775    2345.7618    2.1553576    138.30571    0.1500219 
   45600    -942.5771    46.712628   -895.86447    1673.0769    3611.4335    2.1734687    137.76573   0.14248549 
   45700    -935.9738    49.817117   -886.15668    1784.2685   -294.16938     2.152109    134.63662   0.14412048 
   45800   -941.86718    53.088559   -888.77862    1901.4397   -3247.3603    2.1584925    141.74578   0.16681434 
   45900   -944.86421    49.944391   -894.91982     1788.827   -569.04546    2.1688901    139.32918    0.1430845 
   46000   -937.75911     52.00614   -885.75297    1862.6713   -429.93854    2.1513323    141.43026   0.16186841 
   46100   -937.29234    49.316096   -887.97624    1766.3237    3896.9882    2.1623304    141.11968    0.1519355 
   46200   -943.81122    50.037968   -893.77325    1792.1786   -875.26415    2.1675762    145.87984   0.13839278 
   46300   -936.07373    50.550063   -885.52367    1810.5199   -1226.4821    2.1486481    143.41496   0.16580986 
   46400   -935.74519    49.021484   -886.72371    1755.7718    3681.3102    2.1595425    140.68404   0.17083124 
   46500   -945.46823    52.000367   -893.46786    1862.4646   -1458.1265     2.168645    142.75871   0.17181666 
   46600   -938.53233    51.011972   -887.52036    1827.0639   -1976.3041    2.1536176    137.74566   0.16478023 
   46700   -937.33705    52.673127   -884.66393    1886.5604   -2386.5628    2.1480515    138.06706   0.16159423 
   46800   -942.64001    48.447216    -894.1928    1735.2036    5063.3386    2.1789933    136.95784   0.14449998 
   46900   -937.83082    48.552187   -889.27863    1738.9633    1375.1851     2.161615    142.90852   0.15606859 
   47000   -937.35717    50.882841   -886.47433    1822.4388   -7505.0041      2.13809    138.08142   0.16459154 
   47100   -941.60098    45.022183    -896.5788    1612.5313    10910.328    2.1903978    146.57378   0.15907248 
   47200   -939.56924    49.521544    -890.0477    1773.6821    1608.6994    2.1620105    142.56538   0.16108525 
   47300   -938.14259    49.660441   -888.48215    1778.6569   -6882.0037    2.1367851    146.01872   0.16744729 
   47400   -944.10829    48.242267   -895.86603     1727.863    2397.1137    2.1750221    135.71812   0.13360096 
   47500   -944.79153    51.098771   -893.69276    1830.1727    4808.8738    2.1867019    144.35628   0.13348751 
   47600   -937.10109    49.170064   -887.93103    1761.0934   -7040.5424    2.1364634    139.66724   0.16225356 
   47700   -944.70825    52.701437   -892.00682    1887.5743   -9670.1089    2.1438649    149.29643   0.14783897 
   47800    -942.2828    48.344893   -893.93791    1731.5387    15270.033    2.2031196    134.64405   0.14203496 
   47900   -935.55825    52.094056   -883.46419    1865.8202   -4517.1859    2.1356068    139.28169   0.16045993 
   48000   -939.16626    48.581151   -890.58511    1740.0007   -8399.1951    2.1338575     140.7802   0.15407874 
   48100   -939.12907    48.070187   -891.05889    1721.6998    11508.693    2.1848445    139.74479   0.14384318 
   48200   -934.73169    48.753638   -885.97805    1746.1785    5685.1032    2.1616627    142.64761   0.16957087 
   48300   -938.88117     53.96466   -884.91652    1932.8184   -12271.141    2.1259385    145.47873   0.15099714 
   48400   -941.92193    49.474869   -892.44706    1772.0104    1747.6214    2.1689763    139.09955   0.12961668 
   48500   -939.39746    50.248349   -889.14912    1799.7136    6044.3364    2.1746145    140.99373   0.14560233 
   48600   -935.90982    51.716071   -884.19375    1852.2821   -5582.4746    2.1383828    143.64763    0.1604978 
   48700   -940.67969     45.84553   -894.83416    1642.0206    3905.4797    2.1718685    139.38646   0.15620296 
   48800   -941.71877    51.186646   -890.53212      1833.32    -784.1069    2.1660216    141.82658   0.17355496 
   48900   -940.10446    54.040336   -886.06413    1935.5288   -4207.7561    2.1471715    140.01402   0.14281071 
   49000   -942.61795    46.362599   -896.25535    1660.5402    1443.8112    2.1698683    137.83996   0.13916695 
   49100   -940.97438    48.443604   -892.53078    1735.0742    63.245931    2.1649622    142.82348   0.14202267 
   49200   -941.72207    54.803949   -886.91812    1962.8787   -870.38491    2.1590283    146.55397   0.15878564 
   49300   -944.61736    50.383374   -894.23398    1804.5498   -3246.9457    2.1600202    147.05311   0.15311735 
   49400    -945.6102    50.866637   -894.74357    1821.8585   -3244.5241    2.1616218    148.45658   0.15872334 
   49500   -936.36914    49.822878   -886.54626    1784.4748    6144.2017    2.1682072    143.89929   0.15881671 
   49600   -941.58168    49.708723   -891.87296    1780.3862   -3656.4706    2.1514748    143.68032   0.15418854 
   49700   -942.27807    46.560966    -895.7171     1667.645    -2105.376    2.1568015    144.16798   0.15489884 
   49800   -940.97961    56.061634   -884.91798    2007.9244    5977.1293    2.1691343     141.4782   0.13329995 
   49900   -937.24954    49.222392   -888.02715    1762.9676    4683.8818    2.1656803    136.94312   0.16489774 
   50000    -940.5624    46.789688   -893.77272    1675.8369   -10644.772    2.1378367    144.86592    0.1674577 
   50100   -938.61412    51.825327   -886.78879    1856.1953    3879.6964    2.1644521    142.51267   0.15360328 
   50200   -936.69725    53.738105   -882.95915     1924.704     8721.369    2.1708663    143.61648   0.16321208 
   50300   -941.50174    48.788769   -892.71297    1747.4368   -8552.5116    2.1409238    137.55901   0.16042848 
   50400   -941.07893    50.219164   -890.85977    1798.6683   -3317.2859    2.1565525    142.88351   0.15256519 
   50500   -934.05211    50.685471   -883.36664    1815.3698    11855.369    2.1727842    146.63921    0.1558517 
   50600   -938.40728    48.901246   -889.50604    1751.4653   -4178.2833     2.142073    142.15381   0.13842602 
   50700   -941.76583      47.7307   -894.03513    1709.5406   -5614.3574    2.1498606    143.58059   0.13439418 
   50800   -938.15761     51.53483   -886.62278    1845.7907    7712.8584    2.1764319    142.57285    0.1488529 
   50900   -940.05279    48.912417   -891.14037    1751.8654   -2221.5413    2.1553432    145.89719   0.14795724 
   51000   -948.64554    51.426052   -897.21949    1841.8947   -5834.4006    2.1580556    141.42792   0.13699333 
   51100   -941.64564    53.556858   -888.08878    1918.2124    721.32359    2.1626313    140.84273   0.15057067 
   51200   -940.00828    49.979917   -890.02836    1790.0994    126.88099    2.1624495    143.86763   0.14760075 
   51300   -947.27016    49.312533   -897.95763    1766.1961   -3681.5705    2.1666084    143.60822   0.12706709 
   51400   -940.96728    52.702328   -888.26496    1887.6063   -183.36945    2.1560625    141.31736   0.13694679 
   51500   -938.87069    50.302266   -888.56842    1801.6448    2630.8313    2.1671396    141.66111   0.14504175 
   51600   -942.46548    47.122543   -895.34293    1687.7586    -1426.878    2.1633001    140.11276   0.15716423 
   51700   -938.66209      51.0606   -887.60149    1828.8055   -1229.1979    2.1527069    140.18093   0.15300547 
   51800   -940.53061    54.056294   -886.47432    1936.1004    2601.8379    2.1646313    146.55021   0.14711938 
   51900   -941.79191    48.665698   -893.12621    1743.0288   -2088.4924    2.1579419    143.70324   0.13825378 
   52000   -936.34304    47.676523   -888.66652    1707.6001   -400.71923     2.152485    138.23892   0.13625295 
   52100   -938.04583    54.522755   -883.52307    1952.8074   -116.83032    2.1554676    138.21501   0.14704261 
   52200   -943.42159    51.141621   -892.27996    1831.7074   -502.77552    2.1613715    143.97774   0.13770994 
   52300   -942.08494    51.797319   -890.28762    1855.1921   -638.17324    2.1571941     142.2913   0.13129292 
   52400   -936.00567    54.380396   -881.62527    1947.7086   -248.86144    2.1502343    136.23912    0.1538465 
   52500   -937.82967    45.995544   -891.83413    1647.3936    6028.6941    2.1705207    142.99351   0.13401028 
   52600   -941.75269    49.979963   -891.77273     1790.101   -7064.3016      2.14982    147.45758   0.15982275 
   52700    -938.4388    53.374875   -885.06393    1911.6945    985.55184    2.1554224    138.16519   0.15672451 
   52800   -945.14592    51.397067   -893.74885    1840.8565    3546.1647     2.181373    142.61018   0.16273227 
   52900   -942.14813    48.398009   -893.75012    1733.4412   -7486.2913    2.1479416    140.13131   0.15087838 
   53000   -939.47775    51.325882   -888.15187     1838.307   -169.07291    2.1579356    133.63531   0.14110816 
   53100   -942.96627    51.408877   -891.55739    1841.2795    4803.6053      2.18144    136.14643   0.14040752 
   53200   -948.56448    50.693266   -897.87121    1815.6489   -4852.7535    2.1661097    140.49786   0.14442163 
   53300   -934.84917    45.645401   -889.20377    1634.8527   -3589.1526    2.1401612     141.9112   0.19677056 
   53400   -941.28414    52.892976   -888.39116    1894.4346    7044.1938     2.179057    150.71983   0.16239925 
   53500   -942.85805    46.720343    -896.1377    1673.3532    3948.1201    2.1780914    143.45567   0.14470136 
   53600   -940.01634    53.180672   -886.83567    1904.7388   -13974.675    2.1255327    132.78433   0.17177169 
   53700   -940.19911    53.179129   -887.01998    1904.6835    5574.5381    2.1705464    132.38227   0.15661061 
   53800   -944.80069    52.586576   -892.21411    1883.4604    5333.1212    2.1815664     142.9245   0.16494128 
   53900   -938.39811    49.663765   -888.73435     1778.776   -7343.7286    2.1354176     148.1738   0.17479871 
   54000   -935.20178    51.595281    -883.6065    1847.9559   -1119.3175    2.1455763    155.68288   0.17244982 
   54100   -939.00733    48.333456   -890.67388    1731.1291     11724.92    2.1917846    145.48734   0.17169665 
   54200   -942.53981    49.754159   -892.78565    1782.0135   -3923.2593    2.1564506    149.59929   0.16195259 
   54300      -933.36    49.315544   -884.04446    1766.3039    -8270.264    2.1304509    138.82692   0.18692029 
   54400   -940.21017    48.321972   -891.88819    1730.7178    13817.823    2.1989829    134.09173   0.16857377 
   54500    -939.9594    47.693648   -892.26576    1708.2135    3158.1111    2.1681988    154.47455   0.17328205 
   54600   -939.03564    51.364737    -887.6709    1839.6986   -21996.484    2.0996706    171.47347   0.19087481 
   54700   -938.39498    54.975173   -883.41981    1969.0113    9040.4895    2.1783034    168.53301   0.15198614 
   54800   -939.57566    48.978627   -890.59704    1754.2368    15999.209    2.2004924    146.98863   0.14555311 
   54900   -938.80093    47.938427   -890.86251    1716.9806   -15704.133    2.1167288    151.98535   0.16791143 
   55000   -935.52023    52.190852   -883.32937     1869.287   -5075.0368     2.141196    160.04416   0.21046906 
   55100   -938.92396    50.651962     -888.272    1814.1696    11580.469    2.1903729    151.20893   0.16677543 
   55200   -936.55464    44.066613   -892.48803    1578.3063   -2277.8983    2.1492128    156.45121   0.15921106 
   55300   -935.95015    53.284464   -882.66568    1908.4563   -4673.0178    2.1396231    153.20419   0.16514309 
   55400    -936.8367    49.399822   -887.43688    1769.3225    10111.091    2.1848429    151.73389   0.17116531 
   55500   -939.15602    47.248533   -891.90749    1692.2711   -3515.9831    2.1548092    160.65657   0.16259239 
   55600   -939.83041    53.387534   -886.44288    1912.1479   -9105.0804    2.1317413    172.24288   0.19370538 
   55700   -935.60364    51.691725   -883.91191    1851.4101    8441.7653    2.1768876    208.34419   0.20331373 
   55800   -941.88965    48.435214   -893.45443    1734.7737    6636.6429    2.1789352    213.08778    0.1754709 
   55900   -934.74503    45.216395   -889.52863    1619.4873   -6151.7582    2.1313212    242.36932   0.18162714 
   56000   -939.76584    53.219132   -886.54671    1906.1163    525.84263    2.1593894    250.54309   0.16508014 
   56100   -942.40349    47.458715   -894.94478    1699.7991    10242.549     2.191538    244.48007   0.16162718 
   56200    -939.5294    50.305451   -889.22395    1801.7588   -6239.4862    2.1431015    259.08432   0.15726809 
   56300   -938.95652    51.687293   -887.26923    1851.2514   -3278.0651    2.1455253    255.84089   0.15637609 
   56400   -944.39978    51.546113   -892.85367    1846.1948    6333.4626    2.1808326    244.29673    0.1415254 
   56500   -943.28961    49.189682   -894.09993     1761.796    -1061.586    2.1646054    246.79265   0.14420214 
   56600   -937.43472    52.048245   -885.38648    1864.1794   -9553.7175    2.1282557    255.12822   0.16497243 
   56700   -945.65687     53.80613   -891.85074    1927.1404    1858.2956    2.1783051    247.60538   0.14330318 
   56800   -938.42186    45.800661    -892.6212    1640.4136    7219.2876    2.1820614    248.39833    0.1507905 
   56900   -935.27098    51.565758   -883.70522    1846.8984   -10988.586    2.1214645    274.67317   0.18281355 
   57000    -939.0331    50.013571   -889.01953    1791.3047    1626.4916    2.1592653    270.46109   0.16672136 
   57100   -938.33489    47.820728   -890.51416    1712.7651    15042.374    2.1940275    276.73842   0.15601699 
   57200   -938.59394    51.412937     -887.181     1841.425   -13452.074    2.1225908    265.50192   0.17886758 
   57300   -931.40659    46.574889    -884.8317    1668.1436   -8846.5843    2.1134477     267.0094   0.18837719 
   57400   -944.91843    54.384902   -890.53353      1947.87    19523.504    2.2198532    253.29807   0.16408984 
   57500   -940.93698    48.827533   -892.10944    1748.8251    213.42047    2.1591827    257.01553   0.16927066 
   57600   -940.92094    54.905129   -886.01582    1966.5026   -15213.851     2.119508    273.25834   0.18130868 
   57700   -941.36141    48.787239   -892.57418     1747.382    7672.3289    2.1800241    267.39058   0.16660273 
   57800   -946.38746    53.327853   -893.05961    1910.0103    3635.4634    2.1790307    276.10273   0.17403651 
   57900   -936.72189    50.942923   -885.77897    1824.5908   -7268.2342    2.1375476    262.99325   0.17923552 
   58000   -944.66256    53.894264   -890.76829    1930.2971   -5233.8125    2.1574987    255.76472   0.16847707 
   58100    -941.4819     48.48223   -892.99967    1736.4577    8004.1149    2.1829308    282.08344    0.1664298 
   58200   -937.33934    52.913632    -884.4257    1895.1744   -2022.1151    2.1461315    257.06561   0.20100411 
   58300   -938.27768    47.655805   -890.62188    1706.8581   -5517.4423    2.1444012    265.03968   0.19167466 
   58400   -942.02414    50.488887   -891.53525    1808.3288     8300.653    2.1799324    265.79901   0.17363161 
   58500   -936.18519    54.636005   -881.54918    1956.8636    2358.9818    2.1579901    258.67105   0.18612598 
   58600   -939.15714    50.515998   -888.64114    1809.2999   -8050.6906     2.137516    281.03706   0.17417606 
   58700   -940.60771    48.870365   -891.73735    1750.3593   -897.20893    2.1606661    262.40334   0.17146862 
   58800    -937.2064    53.575143   -883.63125    1918.8673    10360.213    2.1774665    278.84967   0.16045065 
   58900   -936.53672    49.954668   -886.58205     1789.195   -4418.2602    2.1424191    257.77595   0.17140095 
   59000   -938.71796    45.567181   -893.15078    1632.0512   -6585.9242     2.141894    272.97158   0.18990464 
   59100   -940.38947    55.198921   -885.19055    1977.0252     14183.88    2.1902427    271.38609   0.17007189 
   59200   -940.70763    51.274633   -889.43299    1836.4714   -913.43408    2.1587261    278.76131   0.17539094 
   59300   -943.65313    46.574332    -897.0788    1668.1237   -13743.787    2.1358209     256.1427   0.17373258 
   59400    -938.1104    49.058917   -889.05148    1757.1125    8506.6169    2.1740933     295.0497   0.16142381 
   59500   -937.11806    50.343723   -886.77434    1803.1296    4827.6041    2.1654421    307.78888   0.16523219 
   59600   -945.42677    51.032736   -894.39403    1827.8075   -8688.3151    2.1474518    308.03156   0.14081941 
   59700   -942.80769    49.738405   -893.06928    1781.4493    796.21706    2.1648703    296.91849   0.16155684 
   59800   -939.37272    53.059004   -886.31372    1900.3811    2025.2731    2.1618519    320.17963   0.14544808 
   59900   -943.27124    50.049836   -893.22141    1792.6036   -4020.9892    2.1579601    322.02966   0.13205363 
   60000   -942.56421    48.270642   -894.29357    1728.8793   -747.20376    2.1629758    313.65446   0.13239002 
   60100   -937.48856    52.613876   -884.87469    1884.4382    931.10467    2.1517739    318.69143   0.13564022 
   60200   -940.76768    49.601316   -891.16637    1776.5392    2055.6487    2.1613753    317.44333    0.1440785 
   60300   -942.83599    48.659885   -894.17611    1742.8206    -1031.106    2.1632929    314.82507   0.13213889 
   60400   -931.72991    48.098285   -883.63162    1722.7062   -651.55167    2.1435003    323.97514   0.16500677 
   60500   -936.75906    46.254505   -890.50456    1656.6686    7897.2703    2.1751354    320.95771   0.14750595 
   60600   -940.04519     47.72436   -892.32083    1709.3135   -2224.1937    2.1596237    348.02888   0.14686912 
   60700   -935.26735     50.49099   -884.77636    1808.4042   -7414.3178    2.1386767    346.13332   0.18328416 
   60800   -942.59682    51.641807   -890.95501    1849.6222    3233.8971     2.174472      335.981   0.16073068 
   60900   -943.22233    50.534112   -892.68822    1809.9486    5440.8295    2.1781122    338.98613   0.14554586 
   61000   -938.96506    53.267987   -885.69708    1907.8661   -11673.591    2.1299199    404.65527   0.18419177 
   61100   -939.92017    51.490661   -888.42951    1844.2087    -5693.249    2.1518302    371.55037    0.1514164 
   61200   -938.77695    46.625517   -892.15144    1669.9569    15487.622    2.2010117    364.69916   0.16810071 
   61300   -938.31488    54.158806   -884.15607     1939.772   -5172.7537    2.1408116    349.03531   0.17064761 
   61400   -937.66198    50.495713   -887.16627    1808.5733   -9761.0549    2.1268713    384.13783   0.18846317 
   61500   -942.35029    50.853113   -891.49718    1821.3741    9178.0858    2.1862674    361.77565    0.1851851 
   61600   -941.18043    51.087001   -890.09343    1829.7511    4274.7352    2.1747636    375.59425   0.19599943 
   61700   -932.93741    49.788021   -883.14939    1783.2264   -9626.8699    2.1196111    381.02182   0.18603284 
   61800   -943.54456    51.209752   -892.33481    1834.1476    2453.1094    2.1734381    391.48111   0.16401511 
   61900   -942.64757    52.341582   -890.30599    1874.6856    2724.2856     2.171789    382.66747   0.16479011 
   62000   -938.14898    53.993074    -884.1559    1933.8361     -6457.95    2.1367476    371.48671   0.15940609 
   62100   -942.65704     48.61711   -894.03993    1741.2886   -148.53947    2.1663323    415.10746   0.13234246 
   62200   -940.69424    50.449984   -890.24425    1806.9355   -1911.7973     2.156989    394.54373   0.15616048 
   62300   -935.15315    49.100727   -886.05243      1758.61    1039.3224    2.1525996    389.40255   0.14897585 
   62400   -942.50234    48.650803   -893.85154    1742.4953    928.45289    2.1632945    402.32488   0.17125589 
   62500     -944.585    50.645985   -893.93901    1813.9555   -372.09664    2.1718607    332.35759   0.15126284 
   62600   -940.70427    53.570449   -887.13382    1918.6992    -2879.764    2.1526764    324.50889   0.15977707 
   62700   -943.85346     51.10618   -892.74728     1830.438   -3637.1809    2.1562619    321.41827   0.15374955 
   62800   -945.95438    50.661606   -895.29277     1814.515    758.44524    2.1770877    319.68322   0.13615789 
   62900   -939.77225    53.909256   -885.86299     1930.834    553.99179    2.1603916    330.12415   0.15323828 
   63000   -941.91739    50.538244   -891.37915    1810.0966   -9886.2342     2.141234     333.5146   0.16334367 
   63100   -943.23124    48.060689   -895.17055    1721.3596    3051.5695    2.1766916     336.4081   0.14495306 
   63200   -937.33165    52.874811   -884.45684     1893.784    9523.7407    2.1756662    310.02735   0.15572996 
   63300   -938.29753    49.661675   -888.63586    1778.7011   -8102.6995    2.1389808    326.53981   0.16020985 
   63400   -937.37755    43.743631   -893.63392    1566.7382   -1664.5964    2.1528143    319.55691    0.1544841 
   63500   -938.90435    48.935845   -889.96851    1752.7045    12120.127    2.1910863    318.10752   0.15872272 
   63600   -935.67238    51.309527   -884.36285    1837.7212   -3573.4484    2.1411673    327.78765   0.15966362 
   63700   -940.72738    47.204264   -893.52312    1690.6855   -7566.9576    2.1431452    329.32532   0.15482993 
   63800   -941.63335    51.618823   -890.01453     1848.799    9307.7593    2.1830097    307.72766   0.14651636 
   63900   -933.48232    50.669003   -882.81332    1814.7799    3709.9269    2.1563834    331.96855   0.16510968 
   64000   -939.06887    47.830947   -891.23792    1713.1311   -9486.5765     2.136263    327.74987   0.17399005 
   64100   -943.82063    51.277654   -892.54298    1836.5796    -276.0932    2.1666475    317.76188   0.14133132 
   64200   -938.52652    53.049637   -885.47688    1900.0456    9760.1104    2.1809837    330.72416   0.15735046 
   64300   -941.41575     51.76888   -889.64687    1854.1736    -8628.382    2.1379155    296.82444   0.18522334 
   64400   -942.49918    47.688412   -894.81076     1708.026   -1226.6874     2.163386    315.18965   0.16967179 
   64500   -936.89628    52.217188   -884.67909    1870.2303    3184.6031    2.1628071    307.76115   0.17359363 
   64600   -939.77177    51.218247   -888.55352    1834.4519   -2376.4227    2.1541767    293.20305   0.17798607 
   64700   -942.80759     48.50848   -894.29911    1737.3978   -1593.5903    2.1645813     294.3454   0.16426868 
   64800   -938.67203    53.949056   -884.72297    1932.2595    507.08347    2.1550247    239.27223   0.17221884 
   64900   -935.04731    48.903952   -886.14336    1751.5622    2390.5085    2.1564668    291.99916   0.18464318 
   65000   -941.53277    48.596697   -892.93607    1740.5574   -3795.2181    2.1561394    316.61147   0.18601651 
   65100   -937.42658    50.774759   -886.65182    1818.5677    1885.1662    2.1606225    309.03179    0.1866756 
   65200   -935.29048    52.494023   -882.79645    1880.1455    2820.3807    2.1585379    327.47498   0.20027749 
   65300   -943.15981    51.835956   -891.32385    1856.5759   -2279.8099    2.1588901    294.34789   0.17485332 
   65400   -941.79357    52.549383   -889.24419    1882.1283    1002.5574    2.1601899    308.50065   0.16518538 
   65500   -938.14403     57.41223    -880.7318    2056.2979    3894.2663    2.1606692    316.11043   0.18454914 
   65600   -939.83193    49.815299   -890.01663    1784.2034   -178.34374    2.1605141    314.65426   0.16085204 
   65700   -939.89971    48.388388   -891.51132    1733.0966   -11660.111    2.1381617      296.317   0.18917442 
   65800   -938.19487    54.112422   -884.08245    1938.1107    10867.818    2.1819203     283.3995   0.17617492 
   65900   -940.79526    48.303027   -892.49223    1730.0393    8772.9126    2.1878116    281.27074   0.16191624 
   66000   -937.44577    42.334166   -895.11161    1516.2563   -15583.857    2.1190954    317.33162   0.20007096 
   66100   -937.04846    49.448472   -887.59999     1771.065    2376.2131    2.1646667    309.23002   0.15651915 
   66200   -941.39411    53.751203   -887.64291    1925.1732    9166.8701    2.1882911    294.68914   0.16301616 
   66300    -943.2041    47.400928   -895.80317    1697.7293   -6959.3431    2.1502558    316.20009   0.16549397 
   66400   -940.91167    52.908866   -888.00281    1895.0037   -5457.6091    2.1442834    317.42327   0.15847068 
   66500   -937.07785    52.556192   -884.52166    1882.3722    7436.7343    2.1735254    288.67805   0.18355679 
   66600    -944.8263    51.400299     -893.426    1840.9723   -2241.7468    2.1611717    282.91526   0.15017587 
   66700   -944.47896    56.209583   -888.26938    2013.2234   -13036.875    2.1331604     305.3778   0.15977852 
   66800   -937.01965    53.008222   -884.01143    1898.5623    5281.6783    2.1568691    296.94815   0.19300123 
   66900   -943.63696    51.506691   -892.13026    1844.7829    5092.1865    2.1792332      314.374   0.17271816 
   67000    -938.9511     50.02388   -888.92722     1791.674   -2217.1272    2.1443113    315.12616   0.17369688 
   67100   -935.86985    51.487246    -884.3826    1844.0864   -3609.4919    2.1398461    335.26775   0.19429651 
   67200    -944.1394    51.507299    -892.6321    1844.8047    3385.5637    2.1765834    378.36408     0.132671 
   67300   -939.79964    46.933899   -892.86574    1681.0021   -723.66914    2.1573307    390.69253   0.15902819 
   67400   -935.66607    50.570702   -885.09537    1811.2592   -7308.0832    2.1306437    389.68354   0.16668378 
   67500   -942.17885    48.836404   -893.34245    1749.1429    7695.6794    2.1827037    380.49682   0.13907736 
   67600   -945.89978    53.816473    -892.0833    1927.5109    1777.4616    2.1701055    392.19149   0.13282277 
   67700   -937.17031    50.377049   -886.79326    1804.3232   -13526.592    2.1158876    388.82364   0.16487459 
   67800   -942.76003    48.717792   -894.04224    1744.8946    4389.0302    2.1770481    378.89592   0.14596985 
   67900   -943.84501     50.36438   -893.48063    1803.8694    13998.012    2.2010754    380.56701   0.14389275 
   68000   -938.99369    50.636205   -888.35749    1813.6052    -12230.46    2.1244372    395.80806    0.1573586 
   68100   -940.75739    52.679155   -888.07823    1886.7763   -6815.9931    2.1402116    400.19651   0.14044395 
   68200   -946.12033    51.919064   -894.20126    1859.5526    13783.409    2.2035488    371.61132   0.14385656 
   68300   -938.31562    52.388458   -885.92716    1876.3646   -3339.6729    2.1462387     392.6293   0.14555969 
   68400   -939.74771    52.228864   -887.51885    1870.6485   -5892.3096    2.1390554    389.93977   0.14992147 
   68500   -943.29359    50.167132   -893.12646    1796.8047    2941.4548    2.1765579    387.20253   0.13960149 
   68600   -939.67241    48.947014    -890.7254    1753.1045    3736.1875    2.1714091    390.17746   0.13498788 
   68700   -937.24649    52.240041   -885.00645    1871.0488   -9313.2984    2.1322272    396.17093   0.15484285 
   68800   -944.70342    51.201442   -893.50198      1833.85    368.64454    2.1685445    398.77084    0.1378265 
   68900   -943.92263      53.1501   -890.77253    1903.6438     4525.921    2.1785726    378.73197   0.13512982 
   69000   -935.83496    51.109198   -884.72576    1830.5461   -5076.6023    2.1348461    393.95246   0.16642499 
   69100   -943.03224    47.893775   -895.13847    1715.3813   -155.32664    2.1634335    396.27876   0.13874921 
   69200   -944.00663    52.493335   -891.51329    1880.1209    3611.4125    2.1727458    381.89937   0.14092603 
   69300    -940.7093     54.58853   -886.12077    1955.1632    -2251.432    2.1504161    385.79782   0.13798114 
   69400   -942.12991    48.722254   -893.40765    1745.0545   -5536.6874    2.1524887    395.09825   0.13053006 
   69500   -943.16578    49.075766   -894.09002     1757.716    1784.8488    2.1732992    375.40227    0.1381949 
   69600   -936.53208    50.269817   -886.26226    1800.4825    7554.6869    2.1728337    381.46342   0.16097496 
   69700   -943.49492    51.426561   -892.06836    1841.9129   -9374.1367    2.1401055    386.19897   0.14820382 
   69800   -943.88877    47.510442   -896.37833    1701.6517   -4906.7788    2.1570331    388.58054   0.14836609 
   69900   -938.82346    53.142648   -885.68081    1903.3769      17483.8    2.1991151    378.62328   0.15536814 
   70000   -938.68885     50.17036   -888.51849    1796.9203   -3697.3994     2.143315    383.14596   0.14773142 
   70100   -940.84985    46.809606   -894.04025    1676.5503    -11572.49    2.1330421    388.32813   0.15576191 
   70200   -947.10968    57.258141   -889.85153     2050.779    10040.815    2.1976039    388.43385   0.14699957 
   70300   -940.62582    56.889575   -883.73625    2037.5783   -1880.3281    2.1550075    385.14915   0.15231142 
   70400   -938.41077    44.879801   -893.53097    1607.4317   -9897.2518    2.1408783    389.84944    0.1640135 
   70500   -939.05943    47.917054   -891.14238    1716.2151    3566.9789    2.1727559    378.07464   0.15338961 
   70600   -929.66825    46.528305   -883.13994    1666.4752    10417.623    2.1708247    394.68122   0.15716358 
   70700   -938.41286    46.781641   -891.63122    1675.5487   -6686.9409    2.1477358    384.23492   0.16621402 
   70800   -942.08372    48.826132   -893.25759     1748.775   -5082.1449    2.1552556    386.01962   0.14198342 
   70900   -934.91508    50.396673   -884.51841     1805.026    9611.9234    2.1771059    385.77401   0.16262635 
[...]
  186800   -942.44589     46.73404   -895.71185    1673.8438   -8925.9191    2.1460063    732.64339   0.14878231 
  186900   -937.29003    46.967328    -890.3227    1682.1994    8349.2565     2.180992    721.42319   0.15284138 
  187000   -936.07434    47.048664   -889.02567    1685.1125    3996.9255    2.1616351    713.42736   0.15355633 
  187100   -937.26957    51.185923   -886.08365    1833.2941   -4080.2924    2.1383877    717.16498   0.15603613 
  187200   -931.86186    58.089093   -873.77276    2080.5407    4041.0844    2.1455212    692.65861   0.16728699 
  187300   -939.55254    55.071248   -884.48129    1972.4524     5477.969    2.1705138    698.65128   0.16166755 
  187400   -937.91576    48.995112   -888.92065    1754.8272   -8963.6982    2.1355882    733.92589   0.14506789 
  187500   -940.77481    49.282621   -891.49219    1765.1248    358.42358    2.1656117    733.96749   0.14830362 
  187600   -941.53618    46.423559   -895.11262    1662.7235    9111.5906    2.1894121    705.43512   0.15115395 
  187700   -935.21625     51.92222   -883.29403    1859.6656   -6350.9585    2.1320637    716.60635   0.16828433 
  187800   -943.59944    55.761468   -887.83798    1997.1736   -1207.2974    2.1609088     700.5663   0.14725665 
  187900   -941.15711    49.356827   -891.80028    1767.7826    3800.7155    2.1739177     704.3981   0.16249807 
  188000   -941.32812    48.099176   -893.22895     1722.738   -3249.1356    2.1550016    713.40767   0.14589509 
  188100   -933.75028    51.323449   -882.42683    1838.2198   -3558.4308    2.1331217    729.58734    0.1677536 
  188200   -939.18513    49.888352   -889.29678    1786.8199    9195.1217    2.1773155    706.78684   0.14248831 
  188300    -938.8967    46.625453   -892.27125    1669.9546    297.81871    2.1584969    717.83817   0.14587005 
  188400   -937.01601    52.678562   -884.33745     1886.755   -6201.3566    2.1388737    708.61987   0.17169533 
  188500   -941.63696    54.754567   -886.88239      1961.11    997.26242    2.1568674    712.95724    0.1371842 
  188600      -944.75    52.074037   -892.67596    1865.1032   -4.8422378    2.1669544    715.88596   0.14965512 
  188700    -936.3958    47.227544   -889.16826    1691.5193     2086.549    2.1522333    714.53065   0.18257035 
  188800   -932.98764    48.842254   -884.14539    1749.3524    2469.9347    2.1481171    706.25571   0.17445413 
  188900   -943.98066    48.741776   -895.23888    1745.7536    233.35079    2.1688408    701.46676   0.16436676 
  189000    -940.7768    48.042633   -892.73417    1720.7129   -1148.1171    2.1522994    713.57508   0.14846282 
  189100   -937.16389    49.376957   -887.78693    1768.5035    4842.3933    2.1618202    717.93685   0.16200546 
  189200   -942.75964    48.944544   -893.81509    1753.0161   -150.65328    2.1654171    712.38322   0.15442917 
  189300   -945.13997    48.779344   -896.36062    1747.0992   -3065.3359    2.1636656    723.16334   0.14230062 
  189400   -937.59569    49.105193    -888.4905    1758.7699    4447.4834    2.1626471    709.68652   0.15336189 
  189500   -940.37503     50.11383    -890.2612    1794.8956   -715.25331    2.1588179    727.68609   0.14742229 
  189600   -946.22236    46.891205   -899.33116    1679.4729    -3239.329    2.1662426    720.25246   0.15625234 
  189700   -940.03928    49.304842   -890.73444    1765.9206    2593.2158    2.1653571    711.17774   0.17662279 
  189800   -942.97346    54.703011   -888.27045    1959.2635    3345.3538    2.1684799    717.66145   0.14669973 
  189900   -941.97343    47.791158   -894.18227     1711.706   -5091.4203    2.1480718    723.12914   0.16476964 
  190000    -946.4819    53.240917   -893.24098    1906.8966    -2323.591    2.1616856     717.4283   0.12432514 
  190100   -938.28856    53.656704   -884.63186    1921.7885    8391.0452    2.1710683     718.5377   0.14190909 
  190200   -939.77307    49.172711   -890.60036    1761.1882   -7425.3954    2.1357366     723.4348   0.15915513 
  190300   -940.88868    48.677322   -892.21136    1743.4451   -384.71065    2.1568332    716.06479   0.13203296 
  190400   -944.13502    51.544661   -892.59036    1846.1428    14007.846    2.2004772    697.72571   0.15420614 
  190500   -932.42476    49.970062    -882.4547    1789.7464   -11976.781    2.1142737    693.44307   0.19239545 
  190600   -941.48309    51.536779   -889.94631    1845.8605   -4958.4304    2.1508523    696.96612   0.15947986 
  190700   -940.65381    50.670449   -889.98336    1814.8317    11775.804    2.1910649    700.04358   0.15857376 
  190800   -939.64347    47.985362   -891.65811    1718.6617   -4577.0126    2.1500009    719.32202   0.14783541 
  190900   -929.98557    49.546618   -880.43895    1774.5802    373.09248    2.1397796     718.6281   0.17503823 
  191000   -938.79043    54.939156   -883.85128    1967.7213    6821.0885    2.1725692    715.83203   0.13963647 
  191100   -939.38374    49.862935   -889.52081    1785.9095   -2309.3583     2.152268    701.67501   0.14357678 
  191200   -935.75893    43.628312   -892.13062    1562.6079    574.88674    2.1578104    722.11553   0.15631557 
  191300   -939.84799    45.941923   -893.90607    1645.4731    6749.2249    2.1830097    706.38878   0.16550824 
  191400   -936.44901    53.965063   -882.48394    1932.8329   -3926.2705    2.1387666    714.36634    0.1596114 
  191500   -939.34819    51.010798    -888.3374    1827.0218    670.48774    2.1586553    690.94985   0.13933004 
  191600    -940.9733    49.535388   -891.43791     1774.178    4384.2281    2.1730933    688.02205   0.14604647 
  191700   -940.82817    50.901683   -889.92649    1823.1137   -3208.4848    2.1521824    725.28338   0.14274482 
  191800   -934.05021    51.527467   -882.52275     1845.527    -5476.547    2.1308616    713.37784   0.15381435 
  191900   -940.91519    50.198152   -890.71704    1797.9158    9119.8674    2.1821699    723.23382    0.1455748 
  192000   -940.15084    48.836681   -891.31415    1749.1528    4216.8169    2.1738326    709.20002   0.16487258 
  192100   -931.89283       48.045   -883.84783    1720.7977   -11773.315    2.1140093    718.15799   0.17406844 
  192200   -941.02841    54.731836   -886.29657    1960.2959    2709.3785    2.1672246    696.43793   0.16014823 
  192300   -943.47347     52.91541   -890.55806    1895.2381    16123.784    2.2019111     703.0485   0.14895533 
  192400     -941.825    51.448258   -890.37674      1842.69   -13367.718    2.1280542    726.16615   0.15406567 
  192500   -940.92157    54.075456   -886.84611    1936.7867   -8306.8949    2.1375219    735.63175    0.1459526 
  192600   -946.88757    49.693687   -897.19388    1779.8477    13832.828    2.2084015    696.89103   0.14956697 
  192700   -942.81777    51.081815   -891.73596    1829.5654   -4792.2671     2.153025    709.00141   0.15001498 
  192800   -943.35276    54.382048   -888.97071    1947.7677   -6757.9973    2.1437463    712.70804   0.14488015 
  192900   -940.14688    49.167046   -890.97984    1760.9853    5096.5899    2.1744006    708.10789    0.1561987 
  193000   -945.31388    45.462666   -899.85122    1628.3078    3636.8873    2.1849162    710.36817   0.16124408 
  193100    -937.7935    48.214319   -889.57918     1726.862   -5332.3437    2.1387524    738.61805    0.1690269 
  193200   -942.21771    53.266745   -888.95096    1907.8216    2603.0087    2.1691812    719.95337   0.16542223 
  193300   -944.15679    50.938644   -893.21814    1824.4375    3172.2019      2.17332    716.45914   0.15485079 
  193400   -945.03231    45.918671   -899.11364    1644.6403   -8252.1477    2.1532024     715.9515   0.15124968 
  193500   -944.22729    45.377514   -898.84977     1625.258    4085.9101    2.1817926    712.85004   0.15437173 
  193600    -942.3783    51.514953   -890.86334    1845.0788    3697.1866    2.1706235     700.1751   0.15974447 
  193700    -941.5779     51.05054   -890.52736    1828.4452   -9809.9465    2.1385144    710.56387   0.15228857 
  193800    -939.4134    50.418961   -888.99444    1805.8243    614.36015    2.1584786    704.84084    0.1551223 
  193900   -947.95048    49.410809   -898.53967     1769.716    5668.7261    2.1960693    703.63927   0.16198788 
  194000   -941.35708    46.516661   -894.84042    1666.0581   -4660.8046    2.1555609    714.58062   0.15638334 
  194100   -940.59422    50.388178   -890.20604    1804.7218   -2014.1515    2.1577243    720.40578   0.16973761 
  194200   -938.39905      50.2199   -888.17915    1798.6947    9343.5149    2.1808927    716.25707   0.15431385 
  194300    -943.1347      46.4155    -896.7192    1662.4349   -4810.3954    2.1595455    708.18919   0.15693526 
  194400   -939.74831    44.312408    -895.4359    1587.1098   -11111.399    2.1345922    712.18023   0.15288222 
  194500   -940.88401    53.099651   -887.78436    1901.8369    22489.672    2.2164443    688.68848   0.13884319 
  194600   -935.52181    45.867855   -889.65395    1642.8202    561.13085    2.1557364    703.08519   0.15497147 
  194700   -940.29113    48.165662   -892.12547    1725.1194   -17052.598    2.1229088    738.62929   0.15047462 
  194800   -948.74908    51.469217   -897.27986    1843.4407    9244.3318    2.2045409    702.32891   0.14295206 
  194900   -938.47817    52.150724   -886.32744    1867.8498    2280.2625    2.1633768    705.41664    0.1714522 
  195000   -937.07363    47.595188   -889.47844     1704.687   -4084.9304    2.1449392    734.85454   0.15657326 
  195100   -942.37814    50.100814   -892.27733    1794.4295    2388.6228    2.1752671    695.87697   0.16067669 
  195200   -943.77673    44.174166   -899.60256    1582.1584    5198.8634    2.1891785    686.32359   0.15123027 
  195300   -940.52467    47.725207   -892.79946    1709.3438   -4588.4213    2.1570176    717.27899   0.13714258 
  195400   -942.19758    52.129616   -890.06796    1867.0938    2591.1438    2.1692722    703.30106   0.15052459 
  195500   -942.98363    53.001445   -889.98218    1898.3196    1598.5423    2.1649864    717.03997   0.13549086 
  195600   -941.83553    50.557484   -891.27805    1810.7857   -6350.0593    2.1523219    725.13806   0.15342422 
  195700   -948.99081    47.012651   -901.97816    1683.8227    1628.8538    2.1883871    699.05088    0.1434855 
  195800   -939.52613    46.063379   -893.46275    1649.8232    188.35234    2.1652841    711.40455   0.14727597 
  195900   -941.25725    50.970677   -890.28657    1825.5848   -3275.4927     2.156197    721.20657   0.15543122 
  196000   -939.56608    51.240301   -888.32578    1835.2418    4528.8785    2.1704472    692.26936   0.15004429 
  196100   -942.10514    44.053681   -898.05145    1577.8431    2427.6598    2.1743133    688.71064   0.15165772 
  196200   -941.98521    47.029154   -894.95606    1684.4138   -8055.6534    2.1512578    726.84755   0.14910116 
  196300   -940.28835    51.433936   -888.85441     1842.177     7957.471    2.1800562    709.96826    0.1487742 
  196400   -938.67626    48.410228   -890.26603    1733.8788     3916.109    2.1721759    717.80709   0.15990049 
  196500   -942.85174    44.951743       -897.9    1610.0084   -12374.369    2.1413471    718.73509   0.15426108 
  196600   -940.04786    44.778737   -895.26913     1603.812    7028.4297    2.1809593    705.71307   0.15288434 
  196700   -940.56525    52.789242   -887.77601    1890.7192    9421.8651    2.1870511    697.67283   0.15389667 
  196800   -937.25009    45.751899   -891.49819    1638.6671    -10669.11    2.1347517    717.48045    0.1656264 
  196900   -942.78755    50.561399   -892.22615    1810.9259   -2099.2965    2.1612654    705.92863   0.14513971 
  197000   -935.47094    54.801226   -880.66971    1962.7812    11274.782    2.1764115    694.87283   0.14095153 
  197100   -934.58375    49.193715   -885.39004    1761.9405   -853.98087    2.1472327    742.76022   0.15083087 
  197200   -939.86706    48.746594   -891.12047    1745.9262    -4751.918    2.1457185    717.88197   0.14013355 
  197300   -942.14635    51.519443    -890.6269    1845.2396    3646.8536     2.176857    704.82371   0.14366544 
  197400   -933.59954    53.547158   -880.05238     1917.865   -800.68704    2.1474163    718.55616   0.16174804 
  197500   -938.95347    50.586983   -888.36649    1811.8423   -2591.4075    2.1516778    696.94017   0.13786242 
  197600   -939.22384    47.795805   -891.42804    1711.8724    1970.5712    2.1665978    705.00677   0.14682876 
  197700   -940.34199      51.7355   -888.60649     1852.978    2642.1576    2.1685441    710.71002   0.14772118 
  197800   -937.96029    57.253875   -880.70642    2050.6262   -7055.5243    2.1330521    707.22267   0.16238709 
  197900   -943.08325    50.997237   -892.08601    1826.5361     181.5556     2.169064    709.79533   0.15735722 
  198000   -942.78371     52.10131    -890.6824      1866.08    2907.7633    2.1703582    715.17329   0.14097377 
  198100   -939.40407    52.495054   -886.90902    1880.1824   -5276.5313    2.1420419    732.61789   0.13742606 
  198200   -938.53572    58.543129   -879.99259    2096.8026    -7793.887    2.1346225    715.82916   0.14782033 
  198300   -946.50812    55.768885   -890.73923    1997.4392    16627.673    2.2157414    709.77398   0.15422475 
  198400   -939.84129    49.388775   -890.45252    1768.9268   -10748.787    2.1364307    713.09575   0.17325285 
  198500   -938.12242    49.572923    -888.5495    1775.5223    -14089.22    2.1173774    722.54771   0.15443509 
  198600   -944.83137    48.423855   -896.40752    1734.3669    14912.967    2.2104585    707.78931   0.15653067 
  198700   -944.65849    49.241546   -895.41694    1763.6536    4888.3261    2.1788715    716.06007   0.14815167 
  198800   -940.92266     50.82661   -890.09605    1820.4249   -9817.4669    2.1356403    729.38976   0.16294416 
  198900   -940.36119    51.015368   -889.34582    1827.1855    1527.4935    2.1663546    705.61384   0.16225338 
  199000    -943.9521    46.258807   -897.69329    1656.8227    7276.0856    2.1890137    706.58379   0.14203252 
  199100   -941.38984    49.254666   -892.13517    1764.1235   -5501.9521    2.1465617    714.73399   0.14412264 
  199200   -939.84419    50.939095   -888.90509    1824.4537   -1142.4651    2.1546107    709.01635   0.14507278 
  199300   -942.68149    52.248092   -890.43339    1871.3372    3977.1593    2.1710728    707.48196   0.13877547 
  199400   -944.33188    46.806209   -897.52567    1676.4287   -2849.5392    2.1633001    714.68365   0.15165062 
  199500   -939.53728    48.051521   -891.48576    1721.0312   -1276.1465    2.1586968    715.25684   0.16074486 
  199600   -935.06869    47.372188    -887.6965       1696.7    10580.731    2.1752892    707.76906   0.16479918 
  199700   -940.70612    49.230051   -891.47606    1763.2419   -6228.5496     2.144966    705.56125   0.14040569 
  199800   -942.37812    51.130782   -891.24734    1831.3192   -4438.1113    2.1483258    712.53528   0.13288821 
  199900   -938.28586    57.862803   -880.42306    2072.4358    6788.6704    2.1630275    701.48008   0.15211556 
  200000   -939.47374    51.924344    -887.5494    1859.7417    387.91334    2.1546218    708.67033   0.14538002 
  200100   -940.78948    48.473579    -892.3159    1736.1478   -10198.486    2.1313497    724.61912   0.14168259 
  200200   -939.16181    51.800326   -887.36149    1855.2998    10469.958    2.1777698    691.57442   0.14978609 
  200300   -933.60704    54.469077   -879.13796    1950.8848    9604.1935    2.1616301    694.73051   0.16689917 
  200400   -938.13532    48.295206   -889.84012    1729.7592   -11844.402    2.1221968    720.30468   0.15825886 
  200500   -941.81934    50.870691   -890.94865    1822.0037   -523.07038    2.1604403    706.75211   0.15263133 
  200600   -939.57925    51.818195   -887.76106    1855.9398    13126.993    2.1892699    700.94377   0.14168055 
  200700    -934.6794    52.471642   -882.20776    1879.3439   -7975.0106    2.1271237    720.97288   0.16569767 
  200800   -939.55953    50.086352   -889.47318    1793.9115   -6883.6009    2.1399196    725.32284   0.14983069 
  200900   -945.40265    54.058154   -891.34449     1936.167    2712.6722    2.1795083    711.58964   0.14999552 
  201000   -941.04041    51.005875   -890.03453    1826.8455    441.57779    2.1627133    710.65986   0.15670851 
  201100   -939.59121    49.720051   -889.87115    1780.7919   -4938.0113    2.1441382    728.70518   0.14084556 
  201200   -943.68525    43.190091   -900.49516    1546.9124     6080.067    2.1844926    689.94735    0.1449747 
  201300   -941.73393    49.044666   -892.68927    1756.6021   -1512.4987    2.1622017     694.2491   0.15178169 
  201400   -943.40843    53.934492   -889.47393    1931.7379   -3413.7176     2.153548    705.08345    0.1300397 
  201500    -944.1371    53.563577   -890.57352    1918.4531   -2363.9579    2.1614479    707.17724    0.1345188 
  201600   -948.58745    48.674832   -899.91262     1743.356    468.42455      2.18158    699.23144    0.1344141 
  201700   -940.14223    49.887519   -890.25471      1786.79    -4676.602    2.1453652    721.86503   0.14947692 
  201800   -939.17485    49.908538   -889.26631    1787.5428    2952.9165    2.1637962    728.65884   0.15241844 
  201900    -942.4408    48.721347   -893.71946     1745.022    6195.7157     2.180597    707.65157   0.14625315 
  202000   -951.06418    49.325183     -901.739    1766.6492    -11040.76    2.1561494     716.2197   0.12972444 
  202100   -942.46505    51.129233   -891.33581    1831.2637   -6732.5002    2.1439454    715.57252   0.13386621 
  202200   -938.82512    50.240042   -888.58508    1799.4161    17560.837    2.2019752    688.44884   0.14934843 
  202300   -943.33549    50.782529   -892.55296     1818.846   -6775.6159    2.1511906    714.65355   0.14592034 
  202400   -938.83254    56.088799   -882.74374    2008.8974   -17333.242    2.1130675     735.7212   0.13520634 
  202500   -936.96358     51.42671   -885.53687    1841.9183    10570.238    2.1807536     697.0508   0.14577932 
  202600   -940.11465    49.677926   -890.43673    1779.2831    3045.3386    2.1657695    708.13711   0.12701619 
  202700   -938.78335     47.64595    -891.1374    1706.5052   -6069.6465    2.1420902    716.85689   0.14494745 
  202800    -938.4602    54.783184   -883.67702     1962.135    2545.8298    2.1621986    722.22313    0.1681619 
  202900   -938.05452    53.041272   -885.01325     1899.746   -223.12667    2.1554792    688.26727   0.14456647 
  203000   -942.08706     49.99664   -892.09042    1790.6983   -3901.9818    2.1534873    725.29543   0.13877777 
  203100   -940.63618    51.119325   -889.51685    1830.9088    1219.8863    2.1661533    703.15405   0.13738225 
  203200   -935.79074    52.647808   -883.14293    1885.6536    4355.2851    2.1605057    722.26576   0.13349307 
Loop time of 140.944 on 1 procs for 200000 steps with 217 atoms

Performance: 367.807 ns/day, 0.065 hours/ns, 1419.008 timesteps/s
100.0% CPU use with 1 MPI tasks x no OpenMP threads

MPI task timing breakdown:
Section |  min time  |  avg time  |  max time  |%varavg| %total
---------------------------------------------------------------
Pair    | 133.99     | 133.99     | 133.99     |   0.0 | 95.07
Neigh   | 3.8024     | 3.8024     | 3.8024     |   0.0 |  2.70
Comm    | 0.94793    | 0.94793    | 0.94793    |   0.0 |  0.67
Output  | 0.070795   | 0.070795   | 0.070795   |   0.0 |  0.05
Modify  | 1.8263     | 1.8263     | 1.8263     |   0.0 |  1.30
Other   |            | 0.3059     |            |       |  0.22

Nlocal:    217 ave 217 max 217 min
Histogram: 1 0 0 0 0 0 0 0 0 0
Nghost:    951 ave 951 max 951 min
Histogram: 1 0 0 0 0 0 0 0 0 0
Neighs:    4133 ave 4133 max 4133 min
Histogram: 1 0 0 0 0 0 0 0 0 0
FullNghs:  8266 ave 8266 max 8266 min
Histogram: 1 0 0 0 0 0 0 0 0 0

Total # of neighbors = 8266
Ave neighs/atom = 38.0922
Neighbor list builds = 6458
Dangerous builds = 120
Total wall time: 0:02:23
