LAMMPS (3 Mar 2020)
Reading data file ...
  orthogonal box = (0 0 0) to (17.469 17.469 17.469)
  1 by 1 by 1 MPI processor grid
  reading atoms ...
  217 atoms
  read_data CPU = 0.000946729 secs
Reading potential file library.meam with DATE: 2012-06-29
Reading potential file LiSi.meam with DATE: 2020-11-07
1 atoms in group Li
Neighbor list info ...
  update every 1 steps, delay 10 steps, check yes
  max neighbors/atom: 2000, page size: 100000
  master list distance cutoff = 6
  ghost atom cutoff = 6
  binsize = 3, bins = 6 6 6
  2 neighbor lists, perpetual/occasional/extra = 2 0 0
  (1) pair meam/c, perpetual
      attributes: full, newton on
      pair build: full/bin/atomonly
      stencil: full/bin/3d
      bin: standard
  (2) pair meam/c, perpetual, half/full from (1)
      attributes: half, newton on
      pair build: halffull/newton
      stencil: none
      bin: none
Setting up Verlet run ...
  Unit style    : metal
  Current step  : 0
  Time step     : 0.00116786
Per MPI rank memory allocation (min/avg/max) = 9.27 | 9.27 | 9.27 Mbytes
Step PotEng KinEng TotEng Temp Press Density c_msdli[4] 
       0   -951.04357    50.256344   -900.78722         1800   -114161.75    1.8918427            0 
     100   -956.91867    41.283648   -915.63502    1478.6306   -13783.734    2.1608931   0.38357104 
     200   -954.06642    44.612005   -909.45442    1597.8402    42993.716    2.2954705   0.61782378 
     300   -952.18135    44.153605   -908.02774     1581.422   -10635.394    2.1527474    0.1895012 
     400   -943.43194    42.393414   -901.03853    1518.3783    -24798.97    2.0979789   0.17169023 
     500    -944.8045     46.95713   -897.84737    1681.8341    15617.092     2.205465   0.53267775 
     600   -942.66362    45.444297   -897.21932    1627.6499    24119.804    2.2211265   0.36883608 
     700   -936.08915      42.8571   -893.23205    1534.9859   -14625.628    2.1125768   0.32470837 
     800     -934.149    47.595425   -886.55358    1704.6955   -12293.083    2.1100464   0.89194532 
     900   -944.12104    54.768484   -889.35256    1961.6085    11037.824    2.1905781   0.19568793 
    1000   -946.52511     50.85685   -895.66826    1821.5079    9890.4615     2.193193   0.12909705 
    1100   -937.52162    46.741488   -890.78013    1674.1106   -7914.7455    2.1315922   0.41349296 
    1200   -937.51618    51.919575    -885.5966    1859.5709   -9545.3438    2.1263242  0.055440981 
    1300   -946.31063    53.281101   -893.02953    1908.3358    3116.4034    2.1759651    0.1836774 
    1400   -948.44825    51.553688   -896.89456    1846.4661    7835.4741    2.1924773   0.48623431 
    1500   -937.32395    49.824859   -887.49909    1784.5457    178.96988     2.148994   0.11533236 
    1600   -937.94829    50.431385    -887.5169    1806.2693   -11509.457    2.1225014   0.10514278 
    1700    -943.9581    47.694381   -896.26371    1708.2398    1170.9161    2.1672274     0.239241 
    1800   -945.05368    51.702005   -893.35167    1851.7783    14210.427    2.2059834   0.26276828 
    1900   -941.04519    53.202633   -887.84256    1905.5254    -3934.786    2.1466288   0.13725805 
    2000   -939.33748    48.707631   -890.62984    1744.5307   -17403.761    2.1122414   0.34432869 
    2100   -934.42874     51.53556   -882.89318    1845.8169     11698.33    2.1779263   0.11484176 
    2200   -944.24186    50.964613   -893.27724    1825.3676    8452.4959    2.1879841   0.40980566 
    2300    -943.7963    51.141272   -892.65503    1831.6949   -9745.5975    2.1408765   0.27835563 
    2400   -935.78949     47.48778   -888.30171    1700.8401   -2363.1658    2.1417534   0.14334887 
    2500   -943.82881    53.497307   -890.33151    1916.0795    3881.3721    2.1730151   0.26018386 
    2600   -945.88383    49.885012   -895.99882    1786.7002    4447.9838    2.1769765   0.29587922 
    2700   -940.90263    50.179501   -890.72313    1797.2477    263.67212    2.1597034   0.21865715 
    2800   -939.28229    51.382942   -887.89935    1840.3507   -3639.2688    2.1474466   0.96953786 
    2900   -943.83914    46.901724   -896.93741    1679.8496   -2723.8046    2.1589326     0.223738 
    3000   -943.67859    49.578235   -894.10036    1775.7126    8552.9734    2.1897248   0.10934337 
    3100   -941.76179    51.074431   -890.68736    1829.3009    397.79106    2.1691558   0.24819198 
    3200   -944.82193    51.958132    -892.8638    1860.9519     -14696.7    2.1336775   0.06437156 
    3300   -931.20236      48.6565   -882.54586    1742.6994    8757.7027    2.1646925   0.33033343 
    3400   -941.04379    52.123681    -888.9201    1866.8812    5118.1944       2.1745     0.591641 
    3500    -941.7832     49.64674   -892.13646    1778.1662   -7356.7751    2.1495023    0.1712574 
    3600   -941.39112    54.121037   -887.27008    1938.4193   -1165.0704    2.1568051   0.04756134 
    3700   -939.51294     49.83114    -889.6818    1784.7707      4393.63    2.1697808   0.33567031 
    3800   -943.83889    48.421121   -895.41777    1734.2689   -323.45515    2.1673666   0.50273215 
    3900   -940.46469    49.403912   -891.06078    1769.4689    2628.7899    2.1693162  0.075089319 
    4000   -939.91331    51.998003   -887.91531    1862.3799    1246.4274    2.1599384   0.47658286 
    4100    -944.9772    47.033929   -897.94327    1684.5848   -6920.2302    2.1573531   0.40002887 
    4200   -942.33517     50.18609   -892.14908    1797.4837    7643.1093    2.1860341   0.41970252 
    4300   -941.09973    50.439155   -890.66057    1806.5476     3225.803    2.1720473   0.50772989 
    4400   -943.21795    47.291461   -895.92649    1693.8086   -11101.534    2.1430242   0.14155532 
    4500   -938.01418    52.756201   -885.25798    1889.5358    4461.7344    2.1708893   0.10275552 
    4600   -942.24257    51.731272    -890.5113    1852.8265    4000.1117    2.1755989   0.35800118 
    4700   -943.79193    50.771939   -893.01999    1818.4667   -6905.9776    2.1529741     0.217873 
    4800   -934.67774    49.233131   -885.44461    1763.3522    1575.6237    2.1593823   0.51003658 
    4900   -947.66641    55.360665   -892.30575    1982.8182   -3745.3158     2.165378   0.20100773 
    5000   -945.45787    51.353499   -894.10437    1839.2961   -857.69105      2.17255  0.072308714 
    5100   -938.40372    48.049824    -890.3539    1720.9705    4573.4827    2.1729971   0.38139553 
    5200   -935.95091    49.641379   -886.30953    1777.9742     978.0732    2.1519131    0.8392758 
    5300   -947.33049    49.553703   -897.77679    1774.8339   -10413.891    2.1505652   0.31122086 
    5400   -944.28337    51.254347   -893.02902    1835.7448      10427.5    2.1951519   0.39971294 
    5500   -943.36715    51.659842    -891.7073    1850.2682    6431.7416    2.1835394   0.29453628 
    5600   -938.00343    46.343271   -891.66016    1659.8479   -9618.1058    2.1373259   0.15064954 
    5700   -939.59176    58.208216   -881.38354    2084.8072    -4257.588     2.149576  0.089956047 
    5800   -939.74236    49.048322   -890.69404     1756.733    5624.7847    2.1754804   0.31880994 
    5900   -940.74094     47.92216   -892.81878     1716.398    3607.2897    2.1752357   0.20398952 
    6000   -944.25311    54.366268   -889.88684    1947.2026   -4681.2463    2.1562377   0.41426486 
    6100   -935.50401    51.630088   -883.87392    1849.2025   -1818.6494    2.1482167   0.52716017 
    6200   -942.97798    51.896038   -891.08194    1858.7279   -4328.8468    2.1550138   0.31887664 
    6300   -945.40792    52.108462   -893.29946    1866.3361    3865.1489    2.1802979  0.059635627 
    6400   -934.26088    46.878717   -887.38216    1679.0256     7963.327     2.171479   0.33967853 
    6500   -936.35911    52.533547   -883.82557    1881.5611     -8062.33    2.1296134   0.21616896 
    6600   -944.23516    53.082429   -891.15273    1901.2201    -9421.147    2.1443476   0.44940402 
    6700    -941.2754    48.611135   -892.66426    1741.0746    13902.036    2.1995251      0.48662 
    6800   -948.15544     46.51006   -901.64538    1665.8217    34.571728    2.1779335   0.15740204 
    6900   -940.28222    47.880408   -892.40181    1714.9026    -5674.576     2.146827   0.10295006 
    7000   -940.75657    50.761576     -889.995    1818.0956   -563.51627    2.1584042   0.15856156 
    7100   -942.14693    48.921191   -893.22574    1752.1796    3320.7952    2.1758337   0.70978644 
    7200   -944.63403    47.370388   -897.26364    1696.6355    859.03896     2.172385   0.32836452 
    7300   -942.09689    54.072305   -888.02458    1936.6739    1067.8862      2.16188   0.56162304 
    7400   -941.57151    50.721606   -890.84991     1816.664   -5068.0021    2.1443603   0.31940379 
    7500   -942.61433    48.569528    -894.0448    1739.5844   -316.65749    2.1653258   0.08593764 
    7600   -942.22764    57.457936    -884.7697    2057.9349    9726.9768    2.1862376   0.42922848 
    7700   -942.96775    49.042771   -893.92498    1756.5342   -10187.649    2.1409314   0.21698336 
    7800   -940.52207    50.260675    -890.2614    1800.1551   -5800.7262    2.1447723   0.19869331 
    7900    -946.1169    57.346962   -888.76994    2053.9602    7280.6893    2.1852182   0.21199761 
    8000   -945.89306    48.282551   -897.61051    1729.3059    15.538237    2.1723607   0.12925905 
    8100   -940.96442    51.395995   -889.56842    1840.8182   -4832.7439      2.15096  0.088388196 
    8200   -940.28719     51.23811   -889.04908    1835.1633   -2180.4885    2.1551298   0.41449829 
    8300    -945.3335    47.541995    -897.7915    1702.7819   -440.45946    2.1725644   0.37629634 
    8400   -941.11109    48.047915   -893.06317    1720.9021    8322.7633    2.1835559  0.079582133 
    8500   -938.30744    50.052011   -888.25543    1792.6815   -1416.0451    2.1551429   0.57317066 
    8600   -940.32122    45.915274   -894.40594    1644.5186   -8935.9258    2.1358162   0.25610619 
    8700   -936.66131    46.576937   -890.08437     1668.217    10591.048    2.1812662   0.22029955 
    8800    -939.9917    51.400789   -888.59092    1840.9898    11055.107    2.1835138   0.17148156 
    8900   -942.28516    47.235628   -895.04953    1691.8089   -12468.706    2.1345081   0.14359548 
    9000   -944.62957    57.262531   -887.36704    2050.9362   -3046.5201    2.1567458    0.5805208 
    9100   -941.62556    49.572565     -892.053    1775.5095    10780.488     2.186271   0.34581655 
    9200   -944.69677    48.005327   -896.69144    1719.3767   -794.28941    2.1683895   0.20217409 
    9300   -940.19711    52.313463   -887.88365    1873.6785   -5027.6128    2.1496314   0.45429551 
    9400   -941.19807     50.92653   -890.27154    1824.0036   -4450.1766    2.1508497   0.33644189 
    9500    -944.9303     47.06918   -897.86112    1685.8473    1589.0587    2.1760214   0.75964099 
    9600   -938.97723    49.092529    -889.8847    1758.3163    9080.1426    2.1834529   0.33042061 
    9700   -939.87952    49.835666   -890.04385    1784.9328   -5916.0247    2.1408711   0.46935819 
    9800   -942.80371     46.74409   -896.05962    1674.2038   -9069.2409    2.1452486  0.063608601 
    9900   -944.37153    57.307652   -887.06388    2052.5523    13093.638    2.1988166   0.45705296 
   10000   -946.73224    50.962983   -895.76926    1825.3092   -2860.0747    2.1694347    0.5345367 
   10100   -942.57235    51.406864   -891.16548    1841.2074   -11087.872    2.1384364  0.078118313 
   10200   -938.02553    50.126221   -887.89931    1795.3395    3953.6517    2.1662375   0.20945609 
   10300   -945.71876     49.91604   -895.80272    1787.8115    3956.0636      2.18277   0.14454089 
   10400   -942.41281    49.071282   -893.34152    1757.5554    1463.0595    2.1705421   0.17116261 
   10500   -940.55336    53.280133   -887.27323    1908.3011   -4352.8382    2.1510841   0.36565534 
   10600   -942.10977     48.17617    -893.9336    1725.4957   -5984.4859    2.1530818   0.20366585 
   10700   -942.98647    49.095096   -893.89137    1758.4083    8061.9079    2.1886547   0.13688052 
   10800   -939.25032    52.059859   -887.19047    1864.5953    7218.2163    2.1753972   0.47508787 
   10900   -943.08408    47.934462   -895.14961    1716.8386   -15392.659    2.1298864   0.22885872 
   11000    -943.8501    55.751583   -888.09852    1996.8195     1025.883    2.1674287  0.045552428 
   11100   -944.86812    53.705336   -891.16278    1923.5304    10290.221    2.1941209   0.39981699 
   11200   -944.38264    47.740208   -896.64244    1709.8811   -7634.0577    2.1552401   0.19651833 
   11300   -940.78677    53.730796   -887.05597    1924.4422   -5587.7344    2.1483823   0.18085151 
   11400   -936.71209    46.456651   -890.25544    1663.9088    4273.1255    2.1667786   0.20944831 
   11500    -942.5802    46.032676   -896.54752    1648.7235    3682.4568    2.1750994   0.19509252 
   11600   -937.17341    49.022132   -888.15128     1755.795    6789.7108    2.1685919   0.28928324 
   11700   -938.50934    48.964355   -889.54499    1753.7256   -4949.3935    2.1452561   0.73777952 
   11800   -941.51125    44.309964   -897.20129    1587.0222   -3769.3025    2.1578625   0.36750984 
   11900   -943.44465    55.596005   -887.84865    1991.2473    12030.111    2.1944338   0.37902753 
   12000   -941.45172    49.620837   -891.83088    1777.2384   -2184.1129    2.1566271   0.29839438 
   12100    -941.7362    47.145961   -894.59024    1688.5973   -13748.879    2.1330139  0.015060067 
   12200   -939.39177    52.742374   -886.64939    1889.0406    8949.9676     2.177733   0.50407121 
   12300   -942.96501    50.088416    -892.8766    1793.9854     4293.077    2.1761473   0.28991309 
   12400   -940.60262    49.423777   -891.17885    1770.1805    -7296.591    2.1438075    0.3072505 
   12500   -934.72393    49.735163   -884.98877    1781.3332   -374.96859    2.1505419   0.41863871 
   12600   -941.79158    49.258508   -892.53307    1764.2611    1170.3269    2.1662356  0.048978516 
   12700    -945.6835     51.02327   -894.66023    1827.4685    857.57529    2.1708514   0.52566388 
   12800   -936.49371    50.886802   -885.60691    1822.5807    4160.9669    2.1584983   0.27246275 
   12900   -940.59279      47.6848   -892.90799    1707.8966   -9067.7107    2.1390876   0.20562977 
   13000   -941.85281    49.282163   -892.57064    1765.1083    3461.8802    2.1700545   0.32676826 
   13100   -938.20802    50.993461   -887.21456    1826.4008    10547.829    2.1844139   0.33168722 
   13200   -940.88324    46.448888   -894.43435    1663.6307   -8533.5607     2.141046   0.42230752 
   13300     -938.649    52.153551   -886.49545    1867.9511   -1607.9625    2.1507604   0.16156831 
   13400   -939.23929    49.303597   -889.93569     1765.876    7748.9154    2.1778195   0.10243133 
   13500   -944.48604    48.563831   -895.92221    1739.3803    603.51373    2.1680697    0.2625622 
   13600   -940.47166    52.885413   -887.58624    1894.1637   -982.00257    2.1562989   0.22712916 
   13700   -942.15904    53.035245    -889.1238    1899.5302   -4632.3049    2.1505714   0.22788303 
   13800   -943.15145    45.548644    -897.6028    1631.3873    -624.5512     2.166922   0.26394697 
   13900   -942.26381    52.760773   -889.50304    1889.6995    10072.256    2.1887311   0.18428538 
   14000   -940.78421    49.488068   -891.29614    1772.4831    -1826.517    2.1538038   0.27143933 
   14100   -946.18627    49.084439   -897.10183    1758.0266   -13698.875    2.1415591    0.1894597 
   14200   -941.21815    52.660089   -888.55806    1886.0934    10913.036    2.1897842   0.26669053 
   14300   -940.14202    44.919478   -895.22254    1608.8528    6106.2831    2.1750748   0.26564905 
   14400   -944.84994    53.830154   -891.01979    1928.0009   -12173.597    2.1373987   0.16090079 
   14500   -940.25638    54.712796   -885.54359    1959.6139   -1176.4195    2.1510329   0.15984611 
   14600   -944.36465    50.579649     -893.785    1811.5796    2215.5347    2.1749735    0.4994281 
   14700   -941.41918    47.172745   -894.24643    1689.5567    3840.8753    2.1763258  0.017309799 
   14800   -941.82334    56.935834    -884.8875    2039.2351   -2344.8402    2.1527322   0.30157209 
   14900   -936.37905    45.462967   -890.91608    1628.3186   -5412.7164    2.1364694   0.36414494 
   15000    -943.9152    48.834604    -895.0806    1749.0784    3575.0829     2.176186   0.17027716 
   15100   -936.26156    49.881367   -886.38019    1786.5697    17360.976    2.1937419   0.34000043 
   15200   -937.38059    43.853307   -893.52728    1570.6664   -8814.4306    2.1298378    0.4148903 
   15300   -938.97398    48.692647   -890.28133     1743.994   -7790.8623    2.1364247   0.25124089 
   15400   -940.10759    50.349593     -889.758    1803.3398    14022.447    2.1954335   0.34134518 
   15500   -947.24704    49.443406   -897.80363    1770.8835    -479.8544    2.1735626   0.30049345 
   15600   -940.21962       50.098   -890.12162    1794.3287   -8011.1028     2.139336   0.32067734 
   15700   -937.88551    51.219924   -886.66559    1834.5119   -1596.9006    2.1516514   0.62067971 
   15800   -940.46502    45.143308   -895.32171    1616.8696    3740.5929    2.1715607    1.0813567 
   15900   -942.54123    49.271755   -893.26948    1764.7356    3429.5758    2.1697953  0.085529549 
   16000   -935.12192    48.403429   -886.71849    1733.6353    1971.7381    2.1516237   0.48648836 
   16100    -943.9664     52.46466   -891.50174    1879.0938   -7583.1581    2.1422214 0.0077138891 
   16200   -945.77038    49.875499   -895.89488    1786.3595   -276.94808    2.1704488   0.34254685 
   16300   -938.94628    54.201613   -884.74467    1941.3052    11035.636     2.181402   0.31161749 
   16400   -943.74336    53.405641   -890.33772    1912.7964   -10909.618    2.1350482   0.26463222 
   16500   -939.73784     49.49713   -890.24071    1772.8077   -3504.6631    2.1474523   0.26041799 
   16600   -937.75807    53.677637   -884.08044    1922.5383    11934.712    2.1811192   0.34979749 
   16700   -944.09962    49.388536   -894.71108    1768.9183   -3450.2368    2.1583606   0.14579555 
   16800   -943.48785    52.933106   -890.55474    1895.8719    -5660.931    2.1524876   0.30299099 
   16900   -939.46252    51.119035   -888.34348    1830.8984    4256.6317     2.164926   0.38226189 
   17000   -946.86247    48.397551   -898.46492    1733.4248   -4891.1551    2.1634959   0.31612944 
   17100   -939.62679    48.673452   -890.95334    1743.3065    5854.3083    2.1729006   0.14752441 
   17126   -943.29937    54.394066    -888.9053    1948.1982    5124.8303    2.1715849   0.26415289 
Loop time of 11.7755 on 1 procs for 17126 steps with 217 atoms

Performance: 146.751 ns/day, 0.164 hours/ns, 1454.373 timesteps/s
100.0% CPU use with 1 MPI tasks x no OpenMP threads

MPI task timing breakdown:
Section |  min time  |  avg time  |  max time  |%varavg| %total
---------------------------------------------------------------
Pair    | 11.416     | 11.416     | 11.416     |   0.0 | 96.95
Neigh   | 0.098932   | 0.098932   | 0.098932   |   0.0 |  0.84
Comm    | 0.076484   | 0.076484   | 0.076484   |   0.0 |  0.65
Output  | 0.0047114  | 0.0047114  | 0.0047114  |   0.0 |  0.04
Modify  | 0.15415    | 0.15415    | 0.15415    |   0.0 |  1.31
Other   |            | 0.02488    |            |       |  0.21

Nlocal:    217 ave 217 max 217 min
Histogram: 1 0 0 0 0 0 0 0 0 0
Nghost:    957 ave 957 max 957 min
Histogram: 1 0 0 0 0 0 0 0 0 0
Neighs:    4168 ave 4168 max 4168 min
Histogram: 1 0 0 0 0 0 0 0 0 0
FullNghs:  8336 ave 8336 max 8336 min
Histogram: 1 0 0 0 0 0 0 0 0 0

Total # of neighbors = 8336
Ave neighs/atom = 38.4147
Neighbor list builds = 169
Dangerous builds = 0
Total wall time: 0:00:11
