LAMMPS (3 Mar 2020)

    # ---------- Initialize simulation ---------------------
    units metal
    atom_style atomic
    dimension  3
    boundary   p p p
    read_data /home/modeler/RemLabs/Lab4/Problem2A_size_5/temp_3000/lammps.data
  orthogonal box = (0 0 0) to (20.45 20.45 20.45)
  1 by 1 by 1 MPI processor grid
  reading atoms ...
  500 atoms
  read_data CPU = 0.00117939 secs

    pair_style eam
    pair_coeff * * /usr/share/lammps-stable/potentials/Ag_u3.eam
Reading potential file /usr/share/lammps-stable/potentials/Ag_u3.eam with DATE: 2007-06-11

    velocity  all create 3000 87287 dist gaussian

    # ---------- Describe computed properties------------------
    compute msdall all msd
    thermo_style custom step pe ke etotal temp press density c_msdall[4]
    thermo 100

    # ---------- Specify ensemble  ---------------------
    #fix  1 all nve
    fix  1 all nvt temp 3000 3000 0.25

    # --------- Compute RDF ---------------
    compute rdfall all rdf 100 1 1
    fix 2 all ave/time 1 2500 2500 c_rdfall[*] file /home/modeler/RemLabs/Lab4/Problem2A_size_5/temp_3000/lammps.rdf mode vector

    # --------- Run -------------
    timestep 0.005
    run 10000
Neighbor list info ...
  update every 1 steps, delay 10 steps, check yes
  max neighbors/atom: 2000, page size: 100000
  master list distance cutoff = 7.55
  ghost atom cutoff = 7.55
  binsize = 3.775, bins = 6 6 6
  2 neighbor lists, perpetual/occasional/extra = 1 1 0
  (1) pair eam, perpetual
      attributes: half, newton on
      pair build: half/bin/atomonly/newton
      stencil: half/bin/3d/newton
      bin: standard
  (2) compute rdf, occasional, copy from (1)
      attributes: half, newton on
      pair build: copy
      stencil: none
      bin: none
Per MPI rank memory allocation (min/avg/max) = 3.769 | 3.769 | 3.769 Mbytes
Step PotEng KinEng TotEng Temp Press Density c_msdall[4] 
       0        -1425    193.50244   -1231.4976         3000    24167.101    10.472245            0 
     100    -1294.024     116.9398   -1177.0842    1812.9973    109039.38    10.472245   0.18366164 
     200   -1254.9968     163.9812   -1091.0156    2542.3122    140626.87    10.472245   0.27025002 
     300   -1200.2017    189.67493   -1010.5267    2940.6596    179106.87    10.472245   0.57461412 
     400   -1171.5813    200.55825    -971.0231     3109.391    200310.37    10.472245    1.1876029 
     500   -1155.5322    190.95171   -964.58051    2960.4543    208772.88    10.472245    2.6295258 
     600   -1164.8691    193.41817   -971.45095    2998.6935    204784.98    10.472245    4.5711127 
     700   -1170.6069    184.97399   -985.63293    2867.7776    197451.84    10.472245    6.5521048 
     800   -1157.4944    192.16679   -965.32757    2979.2925    207457.24    10.472245    8.4683653 
     900   -1156.5955    203.03074   -953.56472    3147.7237     209181.5    10.472245    10.607627 
    1000   -1173.7553    195.78193   -977.97334    3035.3405    199789.04    10.472245    12.286834 
    1100   -1164.7079    187.74378   -976.96416    2910.7195    202874.68    10.472245    13.113541 
    1200   -1161.9267    198.08578   -963.84095    3071.0587    205329.69    10.472245    15.222927 
    1300   -1166.1449    199.94923   -966.19565     3099.949    203065.14    10.472245    17.292285 
    1400   -1170.3094    189.85445   -980.45492    2943.4428    198045.93    10.472245    19.419244 
    1500     -1159.85    204.36358   -955.48638    3168.3876    206823.34    10.472245    20.669555 
    1600   -1162.2259    197.72617   -964.49976    3065.4834    206472.45    10.472245     22.56601 
    1700    -1168.861    189.75387   -979.10713    2941.8834    200011.73    10.472245    24.912291 
    1800    -1153.939    181.29566   -972.64336      2810.75    207898.21    10.472245    26.493312 
    1900   -1156.5711    189.79408   -966.77697    2942.5068    208206.55    10.472245    27.744534 
    2000   -1171.0377    206.58809    -964.4496    3202.8758    200625.74    10.472245    29.891085 
    2100   -1167.4324    191.53955   -975.89285     2969.568    200963.76    10.472245    31.519827 
    2200    -1159.631    188.50589   -971.12509    2922.5352    205712.88    10.472245    34.063406 
    2300   -1163.2635    203.75867   -959.50483    3159.0094     205798.2    10.472245    35.077377 
    2400    -1163.237     189.9536   -973.28342    2944.9799    206432.18    10.472245    36.067659 
    2500   -1176.3517     199.1705   -977.18122    3087.8759    195775.17    10.472245    37.650442 
    2600   -1163.4894     201.5693   -961.92005     3125.066    204880.25    10.472245    39.670955 
    2700   -1162.2884    191.98021   -970.30823    2976.3999    205718.77    10.472245    42.702825 
    2800   -1167.7267    181.67545   -986.05121    2816.6382    200777.24    10.472245    44.506175 
    2900   -1154.4003    191.41105   -962.98927    2967.5758    208428.77    10.472245    46.845301 
    3000   -1163.1011    194.70519   -968.39586    3018.6471    204958.86    10.472245     48.99623 
    3100   -1169.5495    200.93654   -968.61301    3115.2559    202846.81    10.472245    49.180779 
    3200   -1166.9144    212.72352    -954.1909    3297.9975     204587.8    10.472245    50.070744 
    3300   -1165.5922    192.25843   -973.33373    2980.7133    202326.31    10.472245    51.637324 
    3400   -1158.3404    196.83215   -961.50823    3051.6229    208626.36    10.472245      52.7008 
    3500   -1161.4979    199.35907   -962.13881    3090.7994    206596.44    10.472245    54.085194 
    3600   -1156.5109    183.57133   -972.93953    2846.0313    206345.88    10.472245    55.643273 
    3700   -1174.1121    213.25174   -960.86038    3306.1869    202325.51    10.472245    57.190427 
    3800   -1167.7077    182.71237   -984.99536    2832.7142    201836.66    10.472245    58.018583 
    3900   -1165.5518    196.22044   -969.33132     3042.139    203433.08    10.472245    58.946129 
    4000   -1153.4755    193.25121   -960.22426     2996.105    210600.52    10.472245    61.411156 
    4100   -1173.8677     194.5149   -979.35276    3015.6969    195903.58    10.472245    62.689156 
    4200   -1165.1799    194.78548   -970.39445    3019.8919    205268.04    10.472245    63.059817 
    4300   -1165.7392     196.1092   -969.62999    3040.4144    203427.28    10.472245    65.116797 
    4400   -1165.2555    204.58371   -960.67177    3171.8005    205201.17    10.472245    66.077413 
    4500   -1167.0316    192.16887   -974.86278    2979.3247    204055.07    10.472245    68.457134 
    4600   -1166.0304    186.34796   -979.68247    2889.0793     203086.4    10.472245    69.339287 
    4700   -1157.4925    201.02258   -956.46996    3116.5899    207579.48    10.472245    70.558824 
    4800   -1153.2863    184.99269   -968.29358    2868.0676    206965.98    10.472245    71.867051 
    4900    -1176.121    188.81625   -987.30471    2927.3468    194071.78    10.472245    73.835737 
    5000   -1155.8112    196.46761    -959.3436    3045.9712    210110.28    10.472245    76.096964 
    5100    -1170.225    197.89657   -972.32848    3068.1252    200407.99    10.472245    78.270899 
    5200    -1172.548    189.46356   -983.08449    2937.3825    196480.39    10.472245    81.762132 
    5300   -1161.9775    188.03401   -973.94351    2915.2192    204577.55    10.472245    83.422767 
    5400   -1161.4979    195.27816   -966.21973    3027.5302    206499.18    10.472245    85.591851 
    5500   -1159.8516    204.36271   -955.48886    3168.3742    208217.87    10.472245    87.267364 
    5600   -1164.3528    192.54163   -971.81122    2985.1039    200316.33    10.472245    88.584882 
    5700   -1168.5316    190.15235   -978.37921    2948.0613    200660.97    10.472245    90.511022 
    5800   -1151.7077    198.94801   -952.75972    3084.4264     213662.4    10.472245    91.978177 
    5900   -1157.3326    195.09323   -962.23941    3024.6632    208154.46    10.472245    93.964284 
    6000   -1173.0049    193.06907   -979.93586    2993.2813    198162.64    10.472245    95.395891 
    6100   -1160.6297    188.12018   -972.50954    2916.5553    203894.53    10.472245    97.819329 
    6200   -1166.3631    204.70418   -961.65891    3173.6683    203156.04    10.472245    101.31562 
    6300   -1162.3134     186.9853   -975.32807    2898.9604    203461.27    10.472245    103.89657 
    6400   -1168.4452    193.00543   -975.43977    2992.2946    199814.93    10.472245    104.62782 
    6500   -1155.7067     181.4386   -974.26805    2812.9661    208569.65    10.472245    107.11224 
    6600   -1154.0767    201.41221   -952.66452    3122.6306    212022.77    10.472245    108.45608 
    6700   -1163.4932    192.30267   -971.19057    2981.3992     205823.2    10.472245    109.24705 
    6800   -1165.6235    191.55955   -974.06391    2969.8782    202395.21    10.472245    111.42562 
    6900   -1161.1763    199.55192   -961.62436    3093.7893    206786.09    10.472245    112.53392 
    7000   -1156.1418    193.92858   -962.21322    3006.6068    209456.53    10.472245    112.33182 
    7100   -1169.9336    196.35757   -973.57607    3044.2651    202691.99    10.472245    114.79064 
    7200   -1155.7449    209.39693   -946.34792    3246.4231     211194.2    10.472245    116.83672 
    7300   -1164.1629    202.13537   -962.02753    3133.8422    204582.97    10.472245    118.83954 
    7400   -1171.1983    192.06026   -979.13805    2977.6409    198511.52    10.472245    120.96205 
    7500   -1169.0976     195.3383   -973.75932    3028.4626    202705.86    10.472245    122.73185 
    7600   -1154.1201    195.33469   -958.78542    3028.4067    212848.73    10.472245     124.3633 
    7700   -1167.0217    191.32187    -975.6998    2966.1932    201910.03    10.472245    126.46176 
    7800   -1159.5405    210.38422   -949.15626    3261.7297    208927.23    10.472245    127.91107 
    7900   -1166.8174    196.71567   -970.10169    3049.8169    203192.94    10.472245    127.80616 
    8000   -1159.6565     182.5907   -977.06579     2830.828    206739.34    10.472245    130.42204 
    8100   -1152.9581     203.7027   -949.25539    3158.1416    213654.14    10.472245    131.66405 
    8200   -1163.7185    197.41928   -966.29918    3060.7255    204858.57    10.472245    133.91128 
    8300   -1166.2628    193.00339   -973.25941     2992.263    202927.72    10.472245    135.71855 
    8400   -1160.8177    198.28756   -962.53018    3074.1869    207172.42    10.472245    136.39032 
    8500   -1162.5117    207.02191   -955.48982    3209.6016    208470.42    10.472245    138.32762 
    8600    -1159.194    188.02385   -971.17014    2915.0617     207581.6    10.472245    139.77023 
    8700   -1166.8328    187.61855   -979.21423    2908.7781    201113.22    10.472245     139.8695 
    8800   -1159.2888    188.41946   -970.86933    2921.1952    206835.31    10.472245    141.47467 
    8900   -1155.6624    198.41463   -957.24776     3076.157    210942.11    10.472245    144.24152 
    9000   -1176.3868     194.4611   -981.92568    3014.8628    196743.16    10.472245    145.57406 
    9100   -1173.5523     197.2891   -976.26316    3058.7072    199135.21    10.472245    146.73738 
    9200   -1164.2249    201.20735   -963.01755    3119.4545    204399.74    10.472245    148.61506 
    9300   -1160.1167    190.10747   -970.00919    2947.3655    206774.13    10.472245     149.7252 
    9400   -1164.2742    189.63353   -974.64067    2940.0177    203485.67    10.472245    150.76811 
    9500   -1169.8202     180.6893   -989.13094    2801.3492    199426.08    10.472245    151.72212 
    9600   -1160.0337    194.62551   -965.40823    3017.4117    208352.25    10.472245    152.96588 
    9700   -1166.2831    192.86095   -973.42212    2990.0546    202009.55    10.472245    154.34788 
    9800   -1178.1699    179.99373   -998.17615    2790.5653       192089    10.472245    155.97348 
    9900   -1165.2085    189.52194   -975.68653    2938.2876    204763.34    10.472245    157.04995 
   10000   -1152.8737    191.03737   -961.83629    2961.7823    209121.66    10.472245    159.32977 
Loop time of 14.7384 on 1 procs for 10000 steps with 500 atoms

Performance: 293.112 ns/day, 0.082 hours/ns, 678.500 timesteps/s
100.0% CPU use with 1 MPI tasks x no OpenMP threads

MPI task timing breakdown:
Section |  min time  |  avg time  |  max time  |%varavg| %total
---------------------------------------------------------------
Pair    | 8.6977     | 8.6977     | 8.6977     |   0.0 | 59.01
Neigh   | 0.8997     | 0.8997     | 0.8997     |   0.0 |  6.10
Comm    | 0.13931    | 0.13931    | 0.13931    |   0.0 |  0.95
Output  | 0.0036254  | 0.0036254  | 0.0036254  |   0.0 |  0.02
Modify  | 4.973      | 4.973      | 4.973      |   0.0 | 33.74
Other   |            | 0.02513    |            |       |  0.17

Nlocal:    500 ave 500 max 500 min
Histogram: 1 0 0 0 0 0 0 0 0 0
Nghost:    2113 ave 2113 max 2113 min
Histogram: 1 0 0 0 0 0 0 0 0 0
Neighs:    26177 ave 26177 max 26177 min
Histogram: 1 0 0 0 0 0 0 0 0 0

Total # of neighbors = 26177
Ave neighs/atom = 52.354
Neighbor list builds = 817
Dangerous builds = 54
    
Total wall time: 0:00:14
