LAMMPS (3 Mar 2020)
Reading data file ...
  orthogonal box = (0 0 0) to (28.63 28.63 28.63)
  1 by 1 by 1 MPI processor grid
  reading atoms ...
  1372 atoms
  read_data CPU = 0.00185074 secs
Reading potential file /usr/share/lammps-stable/potentials/Ag_u3.eam with DATE: 2007-06-11
Neighbor list info ...
  update every 1 steps, delay 10 steps, check yes
  max neighbors/atom: 2000, page size: 100000
  master list distance cutoff = 7.55
  ghost atom cutoff = 7.55
  binsize = 3.775, bins = 8 8 8
  2 neighbor lists, perpetual/occasional/extra = 1 1 0
  (1) pair eam, perpetual
      attributes: half, newton on
      pair build: half/bin/atomonly/newton
      stencil: half/bin/3d/newton
      bin: standard
  (2) compute rdf, occasional, copy from (1)
      attributes: half, newton on
      pair build: copy
      stencil: none
      bin: none
Setting up Verlet run ...
  Unit style    : metal
  Current step  : 0
  Time step     : 0.001
Per MPI rank memory allocation (min/avg/max) = 3.83 | 3.83 | 3.83 Mbytes
Step PotEng KinEng TotEng Temp Press Density c_msdall[4] 
       0      -3910.2    88.607829   -3821.5922          500    4032.9319    10.472245            0 
     100   -3856.9516    48.605664   -3808.3459    274.27409     16414.29    10.472245  0.027922624 
     200   -3853.0694    78.341121   -3774.7283    442.06658    19207.137    10.472245  0.029736187 
     300   -3832.1973    92.151291    -3740.046    519.99519    25453.403    10.472245  0.040226626 
     400   -3821.0073    99.936769   -3721.0705    563.92742    28931.767    10.472245  0.045065151 
     500   -3824.4068    94.092063   -3730.3147    530.94667    27705.512    10.472245  0.044187176 
     600   -3829.3526    90.341539   -3739.0111    509.78305     26310.02    10.472245  0.038913249 
     700   -3825.6719    92.669017   -3733.0029    522.91664    27499.684    10.472245  0.036784037 
     800   -3823.5952    93.923001   -3729.6722    529.99267     28117.06    10.472245  0.036824623 
     900   -3823.5928    84.135234   -3739.4576    474.76185    27426.102    10.472245  0.041597433 
    1000   -3821.6867    95.133194   -3726.5535     536.8216    28903.451    10.472245  0.039816451 
    1100   -3819.5386    81.468421   -3738.0702    459.71345    28584.013    10.472245   0.04392973 
    1200    -3822.543    88.997382   -3733.5456    502.19818      28178.2    10.472245  0.044763581 
    1300   -3818.4341    89.100763   -3729.3333    502.78155    29186.116    10.472245  0.047030293 
    1400    -3820.659    91.204416   -3729.4545    514.65213    28880.814    10.472245  0.041759957 
    1500   -3826.8724     86.94336    -3739.929    490.60766    26898.764    10.472245  0.037664969 
    1600    -3824.929    90.536719   -3734.3923    510.88442      27766.8    10.472245  0.036894311 
    1700   -3817.0283    85.295796   -3731.7325    481.31072    29601.236    10.472245  0.040313202 
    1800   -3820.6526    87.474028   -3733.1786    493.60214     28764.25    10.472245  0.040333572 
    1900   -3823.9399     86.92144   -3737.0184    490.48397    27680.292    10.472245  0.041391887 
    2000    -3819.331    89.038899   -3730.2921    502.43246     29185.65    10.472245  0.042659594 
    2100   -3819.6397    86.192582   -3733.4471    486.37114    28829.121    10.472245  0.043443298 
    2200   -3824.1633    88.092266    -3736.071    497.09076    27773.996    10.472245  0.042184289 
    2300   -3821.7196    89.886754   -3731.8328    507.21677    28479.443    10.472245  0.040993124 
    2400   -3820.5345    89.062389   -3731.4722    502.56501    28879.039    10.472245  0.038071808 
    2500   -3825.8873    87.231095   -3738.6562    492.23131    27298.356    10.472245  0.035462925 
    2600   -3823.0928    87.668217   -3735.4246    494.69791    27998.637    10.472245  0.038657444 
    2700   -3820.4806     86.34119   -3734.1394    487.20971    28628.847    10.472245  0.043915598 
    2800    -3822.888    92.918067   -3729.9699    524.32199    28281.261    10.472245  0.044732947 
    2900   -3819.7902    86.943137    -3732.847     490.6064    28898.546    10.472245  0.047136901 
    3000   -3818.4988    89.617847   -3728.8809    505.69937    29389.989    10.472245  0.042797882 
    3100   -3824.1629    87.538806   -3736.6241    493.96767    27881.446    10.472245  0.036306059 
    3200   -3824.9978    89.951974   -3735.0458     507.5848    27671.068    10.472245  0.035024705 
    3300   -3821.3539     90.15276   -3731.2011     508.7178    28601.454    10.472245  0.037593061 
    3400   -3820.3487    87.362082   -3732.9866    492.97045    28763.952    10.472245   0.03993161 
    3500   -3825.8916    90.227508   -3735.6641    509.13959    27385.438    10.472245  0.039658708 
    3600   -3823.0302     87.62559   -3735.4046    494.45738    27941.481    10.472245  0.043073248 
    3700   -3820.4593     90.97618   -3729.4832    513.36423    28853.935    10.472245  0.044273314 
    3800   -3823.4124    91.838462   -3731.5739    518.22995    28166.953    10.472245  0.040824254 
    3900   -3825.1977    88.439929   -3736.7578    499.05256    27373.718    10.472245  0.036847145 
    4000   -3822.1911    89.594128    -3732.597    505.56553    28285.955    10.472245  0.036327816 
    4100   -3819.4012    89.459139   -3729.9421    504.80381    29064.256    10.472245  0.037697702 
    4200   -3823.6566    88.481301   -3735.1753    499.28602    27866.545    10.472245  0.038564199 
    4300   -3821.1776    87.692578    -3733.485    494.83538      28637.8    10.472245  0.041786607 
    4400   -3820.4331    90.358215   -3730.0749    509.87715     28795.05    10.472245  0.042693308 
    4500   -3823.8771    89.295896   -3734.5812    503.88265    27836.505    10.472245  0.040557171 
    4600   -3826.5204    89.591214   -3736.9292    505.54909    27199.927    10.472245  0.037027713 
    4700   -3821.9479     88.31952   -3733.6284    498.37312    28351.318    10.472245  0.038027467 
    4800   -3820.6575     93.09378   -3727.5637    525.31351    28947.072    10.472245  0.039376718 
    4900   -3821.9823    90.913195   -3731.0691    513.00881    28549.237    10.472245  0.038762206 
    5000   -3823.3858     86.46578     -3736.92    487.91275    27962.299    10.472245  0.037914417 
    5100   -3824.9236    91.598211   -3733.3253    516.87425    27820.729    10.472245  0.037626628 
    5200   -3822.7891    89.997587   -3732.7915    507.84218    28198.089    10.472245  0.040921319 
    5300    -3821.715    89.964467   -3731.7505    507.65529    28504.974    10.472245  0.041440684 
    5400   -3822.6273    89.279785   -3733.3476    503.79174    28272.953    10.472245  0.039015782 
    5500   -3823.4336    88.357572    -3735.076    498.58783    28043.099    10.472245  0.035754079 
    5600   -3820.3426    87.998761   -3732.3438    496.56312    28779.964    10.472245  0.037071858 
    5700   -3823.1346    92.098891   -3731.0357    519.69951    28189.542    10.472245  0.037316074 
    5800   -3824.0583    89.229638   -3734.8287    503.50877    27765.412    10.472245  0.038311242 
    5900   -3825.1905    93.340678   -3731.8498    526.70672    27757.442    10.472245  0.038331965 
    6000   -3823.8466    84.633779   -3739.2128    477.57506    27541.337    10.472245  0.040542671 
    6100   -3825.6407    91.897583   -3733.7431    518.56356    27533.401    10.472245  0.037718694 
    6200   -3823.6283    91.928754   -3731.6996    518.73945    28011.749    10.472245   0.03828083 
    6300   -3820.8272    87.884421   -3732.9428    495.91792    28610.251    10.472245  0.039020698 
    6400   -3827.4496    89.265986   -3738.1836    503.71387    26865.799    10.472245  0.036159815 
    6500   -3824.3974    89.129771   -3735.2676    502.94524    27741.475    10.472245   0.03726759 
    6600   -3819.9745    87.171655   -3732.8028    491.89589    28823.308    10.472245   0.03939091 
    6700   -3819.7651    86.614792   -3733.1503    488.75361    28913.213    10.472245  0.040585262 
    6800   -3824.1104    86.734872   -3737.3755     489.4312     27734.43    10.472245  0.041701824 
    6900   -3822.2588    89.441075   -3732.8177    504.70187    28341.744    10.472245  0.042527963 
    7000   -3820.1496    90.520189   -3729.6294    510.79114    28940.505    10.472245  0.040683225 
    7100   -3821.8237    86.725373   -3735.0983    489.37759     28262.92    10.472245  0.038755204 
    7200   -3823.2444    87.289399    -3735.955    492.56031     27991.22    10.472245  0.037025028 
    7300   -3821.9254    89.096435    -3732.829    502.75713    28365.645    10.472245  0.039245268 
    7400   -3818.0105     89.00916   -3729.0013    502.26464    29565.032    10.472245   0.04340554 
    7500   -3818.1662    87.673963   -3730.4923    494.73034    29338.525    10.472245   0.04395386 
    7600   -3822.4197    86.927668   -3735.4921    490.51911    28141.219    10.472245  0.041376648 
    7700   -3823.0052    90.743313   -3732.2619    512.05019    28248.674    10.472245   0.03980643 
    7800   -3818.4692    89.580404   -3728.8888    505.48809    29348.517    10.472245  0.041286058 
    7900   -3824.7382    88.447171    -3736.291    499.09343    27586.161    10.472245   0.03681743 
    8000   -3825.1849    86.644702   -3738.5402    488.92238     27486.26    10.472245  0.036350298 
    8100   -3823.4185    91.250121   -3732.1684    514.91004    28049.829    10.472245  0.039093875 
    8200   -3822.6749    90.774109   -3731.9008    512.22397    28137.529    10.472245  0.042354646 
    8300   -3821.1274    90.519888   -3730.6075    510.78945     28630.75    10.472245  0.043240682 
    8400   -3823.6768    87.199942   -3736.4768    492.05551    27925.864    10.472245  0.042493259 
    8500   -3820.4875    90.456819   -3730.0307    510.43356    28798.994    10.472245  0.041035979 
    8600    -3820.527    87.826247   -3732.7008    495.58965    28765.791    10.472245   0.04083371 
    8700   -3821.5448    87.261026   -3734.2837     492.4002    28431.309    10.472245  0.039905747 
    8800   -3821.4089    86.987612   -3734.4213    490.85737    28572.173    10.472245  0.039533721 
    8900   -3820.0252    88.044667   -3731.9805    496.82216    28979.305    10.472245  0.039169885 
    9000   -3821.4267    88.167445   -3733.2593    497.51498    28555.443    10.472245  0.037916707 
    9100   -3824.1074    86.605127   -3737.5022    488.69907    27775.824    10.472245  0.038316356 
    9200   -3821.4067    88.275205   -3733.1315    498.12305    28545.773    10.472245  0.040171757 
    9300   -3822.1332    89.917825   -3732.2154     507.3921    28320.374    10.472245  0.040423817 
    9400   -3823.2841       86.759   -3736.5251    489.56735    28146.044    10.472245  0.038747693 
    9500   -3818.7674    85.985529   -3732.7818    485.20277    29198.079    10.472245   0.03886808 
    9600    -3821.679    90.318624   -3731.3604    509.65375    28678.209    10.472245  0.036890545 
    9700   -3824.8252    87.822869   -3737.0023    495.57059     27560.45    10.472245  0.037576563 
    9800   -3822.1471       89.759   -3732.3881    506.49587    28452.208    10.472245  0.039920516 
    9900   -3822.3286    89.586061   -3732.7425    505.52001    28359.175    10.472245  0.041157901 
   10000   -3822.2976    87.501905   -3734.7957    493.75944    28274.172    10.472245  0.041799537 
Loop time of 24.1806 on 1 procs for 10000 steps with 1372 atoms

Performance: 35.731 ns/day, 0.672 hours/ns, 413.554 timesteps/s
100.0% CPU use with 1 MPI tasks x no OpenMP threads

MPI task timing breakdown:
Section |  min time  |  avg time  |  max time  |%varavg| %total
---------------------------------------------------------------
Pair    | 16.539     | 16.539     | 16.539     |   0.0 | 68.40
Neigh   | 0          | 0          | 0          |   0.0 |  0.00
Comm    | 0.16054    | 0.16054    | 0.16054    |   0.0 |  0.66
Output  | 0.0049469  | 0.0049469  | 0.0049469  |   0.0 |  0.02
Modify  | 7.406      | 7.406      | 7.406      |   0.0 | 30.63
Other   |            | 0.07029    |            |       |  0.29

Nlocal:    1372 ave 1372 max 1372 min
Histogram: 1 0 0 0 0 0 0 0 0 0
Nghost:    3258 ave 3258 max 3258 min
Histogram: 1 0 0 0 0 0 0 0 0 0
Neighs:    58996 ave 58996 max 58996 min
Histogram: 1 0 0 0 0 0 0 0 0 0

Total # of neighbors = 58996
Ave neighs/atom = 43
Neighbor list builds = 0
Dangerous builds = 0
Total wall time: 0:00:24
