LAMMPS (3 Mar 2020)

# ---------- 1. Initialize simulation ----------
units metal
atom_style atomic
dimension 3
boundary p p p
read_data /home/modeler/RemLabs/Project/arrhenius_4/T1700.0/n3_T1700.0_timestep3.000000e-03_eqsteps3200_time600_rseed3329/20201205-140025/lammps.data
  orthogonal box = (0 0 0) to (17.469 17.469 17.469)
  1 by 1 by 1 MPI processor grid
  reading atoms ...
  217 atoms
  read_data CPU = 0.00104199 secs

pair_style meam/c
pair_coeff * * library.meam Li Si LiSi.meam Li Si
Reading potential file library.meam with DATE: 2012-06-29
Reading potential file LiSi.meam with DATE: 2020-11-07

group Li type 1
1 atoms in group Li
group Si type 2
216 atoms in group Si

velocity all create 1700.0 3329 dist gaussian

# ---------- 2. Specify equilibration ensemble  ----------
fix 1 all npt temp 1700.0 1700.0 0.15 tchain 2 iso 1.0 1.0 1.0 pchain 2
# fix 1 all nvt temp 1700.0 1700.0 0.15

# ---------- 3. Run equilibration -------------
timestep 0.003
run 3200
Neighbor list info ...
  update every 1 steps, delay 10 steps, check yes
  max neighbors/atom: 2000, page size: 100000
  master list distance cutoff = 6
  ghost atom cutoff = 6
  binsize = 3, bins = 6 6 6
  2 neighbor lists, perpetual/occasional/extra = 2 0 0
  (1) pair meam/c, perpetual
      attributes: full, newton on
      pair build: full/bin/atomonly
      stencil: full/bin/3d
      bin: standard
  (2) pair meam/c, perpetual, half/full from (1)
      attributes: half, newton on
      pair build: halffull/newton
      stencil: none
      bin: none
Per MPI rank memory allocation (min/avg/max) = 8.895 | 8.895 | 8.895 Mbytes
Step Temp E_pair E_mol TotEng Press Volume 
       0         1700   -951.04357            0   -903.57924   -114721.17    5330.9442 
    3200    1657.6232   -945.27971            0   -898.99856   -9347.6742    4694.3777 
Loop time of 2.26811 on 1 procs for 3200 steps with 217 atoms

Performance: 365.696 ns/day, 0.066 hours/ns, 1410.864 timesteps/s
100.0% CPU use with 1 MPI tasks x no OpenMP threads

MPI task timing breakdown:
Section |  min time  |  avg time  |  max time  |%varavg| %total
---------------------------------------------------------------
Pair    | 2.185      | 2.185      | 2.185      |   0.0 | 96.34
Neigh   | 0.034694   | 0.034694   | 0.034694   |   0.0 |  1.53
Comm    | 0.014353   | 0.014353   | 0.014353   |   0.0 |  0.63
Output  | 2.5177e-05 | 2.5177e-05 | 2.5177e-05 |   0.0 |  0.00
Modify  | 0.029125   | 0.029125   | 0.029125   |   0.0 |  1.28
Other   |            | 0.004885   |            |       |  0.22

Nlocal:    217 ave 217 max 217 min
Histogram: 1 0 0 0 0 0 0 0 0 0
Nghost:    957 ave 957 max 957 min
Histogram: 1 0 0 0 0 0 0 0 0 0
Neighs:    4181 ave 4181 max 4181 min
Histogram: 1 0 0 0 0 0 0 0 0 0
FullNghs:  8362 ave 8362 max 8362 min
Histogram: 1 0 0 0 0 0 0 0 0 0

Total # of neighbors = 8362
Ave neighs/atom = 38.5346
Neighbor list builds = 59
Dangerous builds = 0

# ---------- 4. Describe computed properties----------
compute msdli Li msd
compute msdsi Si msd
thermo_style custom step pe ke etotal temp press density c_msdli[4] c_msdsi[4]
thermo 100

# ---------- 3. Run production -------------
timestep 0.003
run 200000
Per MPI rank memory allocation (min/avg/max) = 9.663 | 9.663 | 9.663 Mbytes
Step PotEng KinEng TotEng Temp Press Density c_msdli[4] c_msdsi[4] 
    3200   -945.27971    46.281156   -898.99856    1657.6232   -9347.6742    2.1483802            0 8.7255326e-32 
    3300   -946.80828    45.941835   -900.86645    1645.4699    1409.9582    2.1804185   0.34660285    0.1116806 
    3400    -938.1052    46.691875   -891.41333    1672.3336    7642.0939    2.1790055   0.17924478   0.11049692 
    3500    -943.2299    46.771694   -896.45821    1675.1925   -3529.1756    2.1594198  0.034672685   0.11138713 
    3600   -943.37067    43.255343   -900.11533    1549.2495   -4504.8262     2.163619   0.17301361   0.12706647 
    3700   -940.67549    48.526221   -892.14927    1738.0332    8342.0447    2.1841614    0.3892996   0.10976558 
    3800   -943.64938    51.171607   -892.47777    1832.7814    1486.0266    2.1736767   0.18840388   0.10491577 
    3900   -944.09567    44.826925   -899.26875    1605.5379   -9193.5281    2.1491889   0.14841909   0.13091116 
    4000   -941.76178    46.999661   -894.76212    1683.3574    1578.5131    2.1700746  0.055907652   0.10114745 
    4100   -938.14425    50.221362   -887.92289    1798.7471     7223.411    2.1812078   0.11977222   0.12493875 
    4200     -943.828    45.846899    -897.9811    1642.0697    -1065.958    2.1701318  0.046253523   0.10769179 
    4300   -943.11312     45.63183   -897.48129    1634.3667   -4165.2581    2.1547266   0.11317653   0.11482372 
    4400   -937.08162     46.46013   -890.62149    1664.0334    7864.1097    2.1750367  0.044225561   0.14312485 
    4500   -944.65843    46.496051   -898.16238    1665.3199    3786.5055    2.1842693  0.040667006   0.14095114 
    4600   -946.51136    46.788736   -899.72263    1675.8028    -9329.236    2.1520307   0.14007218    0.1264652 
    4700   -942.99356    48.448768   -894.54479    1735.2592    1134.6863     2.170745  0.041160325   0.12218994 
    4800   -948.95935     52.89901   -896.06034    1894.6507    5375.6132    2.1939398  0.024745605   0.12700127 
    4900   -947.00716     43.39978   -903.60738    1554.4227   -646.86942    2.1803094  0.057439428   0.11217255 
    5000   -943.98658    47.338917   -896.64767    1695.5083   -7560.7083    2.1492342   0.16713745   0.13244336 
    5100   -944.20101     50.17462   -894.02639    1797.0729    2208.4593    2.1779473   0.15583064    0.1140469 
    5200   -949.00813    46.736576   -902.27155    1673.9347    5443.4238    2.1945093   0.13989351   0.11887448 
    5300   -944.12057    47.816179   -896.30439    1712.6021    -8000.858    2.1517045  0.090273638   0.13642888 
    5400   -936.58671     42.72659   -893.86012    1530.3115    1636.6293    2.1609659 0.0037171819   0.14601825 
    5500   -944.77231    46.282248   -898.49006    1657.6623    5173.8063    2.1849322   0.13811468   0.13375068 
    5600   -947.26179    44.957204   -902.30458     1610.204    466.18573    2.1810987  0.035019473   0.13091115 
    5700   -939.69888    48.048422   -891.65046    1720.9202   -8841.9493     2.137737   0.27734745   0.13473591 
    5800   -943.04296    47.090484   -895.95248    1686.6104    6291.5899     2.183826  0.014715423    0.1366266 
    5900   -945.17855     46.94791   -898.23064    1681.5039    6966.1152    2.1910584   0.38404306   0.12481422 
    6000   -940.03221    50.680126   -889.35208    1815.1783   -8417.3286    2.1386362    0.3541111   0.14087965 
    6100   -943.25779    48.911121   -894.34667     1751.819   -393.64801    2.1637913   0.03676395    0.1305409 
    6200   -945.31703    47.687182   -897.62985    1707.9819    6361.3629    2.1893209   0.24999723   0.12383263 
    6300   -946.09639    50.388577   -895.70781    1804.7361   -3664.3364    2.1655927   0.13909356    0.1343996 
    6400    -939.8466    50.962082   -888.88452     1825.277   -7783.9791    2.1320457  0.053670711   0.12441638 
    6500   -946.44918    46.577239   -899.87194    1668.2278    7836.5504    2.1951752   0.11027092   0.13328998 
    6600   -943.47676     46.85935   -896.61741     1678.332    5741.7964    2.1854657   0.12139236   0.13921916 
    6700   -940.83706    46.042454   -894.79461    1649.0737   -9901.9732    2.1359692  0.056124837   0.13461435 
    6800   -944.98298    41.260811   -903.72217    1477.8126   -1390.0613    2.1695663   0.13296858   0.11821519 
    6900   -949.98737    49.152085   -900.83528    1760.4494    8490.1612    2.2020151   0.11930565   0.12297858 
    7000   -943.94689    48.829097   -895.11779    1748.8812   -633.57169    2.1680976 0.0042923614   0.10717246 
    7100   -945.12099    48.357627   -896.76337    1731.9948   -10134.893     2.143192   0.23780905   0.12348541 
    7200   -948.88102    44.915468   -903.96555    1608.7092    3542.7573    2.1903642   0.34295002    0.1250959 
    7300   -943.19376     48.25082   -894.94294    1728.1694    5381.7465    2.1789668   0.18812969   0.12639191 
    7400   -945.68247    50.408785   -895.27368    1805.4599   -3822.2001    2.1590926    0.1116642   0.12577129 
    7500   -946.46149     47.29529    -899.1662    1693.9458   -955.44847    2.1651518   0.25982976   0.10712516 
    7600   -947.01368    43.590722   -903.42296    1561.2616     2354.273    2.1846567  0.027023883   0.11330276 
    7700   -942.70536    49.797858    -892.9075    1783.5787   -3976.6107    2.1553789    0.1957934   0.13197146 
    7800   -946.57175    50.392332   -896.17942    1804.8706   -1491.0175    2.1685812  0.033811388   0.11385899 
    7900   -946.96684    47.885225   -899.08162    1715.0751    1994.6368    2.1781492      0.17734   0.11354256 
    8000   -943.92753     52.08868   -891.83885    1865.6276   -1035.9673    2.1620452   0.05761897   0.11683695 
    8100   -941.59279      49.7431   -891.84969    1781.6175   -1886.9497    2.1585224   0.06029411    0.1109003 
    8200   -944.77184     46.81804    -897.9538    1676.8524   -2496.0471    2.1647496   0.23767126    0.1243802 
    8300   -946.27901    49.743954   -896.53505     1781.648    1812.7229    2.1796325   0.11664823    0.1128406 
    8400   -940.80769    53.311855   -887.49584    1909.4373   -1790.2955    2.1523003  0.056065537   0.12424148 
    8500    -946.2898    48.920378   -897.36942    1752.1505   -1491.1323    2.1669011   0.12246189   0.11165947 
    8600    -945.5459    48.071628   -897.47427    1721.7514    777.68265    2.1736713   0.11701554   0.11263807 
    8700   -942.59048    50.638611   -891.95187    1813.6914    2015.8511     2.167338  0.052263206   0.12003773 
    8800   -940.79895    49.881415   -890.91753    1786.5714   -3823.4889    2.1514966  0.086254608   0.13175689 
    8900   -943.93459    44.941167   -898.99342    1609.6296    218.04157    2.1759095    0.1106328   0.11165509 
    9000   -947.92481    52.427323   -895.49749    1877.7566    4845.3971    2.1913653  0.050625722   0.12256504 
    9100   -942.38488    48.002095   -894.38278     1719.261   -6315.4539    2.1543009  0.057343504   0.11380397 
    9200   -944.54886    40.308261   -904.24059    1443.6957   -5384.0305    2.1619418   0.06657095   0.11427215 
    9300   -946.82018    46.398361   -900.42182     1661.821    6382.0375    2.1909775  0.067118095   0.11637403 
    9400    -944.2669    49.434693    -894.8322    1770.5714    6175.7664    2.1872253   0.18800299   0.11759972 
    9500   -945.73589    48.623009   -897.11288    1741.4999   -10102.234      2.14873  0.092043946   0.12113372 
    9600   -945.79899    40.382818   -905.41617    1446.3661   -679.07459    2.1785909  0.002974048   0.12576042 
    9700   -946.58843    50.054883   -896.53355    1792.7844    6742.5297    2.1960584  0.070899262   0.12127075 
    9800   -942.48119    46.978434   -895.50276    1682.5971    1688.0742    2.1744341  0.065412932   0.11995094 
    9900   -942.94468    43.351657   -899.59302    1552.6991   -9442.8858    2.1479309  0.061301766   0.12498662 
   10000   -950.49512    46.252586   -904.24253    1656.5999    1324.6739    2.1889838   0.10399017    0.1095127 
   10100   -944.75227    51.207603   -893.54466    1834.0706    4295.5234    2.1804577  0.079990175   0.11569134 
   10200   -942.73178    47.134634   -895.59715    1688.1916   -4160.6462    2.1572393  0.048456165   0.12707935 
   10300   -943.51234     44.58138   -898.93096    1596.7433   -4939.7509    2.1601178  0.078792128   0.12713497 
   10400   -948.25007    46.516088   -901.73399    1666.0376    9250.9304    2.2041295   0.43681742   0.13432915 
   10500   -940.69695    49.976596   -890.72035    1789.9804    939.11421    2.1618965   0.12814773   0.13155209 
   10600   -937.43152    42.684514   -894.74701    1528.8045   -12502.222    2.1250531  0.045734884   0.14137362 
   10700   -946.39925    48.982659    -897.4166    1754.3812    7672.8992    2.1935554   0.14758557   0.12526181 
   10800   -943.87381    45.408248   -898.46556    1626.3588    17502.032    2.2151269   0.21285106   0.12957583 
   10900   -939.28632    49.300528   -889.98579    1765.7661   -15703.935     2.121338  0.097969012   0.13064389 
   11000   -942.38928    45.066259   -897.32302      1614.11   -4240.4692    2.1548791  0.071094022   0.12986364 
   11100   -945.51633    47.791208   -897.72512    1711.7078    9564.5017    2.1972509   0.25257081   0.13155955 
   11200    -941.1458    47.146674   -893.99912    1688.6229    2478.4725    2.1718259  0.033501328   0.13898717 
   11300   -937.20507    46.021047   -891.18403     1648.307   -7395.1405    2.1381316  0.064293615   0.13289809 
   11400   -946.64398    45.954397   -900.68958    1645.9198     5998.473    2.1883082   0.22446339     0.114677 
   11500   -944.26862    49.015146   -895.25347    1755.5448    6407.3571    2.1839923   0.16368227   0.11913172 
   11600    -941.2224    46.534946   -894.68745     1666.713   -5255.7567    2.1522443   0.35108732   0.13262495 
   11700   -948.08548    43.934532   -904.15095    1573.5756    111.15966    2.1817254   0.19696736    0.1242142 
   11800   -948.56344    51.804879   -896.75856    1855.4629    2488.4004    2.1836215   0.18470942   0.12357875 
   11900   -942.05415    47.460518   -894.59363    1699.8636    2771.7402    2.1721071  0.066295198   0.12263687 
   12000   -947.89644    45.574455   -902.32198    1632.3117   -5803.9172    2.1661992   0.10223388   0.12524986 
   12100    -946.9738     47.98402   -898.98978    1718.6136    394.37755    2.1773509   0.19663569   0.11888064 
   12200   -942.07017    48.981274   -893.08889    1754.3316    8201.1371    2.1827793    0.1251948   0.11344573 
   12300    -945.6228    46.738513   -898.88429     1674.004   -6299.4243    2.1576054  0.055816937   0.10988205 
   12400   -942.25171    43.030588   -899.22112    1541.1996   -6463.9985    2.1545463   0.22223027   0.11536266 
   12500   -942.02856    51.910422   -890.11814     1859.243    7742.1045    2.1843655   0.39718041    0.1294194 
   12600   -942.17215    47.328925   -894.84322    1695.1504    5100.0287    2.1746566    1.2357913   0.13981235 
   12700   -947.45205    49.009911   -898.44214    1755.3573   -15460.455    2.1393484   0.58669235   0.14119621 
   12800   -943.16452    52.903728   -890.26079    1894.8197   -323.18717    2.1648249    1.0852252    0.1337356 
   12900   -942.55038    51.450774    -891.0996    1842.7802    10923.013    2.1891654  0.064333835   0.13008369 
   13000    -945.4831    47.151277   -898.33183    1688.7877   -6713.3092    2.1591422   0.35914557   0.12528575 
   13100   -941.73434    45.096557   -896.63778    1615.1951    -5774.797    2.1533613   0.23304902   0.13811484 
   13200   -942.14231    53.450149   -888.69217    1914.3905    5613.4691    2.1758876   0.16009754   0.12741409 
   13300   -939.54745    42.324915   -897.22254     1515.925    8297.5308    2.1809016   0.13099712   0.13081386 
   13400   -939.94609    41.790931   -898.15516    1496.7996   -6525.2463    2.1461313    4.8019515   0.13994845 
   13500   -939.01478    46.287407   -892.72737    1657.8471    4203.3701    2.1664057    3.6754181   0.14401669 
   13600   -945.05329    47.358395   -897.69489     1696.206     4840.706    2.1847109    5.0874123   0.12877643 
   13700   -946.66276    45.055951   -901.60681    1613.7408   -2892.0653    2.1686873    3.7445585   0.14172534 
   13800   -940.17971    45.996619   -894.18309    1647.4321   -2595.4558    2.1555921    6.4710379   0.11391597 
   13900   -943.38072    45.905044   -897.47567    1644.1522    3559.6358     2.177035    6.3174096   0.11002296 
   14000   -952.85044    49.933705   -902.91674    1788.4442   -1273.6101    2.1865927    6.5575492   0.13276769 
   14100   -940.99387    47.843522   -893.15035    1713.5814   -5858.8942    2.1493452    4.9092618   0.12961856 
   14200   -943.74634    47.488622   -896.25772    1700.8702     1444.244    2.1691437    5.1301501   0.12228007 
   14300   -945.95078    45.021553   -900.92923    1612.5088    6698.0835     2.190692    5.2838721   0.11866925 
   14400   -941.05277    50.116214   -890.93655     1794.981   -3618.9367    2.1511961    7.9175657   0.11527286 
   14500   -942.49031    47.466623   -895.02369    1700.0823   -1038.3357    2.1615778    7.6131243   0.12435463 
   14600   -942.58853    43.552782   -899.03575    1559.9027     6670.918    2.1857852    6.4929823   0.11940612 
   14700   -945.85672    52.257269   -893.59945    1871.6658    1067.8043    2.1719812    6.2872794   0.11852851 
   14800   -942.52293    50.422237   -892.10069    1805.9417   -7572.1179    2.1414311    7.3307456    0.1084513 
   14900    -946.0489    46.302955   -899.74595    1658.4039    -519.4503    2.1754171    6.7380554    0.1067543 
   15000   -942.64159    47.650182   -894.99141    1706.6567    13454.758    2.2019507    7.0705847   0.12702707 
   15100    -940.1293    48.307983   -891.82131    1730.2168   -5914.7773    2.1491436    7.5538505   0.13923964 
   15200   -946.25686    44.963216   -901.29364    1610.4193    -12445.11     2.148618    7.5896544   0.13133084 
   15300   -945.39683     48.03407   -897.36276    1720.4062     2639.341    2.1838278    7.7223123   0.12402514 
   15400   -944.43369    51.690198    -892.7435    1851.3554    6320.2227     2.185043    6.8943116   0.12280055 
   15500   -944.11531    44.469467   -899.64585     1592.735   -7655.0782    2.1507017    6.5378636   0.11058916 
   15600   -948.67087    47.852699   -900.81817    1713.9101   -5047.7907    2.1650708    6.8520058   0.11968037 
   15700   -942.18047    49.582057   -892.59841    1775.8495    7857.0268    2.1846559    5.3019183   0.13707177 
   15800   -943.63989    46.097888     -897.542    1651.0592   -103.07889     2.172959    5.9974657   0.14828673 
   15900   -945.12825    42.225233   -902.90302    1512.3547   -4202.0894    2.1669957     5.701614   0.13576477 
   16000   -946.02716    52.872064    -893.1551    1893.6856   -958.13344    2.1695925     6.732561   0.13769758 
   16100   -945.10312    50.440355   -894.66277    1806.5906    4895.3173    2.1843864     7.704824   0.13233802 
   16200   -943.49926     43.19317   -900.30609    1547.0227   -1991.1795    2.1698638    7.4052713   0.14069633 
   16300   -939.35251     46.38831    -892.9642     1661.461   -503.53409     2.164037    5.6106329   0.14984139 
   16400   -938.41327    45.753275   -892.65999    1638.7164    4568.9569    2.1711978    7.3244317   0.13645395 
   16500   -943.29995    44.144715   -899.15523    1581.1036    698.18656    2.1743935    4.0566625   0.13585295 
   16600   -941.46986     46.66005   -894.80981    1671.1938    1560.1046    2.1672841    7.1408553   0.14026823 
   16700   -941.09739    50.232654   -890.86473    1799.1515   -3432.3212    2.1578032    5.5337734   0.15580181 
   16800   -944.96714    45.313488   -899.65365    1622.9648    1422.1402    2.1806955    7.0038963   0.14126044 
   16900   -943.66523    48.103728    -895.5615    1722.9011   -234.71114    2.1723121    6.4052892   0.13039307 
   17000    -940.1186    48.366186   -891.75242    1732.3014   -2057.4007    2.1582784    6.2883642   0.14786117 
   17100   -947.17747    45.512988   -901.66448    1630.1102    2138.0805    2.1859958    7.1769083    0.1270268 
   17200   -943.15348    46.787158   -896.36632    1675.7463   -701.95941    2.1690849    6.7369514   0.12776746 
   17300    -942.7017    48.989857   -893.71184     1754.639   -3754.5704    2.1573748     6.587682    0.1383315 
   17400   -948.77086    46.020241   -902.75062    1648.2782    2946.1495    2.1893683    5.3161566   0.12571777 
   17500   -943.24871    46.651536   -896.59717    1670.8888    2907.0768    2.1784219    5.6215647   0.13670868 
   17600    -943.1495    48.781532   -894.36797    1747.1776    -7602.294    2.1509405     6.324494   0.14782837 
   17700   -950.51384     48.73459   -901.77925    1745.4963   -4666.0578    2.1717552     5.997465   0.11703004 
   17800   -942.13393    43.919211   -898.21472    1573.0269    13195.722    2.1999746    6.0279741   0.13219595 
   17900   -941.93458    49.116466   -892.81811    1759.1737   -390.69223     2.166515    8.2849431   0.13686402 
   18000    -944.2183    44.338778   -899.87953    1588.0542   -10352.566    2.1491038    7.7364476   0.12300597 
   18100   -942.86099    44.607162   -898.25383    1597.6668    4937.1432    2.1849277    7.0465548    0.1211174 
   18200   -941.16253    51.200198   -889.96234    1833.8054    6744.4265    2.1798314     7.566962   0.13390201 
   18300   -944.15985    46.132942   -898.02691    1652.3147   -5248.4527     2.157433    6.5977403    0.1254317 
   18400   -944.05533     45.59747   -898.45786     1633.136   -5270.1768      2.16029     6.383282   0.12766431 
   18500   -941.59442    52.391966   -889.20245    1876.4902    5806.1422    2.1773786    7.3224386   0.13996788 
   18600   -947.31992     50.41866   -896.90126    1805.8136    3821.6478    2.1878406    6.7771237   0.12465413 
   18700   -942.22699    42.568629   -899.65836    1524.6539   -7700.1969    2.1541833    6.6911141   0.13524162 
   18800   -939.65965    47.575319   -892.08433    1703.9754   -1600.3479    2.1585715    7.9038086    0.1212451 
   18900   -943.48998    44.836355   -898.65362    1605.8756    11116.977    2.1986584    7.1378664   0.13375271 
   19000   -945.46061    45.236521   -900.22409    1620.2081   -648.84845    2.1703453    7.0371416   0.10545569 
   19100   -944.05946    50.126082   -893.93337    1795.3345   -8163.2637    2.1478939     7.244934   0.11800946 
   19200    -944.9611    47.318184   -897.64291    1694.7658    1671.6656    2.1780912     7.338019    0.1342541 
   19300   -947.13472    45.705861   -901.42886    1637.0182    5947.1023    2.1930727    6.6230076   0.12682183 
   19400   -939.51315    45.966398   -893.54675    1646.3497   -2630.0246    2.1564738    6.4149424   0.13129472 
   19500   -945.39131    48.895123   -896.49619     1751.246   -4935.1689    2.1618927    6.5368774   0.11743535 
   19600   -946.91369    45.402664   -901.51103    1626.1588    3496.7773    2.1883834    6.6087231   0.11326029 
   19700   -942.74185    50.481743   -892.26011     1808.073   -693.19162    2.1646863    7.3481744   0.12649751 
   19800   -945.82274    49.336615   -896.48613    1767.0586   -2639.1734    2.1682008    7.8589786   0.13007681 
   19900   -948.80762    47.856325    -900.9513      1714.04   -645.92575    2.1781578     7.763868   0.12107928 
   20000   -939.42581    48.021474   -891.40434    1719.9551    634.74644    2.1624976    8.3881152   0.14147758 
   20100   -946.57998    50.160943   -896.41903    1796.5831   -1338.7508    2.1732522    6.5017863   0.12509599 
   20200    -945.7192    45.491348   -900.22785    1629.3351   -665.77277    2.1729439    7.0637067   0.12495669 
   20300    -940.3522    48.806337   -891.54586     1748.066   -1131.8749    2.1566182    6.7166562   0.11644081 
   20400   -944.61694    47.403282   -897.21366    1697.8137    1445.6332    2.1743642    6.9551811   0.12246435 
   20500    -944.0578    44.034763   -900.02303    1577.1655    2743.6555    2.1749001    6.6011468   0.11832003 
   20600   -940.13478    47.997345   -892.13743    1719.0908   -1629.5947     2.155894    6.7621434   0.14005337 
   20700   -942.73209    45.520456   -897.21163    1630.3776    380.35539     2.170436     6.920212   0.13529992 
   20800   -947.69112     47.52979   -900.16133    1702.3447    221.96012    2.1766212    6.0858277   0.11824434 
   20900   -943.01387    50.646459   -892.36741    1813.9725    942.99961     2.167438    6.9255741   0.13211456 
   21000   -948.64249    50.673943   -897.96855    1814.9569   -2790.6312    2.1681341    7.3795847   0.11240904 
   21100   -946.75526    45.837316   -900.91794    1641.7264   -2076.1771    2.1702541    7.5514414    0.1129544 
   21200   -944.00167    51.112425   -892.88925    1830.6617    189.58538    2.1673367     6.741994   0.12840764 
   21300   -943.33837    45.392072    -897.9463    1625.7794    2419.9763    2.1742467    4.8381585    0.1215446 
   21400   -947.40096    45.427924   -901.97304    1627.0635   -3041.3351    2.1720806    5.5459321   0.13465426 
   21500   -939.44427     46.72622   -892.71805    1673.5637   -1758.1277    2.1573644    6.1446356   0.14686168 
   21600   -943.44275    46.249799   -897.19295    1656.5001    5292.4105    2.1839089    8.2425966   0.12734689 
   21700   -944.62994    44.009708   -900.62023    1576.2681    3212.5634     2.181062    6.5199972   0.12924883 
   21800   -942.17323    50.551099   -891.62213     1810.557   -10108.556    2.1433646    6.8379095   0.11899091 
   21900   -943.71994     46.07251   -897.64743    1650.1502      917.511    2.1744961     6.424137   0.13173441 
   22000   -945.22194    46.473799   -898.74814    1664.5229    8878.8386    2.1918221    6.0827453   0.12466543 
   22100   -937.34259    46.050643   -891.29195     1649.367    -1834.028    2.1497255    6.3728932   0.14239526 
   22200   -939.92348    43.188006   -896.73548    1546.8378   -3012.2483    2.1536615    7.6292739   0.13999391 
   22300   -943.74835    45.027243   -898.72111    1612.7126    8383.9969    2.1930337    6.6740398   0.13099073 
   22400   -943.08589    51.588858   -891.49703    1847.7258    5537.3518    2.1783964    5.4862229   0.12927511 
   22500   -943.24922    47.232866   -896.01636      1691.71   -11822.719    2.1368108    5.3436957   0.13099492 
   22600   -944.51005    43.307099   -901.20295    1551.1032   -1426.7004    2.1710435    6.8462162   0.13480592 
   22700   -944.94589     52.46024   -892.48565    1878.9356    10688.332    2.1997736    6.2787385    0.1307869 
   22800   -944.12155    48.605888   -895.51566    1740.8866   -2755.3422     2.164129    8.7291619   0.12635589 
   22900   -951.12206    48.337885   -902.78417    1731.2877   -12787.237    2.1526162    7.3969855   0.11299866 
   23000    -947.5689    52.579824   -894.98907    1883.2186    1898.1361    2.1791104    6.7382386   0.11067009 
   23100   -942.35279    48.364105   -893.98869    1732.2268    5839.9777    2.1828238    5.5409821   0.15194219 
   23200   -947.15427    44.496738   -902.65754    1593.7118   -2774.7441    2.1698181    6.4144253   0.13057787 
   23300   -945.88174    50.324456   -895.55728    1802.4395   -4313.3098    2.1627766    7.6000128   0.12888085 
   23400   -944.68325    51.445542   -893.23771    1842.5927    3867.4861    2.1793783    7.9211521   0.13497275 
   23500   -948.43943    47.284382   -901.15504    1693.5551    843.26482    2.1833099    7.6678905   0.12942848 
   23600   -942.55182    48.147762   -894.40406    1724.4782     -3897.13    2.1560482    7.1595732   0.12785121 
   23700    -940.7631    47.492674   -893.27042    1701.0153    564.98244    2.1635679    9.1873318   0.12181782 
   23800   -943.02554    42.770354   -900.25518     1531.879     3370.962    2.1830097    7.6147976   0.13451552 
   23900   -942.41721    48.629668   -893.78754    1741.7383   -599.86643    2.1627653    6.6040105   0.11944223 
   24000   -945.47682    52.600625   -892.87619    1883.9636     -5480.41    2.1517625    6.3452855   0.11213357 
   24100   -947.05248    46.433278    -900.6192    1663.0716    1568.1072    2.1796578     6.892006   0.14117023 
   24200    -942.8554     48.72161   -894.13379    1745.0314    4739.1535    2.1795241    4.8805095    0.1441184 
   24300   -940.90893    49.695181   -891.21375    1779.9012   -6489.6554    2.1465389    5.1752482   0.13683228 
   24400   -945.06866    44.832901   -900.23576    1605.7519   -5488.6628    2.1524311    7.9729418   0.14524069 
   24500    -946.1013    51.474314   -894.62698    1843.6233    6717.2939    2.1873525    7.6245315   0.14746387 
   24600    -942.1308    51.155663   -890.97514    1832.2103    5550.2073    2.1739638    13.657018   0.13447954 
   24700    -944.7574    44.027338   -900.73007    1576.8996   -8230.8028    2.1484258    16.043581   0.13912213 
   24800   -944.09589     46.07825   -898.01764    1650.3558   -2880.9737    2.1600324    15.924789   0.13277567 
   24900   -940.47273    48.916051   -891.55668    1751.9955    12002.947    2.1870123    15.468244   0.13812839 
   25000   -948.39993    48.334597   -900.06533      1731.17   -2911.4048    2.1724725    15.325725    0.1366591 
   25100    -944.4239    44.268962   -900.15494    1585.5537    -10171.27    2.1464604    15.427052   0.12387712 
   25200   -942.69194    49.499528   -893.19241    1772.8936     3751.947    2.1698336    18.014739   0.13234262 
   25300   -945.69145     47.65231   -898.03914    1706.7329    7340.7388    2.1914876    16.362363   0.13808514 
   25400   -946.30064    43.248127   -903.05251    1548.9911   -3303.7249    2.1688075    14.720101   0.11280279 
   25500   -943.50101    50.068426   -893.43259    1793.2694   -7292.5019    2.1456368    15.940893   0.12234531 
   25600   -945.00244    48.689862   -896.31258    1743.8943    4781.2011    2.1818812    12.881489    0.1227658 
   25700   -948.59251    47.004002   -901.58851    1683.5129    852.99099    2.1821408    13.016986   0.11119309 
   25800   -942.40831    50.522842   -891.88547     1809.545   -4946.9491    2.1486858    14.484414   0.13379498 
   25900   -945.27511    49.017614    -896.2575    1755.6332   -1684.0587    2.1699831    14.398022    0.1226931 
   26000   -946.21053    46.406182   -899.80435    1662.1012     3615.213    2.1822632    14.803946   0.12454128 
   26100   -941.34158     50.60162   -890.73996    1812.3665   -2898.9364    2.1527791    16.586449   0.13088467 
   26200   -942.67389    46.716177   -895.95771     1673.204   -1213.7392    2.1637196    15.857436   0.11292534 
   26300   -947.71779    48.159398   -899.55839     1724.895   -1010.4144    2.1783591    15.038003   0.12408384 
   26400   -944.47149    52.498001   -891.97349     1880.288   -763.57589     2.168264    15.075697   0.12060006 
   26500   -941.72009    45.900978   -895.81911    1644.0066   -2404.2971    2.1629513    16.839801   0.13069559 
   26600   -947.02892      46.5187   -900.51022    1666.1311   -1178.4022    2.1743876    15.824662   0.12325969 
   26700    -943.7549    50.977731   -892.77717    1825.8374    3854.8563    2.1797552    14.747368    0.1408164 
   26800   -944.25336    47.050231   -897.20313    1685.1686   -831.95886    2.1699209    14.857043    0.1343943 
   26900   -945.96956    43.626106   -902.34345    1562.5289   -8381.1094    2.1584043    14.063348   0.12405564 
   27000   -941.45694    47.352186   -894.10476    1695.9836    4682.6762     2.177649    15.184125   0.13134797 
   27100    -941.4842    46.180122   -895.30408    1654.0045    13202.832    2.1989223    20.073099   0.12778726 
   27200   -946.72448    43.477019   -903.24746    1557.1892   -8668.2711    2.1602027    16.055857   0.12011389 
   27300   -938.64024    43.435084   -895.20516    1555.6872   -5844.7368    2.1482548    14.835738   0.13233449 
   27400   -945.11329    52.193962   -892.91933    1869.3984    11269.973    2.1987214    13.313948   0.13126092 
   27500   -946.66922    46.229784   -900.43944    1655.7832    4276.0046    2.1861932    16.455691   0.11931164 
   27600   -943.84692    49.863091   -893.98383    1785.9151   -12000.823    2.1398936    15.472566   0.12477801 
   27700   -940.80887    48.033831   -892.77503    1720.3976    476.02683    2.1661868     17.61199   0.14770182 
   27800   -946.44043    47.770354   -898.67008    1710.9608    8246.2935    2.1949002    16.324796   0.11720668 
   27900   -943.69646    48.068338   -895.62812    1721.6335   -2234.8878    2.1645403    16.026823   0.12346972 
   28000   -939.75819    48.636876   -891.12131    1741.9965   -6782.0032    2.1447059    16.031991   0.14463456 
   28100   -944.71739    45.826303   -898.89109     1641.332    3174.0555    2.1846246    25.286944   0.14159969 
   28200   -939.32826    46.675941   -892.65232    1671.7629    7720.3265    2.1820018    24.631817   0.15489455 
   28300   -943.34096    50.705089   -892.63587    1816.0724   -6829.7744    2.1516957    37.803106   0.17687586 
   28400   -945.08558    44.553206   -900.53238    1595.7343   -1089.6758    2.1717641    38.832338   0.16184248 
   28500   -941.36553    48.018346   -893.34719     1719.843     4924.776    2.1805353     42.52067   0.18326519 
   28600   -941.99577    49.005709   -892.99006    1755.2068   -1749.1833    2.1591318    37.455341   0.15697945 
   28700   -948.77956    47.766285   -901.01328    1710.8151    -4593.297     2.169047    20.157721   0.12517173 
   28800   -941.85471    48.149678   -893.70504    1724.5468    2540.7566     2.169032    22.558095   0.14960356 
   28900   -938.52061    46.744726   -891.77588    1674.2266    3025.2631    2.1615494    24.063187     0.151348 
   29000   -944.24307    43.318829   -900.92424    1551.5234    2433.8295    2.1808522    22.153079   0.13986858 
   29100   -939.65868    44.178885   -895.47979    1582.3274   -2412.9671    2.1562793    22.260815   0.14235571 
   29200   -940.72511    48.019364   -892.70575    1719.8795    1022.4617    2.1613245     20.79608   0.12907886 
   29300   -949.55003    48.809151   -900.74087    1748.1668    752.86961    2.1805219    21.023812   0.12088156 
   29400   -945.40444    50.115524   -895.28892    1794.9563   -208.78957    2.1669191    22.683779   0.12521635 
   29500   -944.71651    51.691889   -893.02462     1851.416   -4270.3357    2.1578315    20.760866   0.11935273 
   29600   -947.84806    47.011181   -900.83688      1683.77   -1170.4688    2.1757423    21.470511   0.11297524 
   29700   -944.05745     49.18252   -894.87493    1761.5395    1585.6509     2.172349    22.674234   0.11632569 
   29800   -942.13547    49.245859   -892.88961    1763.8081   -308.53198    2.1630925    22.870244   0.11825609 
   29900   -949.74886    48.426145   -901.32272    1734.4489    -3850.563    2.1721235    24.416201   0.10604008 
   30000    -945.4668    50.558546   -894.90825    1810.8238    905.96166    2.1718892    23.084993   0.12350506 
   30100   -943.98536    51.400068    -892.5853     1840.964    669.24052    2.1709711    20.256171   0.12736921 
   30200   -944.76499    43.528895   -901.23609    1559.0472    -3365.413     2.164863    20.970382   0.11534645 
   30300   -947.15566    51.364909   -895.79075    1839.7048    -5018.964    2.1615284    23.474893   0.12499205 
   30400   -942.67646    51.581092   -891.09537    1847.4477    9299.3243    2.1848725    22.045728   0.12395381 
   30500   -947.20632      46.8302   -900.37612    1677.2879    1138.2449    2.1814806    25.335208   0.11861311 
   30600   -942.34796    46.171967   -896.17599    1653.7124   -10428.157    2.1419033    21.378538   0.11556797 
   30700   -941.51839    49.345365   -892.17303     1767.372     1272.606    2.1668812    19.301289   0.13714425 
   30800   -946.79053    47.563358   -899.22717     1703.547    10540.953    2.2031924    22.945583   0.12363683 
   30900   -945.70657    47.239065   -898.46751     1691.932   -7054.9342    2.1579484    22.269034   0.12553933 
   31000   -938.34209    45.703862   -892.63822    1636.9466   -7528.6129    2.1395838     23.33349   0.14658492 
   31100   -943.24595    44.242884   -899.00307    1584.6196    9392.3154    2.1956489    25.794815   0.13004611 
   31200   -949.80658     50.57282   -899.23376     1811.335    1925.4865    2.1878451    22.755978   0.12333317 
   31300   -943.95444    51.370184   -892.58425    1839.8937   -10114.077    2.1404848    23.358746   0.11943131 
   31400   -947.25054    46.847717   -900.40282    1677.9153   -4235.0593    2.1707547    25.817586   0.11403691 
   31500   -945.57962    46.850293   -898.72933    1678.0076    7070.3882    2.1923323    22.588716   0.13294452 
   31600   -943.65937    51.381309   -892.27806    1840.2922   -3227.1069    2.1589382    21.531192   0.12687037 
   31700   -946.43087    46.992546   -899.43833    1683.1026   -7711.7892    2.1562508    20.894504   0.12502003 
   31800   -946.75709    47.474825   -899.28227    1700.3761    967.27381    2.1769585    22.183318   0.13072398 
   31900   -943.22814     51.46753   -891.76061    1843.3803    1600.8394    2.1740125    21.769809   0.10483477 
   32000   -945.95572    46.810172   -899.14555    1676.5706   -2031.8453     2.168215    22.981122   0.11148561 
   32100   -941.71371    42.113592   -899.60012    1508.3561    123.57288     2.166327    22.096215   0.12766946 
   32200   -944.39875    52.645749     -891.753    1885.5798   -2306.3176    2.1653743    21.903744   0.12068752 
   32300   -949.37597    50.597524   -898.77844    1812.2198   -358.44345    2.1792291    21.472064     0.112014 
   32400    -943.1021    43.610145   -899.49195    1561.9572    1744.6301    2.1708026    22.124425   0.11656237 
   32500   -939.42324    48.289084   -891.13416    1729.5399   -1939.4377    2.1570012     22.94141   0.11838588 
   32600   -948.27663     49.89553    -898.3811    1787.0769   -2846.7146    2.1732842    21.528334   0.13395532 
   32700   -944.96527     46.13799   -898.82728    1652.4955    2005.0346    2.1787157    22.983865   0.13120143 
   32800   -940.08413    49.992691   -890.09144    1790.5569    -1809.915    2.1518812    26.825526   0.12763222 
   32900   -944.10234    45.705234   -898.39711    1636.9957    1681.1806    2.1751356     20.93259   0.13551624 
   33000   -942.46503    44.016699   -898.44833    1576.5185    3813.3498      2.17563    23.150413   0.11677294 
   33100   -938.71272    48.155494   -890.55722    1724.7551    2168.6407    2.1593739    19.770624   0.12814887 
   33200   -944.28409    45.096301   -899.18779     1615.186    809.66836    2.1770068    22.965092   0.12025168 
   33300   -943.99113    45.422604   -898.56853    1626.8729   -567.90499    2.1720938    20.908941     0.136072 
   33400   -942.92088    50.655445   -892.26544    1814.2943   -3561.6509    2.1561207    21.371031   0.12302719 
   33500   -947.51908    47.676331   -899.84275    1707.5933    1259.1981    2.1777218    20.464628    0.1238771 
   33600   -944.80093    44.867303   -899.93363    1606.9841    1535.9726    2.1747521    23.001359   0.12692489 
   33700   -943.11177    49.678503   -893.43327    1779.3038   -1879.4817    2.1636587    21.357179   0.12407871 
   33800   -943.46206    44.798147   -898.66391    1604.5072   -850.57441    2.1659778    23.726081   0.11771243 
   33900   -947.35586    45.462716   -901.89314    1628.3096     1521.572    2.1783349    19.161047    0.1130917 
   34000    -940.4665    47.187136   -893.27936    1690.0721    5221.5504    2.1690443    21.629491   0.11984942 
   34100   -940.07498    42.490424   -897.58455    1521.8529    2050.5132    2.1646988    23.121323   0.11700167 
   34200   -947.52743    44.789968   -902.73746    1604.2142   -348.29289    2.1733453    21.266131    0.1134188 
   34300   -940.82725    47.883027   -892.94422    1714.9964    -1358.964    2.1650406    22.713812   0.13293928 
   34400   -944.29733     48.52687   -895.77046    1738.0565    1782.2211    2.1750876    21.717362   0.12144401 
   34500   -944.68187    43.464737   -901.21713    1556.7493   -3049.1324    2.1632187    25.694583   0.11113811 
   34600   -940.06359    47.744029   -892.31956     1710.018   -3101.3111    2.1523641    22.421956   0.12685866 
   34700   -941.21453    47.320654   -893.89388    1694.8542    9239.6064    2.1832415    24.438706   0.12315682 
   34800   -943.19777    43.610986   -899.58678    1561.9874   -1018.4534    2.1660565    23.013133   0.11614783 
   34900     -940.245    46.653245   -893.59176      1670.95   -5041.5277    2.1396227    22.791206   0.11170245 
   35000   -941.28784    50.660298   -890.62754    1814.4682    4600.8991    2.1672915    22.996061   0.12050019 
   35100   -945.39589    46.945658   -898.45023    1681.4232    7152.5558    2.1890652    23.586222   0.12401831 
   35200   -943.14633    46.817907   -896.32843    1676.8477   -7725.0689    2.1452308    22.189461   0.11809972 
   35300   -940.45999    49.350742   -891.10925    1767.5646   -7093.7304    2.1373245    22.674759   0.12565475 
   35400   -947.75667    47.022593   -900.73407    1684.1787    12633.713    2.2089756    22.519658   0.12316441 
   35500   -948.69093     51.54765   -897.14328    1846.2499   -2233.1794      2.17216    23.148133   0.11626858 
   35600   -943.24757    48.777587   -894.46998    1747.0363   -14392.829    2.1272036    23.191908   0.12035454 
   35700   -948.14553    46.650901   -901.49463    1670.8661    424.93736    2.1790572    21.924671    0.1242252 
   35800   -945.96573     45.95658   -900.00915     1645.998    11851.034    2.2014701    22.456975   0.10909484 
   35900   -942.98139    48.859432   -894.12196    1749.9677   -4645.2918    2.1541734    25.193893   0.12765288 
   36000   -945.96248    48.096203   -897.86628    1722.6316   -7220.1602    2.1571941    21.916009   0.12614488 
   36100   -949.71664    47.686571   -902.03007      1707.96    3439.5782    2.1885409    20.751189   0.12201029 
   36200    -937.6528    45.181611   -892.47119    1618.2415    3971.5582    2.1669791    19.941095   0.13816839 
   36300   -943.47019    46.342382   -897.12781    1659.8161   -2430.0123    2.1622035    26.390648   0.12976976 
   36400   -944.82057    44.431768    -900.3888    1591.3848    3261.1223      2.18092    21.757369   0.12601644 
   36500   -941.24608    51.030487    -890.2156     1827.727   -403.25757     2.164548    21.603599   0.13870171 
   36600   -944.30103    49.191445   -895.10959    1761.8592    418.67121    2.1715526     20.93475   0.13370015 
   36700   -943.36046    43.597777   -899.76269    1561.5143   -2759.8546    2.1644303    21.751582   0.11397083 
   36800   -940.15308    48.147767   -892.00531    1724.4784    1646.1084    2.1668225    22.330118   0.14978626 
   36900   -943.91354    50.674356   -893.23918    1814.9717    2829.5586    2.1772998    22.343464   0.13144407 
   37000   -946.82952    47.344959   -899.48456    1695.7247   -5952.9557    2.1596629    20.744465   0.11830638 
   37100   -946.19366     51.20638   -894.98728    1834.0268   -5327.9341    2.1590742    20.665865   0.11370382 
   37200   -940.96546    52.575231   -888.39023    1883.0541    7200.2605    2.1790616    23.915105   0.12822186 
   37300   -944.28578    45.744501   -898.54128    1638.4021    2796.3415    2.1772886    23.297022   0.11959825 
   37400   -945.38232    47.619432   -897.76289    1705.5554   -16185.904    2.1309305    22.174999   0.13195702 
   37500   -941.41241    48.942142   -892.47027      1752.93    3543.5966    2.1753119    24.629169   0.12623399 
   37600   -945.37136    45.291124   -900.08023    1622.1638    14529.014    2.2113368    19.324777   0.12888467 
   37700   -943.85378    43.054655   -900.79912    1542.0616   -5756.9706    2.1536546     20.77686   0.13556424 
   37800   -940.51404     45.83658   -894.67746    1641.7001   -6455.3937    2.1459783    22.411077   0.12601073 
   37900   -944.96109    48.061341   -896.89974    1721.3829    5926.3476    2.1867223    21.129024   0.13270415 
   38000   -944.75218    41.582257   -903.16992    1489.3256    6970.4853     2.190423    21.178625   0.12061678 
   38100   -941.15781    47.994732   -893.16308    1718.9973   -8334.2646    2.1420642    23.588893    0.1177781 
   38200   -943.37284    47.711526   -895.66131    1708.8538     1109.105    2.1702136    20.814623   0.13161669 
   38300   -943.83247    43.614062   -900.21841    1562.0975    8073.4977    2.1924532    20.882867   0.12915275 
   38400   -940.45572    49.882706   -890.57302    1786.6176    -2952.149    2.1518751    24.445686   0.11993426 
   38500   -946.68825      52.1602   -894.52805    1868.1892   -4395.5172    2.1607689    20.734127   0.13645323 
   38600   -941.32144    42.717663   -898.60378    1529.9918    5709.3951    2.1810556     20.86612   0.12271883 
   38700   -944.36466    50.882149   -893.48251     1822.414    930.71811    2.1728818    24.208913   0.12111792 
   38800   -940.56436     49.18803   -891.37633    1761.7369    -4520.354    2.1485447    24.143252   0.13645797 
   38900   -946.23456    46.803655    -899.4309    1676.3372   -1527.3852    2.1695493    21.996444   0.11705891 
   39000   -945.10169    49.963099   -895.13859     1789.497    9386.1366     2.192009    23.949721   0.13465921 
   39100   -938.87506    48.666451   -890.20861    1743.0558   -822.01012    2.1540129    23.501299   0.12265265 
   39200   -946.57432    46.923951   -899.65037    1680.6458   -13524.956    2.1401616    21.658454   0.11811841 
   39300   -947.44697    49.046464    -898.4005    1756.6665    4669.4667    2.1867242    23.070617   0.12743251 
   39400   -946.31777    52.966024   -893.35174    1897.0509    10142.266    2.1974361    22.008414   0.13598573 
   39500   -941.37079    43.861497    -897.5093    1570.9597   -10504.595    2.1390289    20.333555   0.12476241 
   39600   -948.26586     44.61334   -903.65252     1597.888   -7201.2164    2.1654165    23.045904   0.11756618 
   39700   -948.04122    53.488812   -894.55241    1915.7753     7780.797    2.1903484    19.090307   0.11812878 
   39800   -941.01143    45.278332    -895.7331    1621.7056     3231.285     2.168624     23.41982    0.1229293 
   39900   -944.08816    41.661371   -902.42679    1492.1592   -7656.8464    2.1572959    22.817569   0.12868373 
   40000   -944.71561    45.126117   -899.58949    1616.2539    3886.3499     2.180224    22.802175   0.12531071 
   40100   -940.51366    46.671261    -893.8424    1671.5953    6571.7921    2.1767906     20.70628    0.1239251 
   40200   -946.06374    47.485371   -898.57837    1700.7538   -4656.0981    2.1606571    21.326073   0.12571657 
   40300   -945.03609    44.479043   -900.55705     1593.078   -3114.6408    2.1689126    19.155204   0.13347116 
   40400   -938.73436    48.606542   -890.12782    1740.9101    2149.8575    2.1647607    21.329418   0.12601139 
   40500    -943.3651    48.397013   -894.96809    1733.4055    3756.5883    2.1754334    20.262716    0.1246374 
   40600   -943.70713    44.696025    -899.0111    1600.8495   -1493.8803    2.1655158    22.221693    0.1219472 
   40700      -941.83    49.774724   -892.05528    1782.7501    -498.5046    2.1596933    20.459979   0.12285228 
   40800   -941.41017    49.964404   -891.44577    1789.5438    3649.0832    2.1659031    23.751212   0.11829622 
   40900   -945.68882    47.156776   -898.53205    1688.9847   -2258.1649     2.166104    20.437861   0.10687566 
   41000   -943.58646    47.964122   -895.62234    1717.9009    424.52807    2.1647576    23.767242   0.11779279 
   41100   -938.50883    50.669179   -887.83965    1814.7863    3731.4312    2.1643534    19.076111   0.12383735 
   41200   -943.97852    45.907799   -898.07072    1644.2509    2899.0215    2.1749432    20.326104   0.11094338 
   41300   -945.27342    47.550431   -897.72299     1703.084   -9432.9304    2.1467876    22.857555   0.11861399 
   41400   -940.66923    47.921638   -892.74759    1716.3793     1069.026    2.1669422    21.045897   0.10643731 
   41500    -948.4442    47.063792   -901.38041    1685.6544    9669.0912    2.2021418     18.88331   0.12237172 
   41600   -942.67824    42.256256   -900.42198    1513.4659   -6648.5079    2.1540188    26.733853   0.11400558 
   41700   -943.27325    47.547075   -895.72618    1702.9638   -5113.3781    2.1528158    21.328171   0.10671703 
   41800   -944.35576    50.213242   -894.14251    1798.4562    8025.1271    2.1885447    21.514574   0.12149622 
   41900   -945.32402    41.532127   -903.79189    1487.5302    4165.8885    2.1875211    23.977421   0.13227371 
   42000   -939.12641    41.797058   -897.32935    1497.0191   -9622.9037    2.1396966    21.658254   0.11476135 
   42100   -943.11763    48.440951   -894.67668    1734.9792      1557.14    2.1726581    19.832358    0.1354918 
   42200   -946.35307    46.999251   -899.35382    1683.3427    8017.2781     2.196316    22.258801   0.12930106 
   42300   -951.63718    47.220329   -904.41685     1691.261   -7690.5416    2.1697685    21.829219  0.099309969 
   42400    -940.6301    46.695538   -893.93456    1672.4648   -9306.7496    2.1430918    19.418008   0.13606593 
   42500   -940.68571     45.35806   -895.32765    1624.5612    10474.905    2.1900847    23.936721   0.11987382 
   42600   -946.57837    47.458996   -899.11938    1699.8091    3426.6189    2.1835215    20.523039   0.12699907 
   42700   -937.25091    47.600205    -889.6507    1704.8667   -7078.4513    2.1396414    23.060833   0.15542889 
   42800   -940.70607    47.338942   -893.36713    1695.5092    445.95223    2.1647917    23.440408   0.13075964 
   42900   -947.27048    49.751567   -897.51891    1781.9207    309.97708    2.1745046    21.771617   0.12290032 
   43000   -943.64585    47.694397   -895.95145    1708.2403   -1203.8983    2.1649413    21.979536   0.13220789 
   43100   -937.13788    50.511485    -886.6264    1809.1382   -4653.2556    2.1407277    21.895643   0.11592637 
   43200   -945.21247    48.023953   -897.18851    1720.0438    2980.9319    2.1813979    20.553619   0.12060345 
   43300   -946.92221    49.527449   -897.39476    1773.8936   -2394.5738    2.1693244    22.315554    0.1238771 
   43400   -943.78375    49.933684   -893.85007    1788.4435   -4187.6872      2.15647    23.828822   0.11545755 
   43500   -937.47227    51.711346   -885.76092    1852.1129    1817.2747    2.1566002    21.687155   0.14905048 
   43600   -944.79297    47.959134   -896.83383    1717.7223     5844.365    2.1857398    22.013261   0.13013946 
   43700   -946.99562    49.862501   -897.13312     1785.894    -7995.491    2.1519546    22.702784   0.10928306 
   43800   -939.68652    45.008711   -894.67781    1612.0488    1782.8315    2.1640532    20.888723   0.14364139 
   43900   -943.02471    40.606233   -902.41848     1454.368    4304.4321    2.1866179    23.782429   0.13409376 
   44000    -945.9076    43.856182   -902.05142    1570.7694    528.78346    2.1787049    21.867009   0.12794197 
   44100   -946.37422    50.086522    -896.2877    1793.9176   -3048.9754    2.1679963     24.07618   0.12572792 
   44200   -943.31992     47.92334   -895.39658    1716.4402    999.28577    2.1694168    22.419515   0.11608779 
   44300   -948.49309    43.943205   -904.54988    1573.8862    705.00858    2.1864371    23.410393   0.12493543 
   44400     -943.348    44.633715   -898.71428    1598.6178   -3374.7201     2.167796    22.441604   0.14357146 
   44500   -941.97399    46.815474   -895.15852    1676.7605    1485.8103    2.1716876    22.331512   0.12918606 
   44600   -945.63788     46.98216   -898.65572    1682.7306     1785.498    2.1754656    24.894174   0.11810744 
   44700   -949.11764    43.400295   -905.71735    1554.4412    -2474.557    2.1804407    20.855817   0.11868501 
   44800   -943.60505    47.930698   -895.67435    1716.7038   -5025.3587    2.1574676     26.01693   0.12566611 
   44900   -945.54175    49.792481   -895.74927    1783.3861    4676.2918    2.1844828    22.569524   0.13281915 
   45000   -947.69811    49.112106   -898.58601    1759.0175    3215.4339    2.1816731     20.98444   0.12996726 
   45100   -943.54329    51.154776   -892.38851    1832.1786   -11056.353     2.135522    21.013184   0.12232476 
   45200   -940.96013    50.244971   -890.71516    1799.5926    482.12392    2.1641544    20.351769   0.13555066 
   45300   -944.55149     49.48926   -895.06223    1772.5258     9563.098    2.1931673    21.532215   0.12588337 
   45400   -945.66981    46.857763   -898.81205    1678.2751    -5714.678     2.156773    22.132927   0.12818539 
   45500   -940.84726    50.118961   -890.72829    1795.0794   -7124.3671    2.1398907    23.167773   0.14295933 
   45600   -943.20866    51.893001   -891.31566    1858.6191    10149.367    2.1896585    28.342049   0.15396849 
   45700    -944.0676    47.728379   -896.33922    1709.4574    3514.4513    2.1805756    59.644243   0.16114874 
   45800   -941.63266    46.213572   -895.41909    1655.2025   -8550.3547    2.1474762    67.694419   0.14439246 
   45900   -939.79295    52.132517   -887.66043    1867.1977   -2922.5663    2.1539908    35.465443   0.15860792 
   46000   -942.40419    45.761557   -896.64264     1639.013    9415.6477    2.1913932    35.935818   0.16168212 
   46100   -945.01398    48.113124   -896.90086    1723.2376   -6401.3035     2.158449    34.782072   0.15675421 
   46200   -941.20978    47.961131   -893.24865    1717.7938   -5457.5976    2.1492933    46.283525   0.16604023 
   46300    -937.4984    49.405695    -888.0927    1769.5328    9756.0419    2.1794275    39.151128   0.16608787 
   46400   -947.57139     48.94816   -898.62323    1753.1456    5356.5248     2.185626    32.422608   0.15327095 
   46500   -943.37552    47.002374   -896.37315    1683.4546   -9551.5334    2.1424439    50.493971   0.15598976 
   46600    -941.5241    48.283737   -893.24037    1729.3484   -64.745068    2.1623541    56.862196   0.14145273 
   46700   -945.98083    44.503176   -901.47766    1593.9424    4913.7602    2.1832664    56.805375   0.14685283 
   46800   -945.36449    45.955155   -899.40933     1645.947   -2215.0855    2.1671888    44.606775   0.15716308 
   46900   -939.26661    44.819127   -894.44748    1605.2586    1457.0411    2.1589872    42.739813   0.16803577 
   47000   -941.56334    45.631498   -895.93185    1634.3548    3142.9492    2.1758852    36.661774   0.15919658 
   47100   -945.26342    41.915412   -903.34801    1501.2581    3912.1026     2.184539     32.22199   0.14334492 
   47200   -944.09399    49.752622   -894.34136    1781.9585   -6903.3361    2.1515356    38.735425   0.15914092 
   47300   -945.72157    51.175416   -894.54616    1832.9178   -1.6279505    2.1718636    39.715473   0.15329009 
   47400   -945.92935    45.796356   -900.13299    1640.2594    4461.6843    2.1845184    38.701655   0.16043746 
   47500   -944.93638     47.80882   -897.12756    1712.3386   -2798.5599    2.1583512    32.526788   0.15397164 
   47600   -942.67944    51.068892   -891.61055    1829.1025   -5052.3055    2.1518579    31.580299    0.1463609 
   47700   -944.07122    48.053712   -896.01751    1721.1097    3238.1765    2.1727043    34.982284   0.14347762 
   47800   -948.43928    49.021243   -899.41804    1755.7631     383.3651    2.1799466    34.469767   0.13954041 
   47900   -941.90836    52.986124   -888.92223    1897.7708   -5691.5737    2.1438848    44.234276   0.16156491 
   48000   -942.52285    48.329229   -894.19362    1730.9777    1533.3955    2.1684489    35.389226   0.15581042 
   48100   -940.53104    43.958529   -896.57251    1574.4351     5529.565    2.1820628    57.644768   0.15643907 
   48200    -943.2304    54.556942   -888.67346    1954.0318   -5254.9968    2.1498625    54.681532    0.1461594 
   48300   -941.71613    50.232951   -891.48318    1799.1621   -1760.2089    2.1575969    42.108533   0.12520754 
   48400   -944.31281    47.879153   -896.43366    1714.8576    893.87579    2.1713232    55.194201   0.14711684 
   48500    -941.8301    48.037735   -893.79237    1720.5375    2213.4097     2.172752    56.040553   0.14659768 
   48600   -941.92174    55.235025   -886.68671    1978.3183   -7737.8699    2.1390598     61.66141   0.14181727 
   48700   -947.22647    49.763216   -897.46325    1782.3379    1008.9631    2.1799352     54.57521   0.14208868 
   48800   -941.17678    45.267792   -895.90899    1621.3282    2416.7992     2.170104    52.031992   0.13622148 
   48900   -941.31497    47.983546   -893.33142    1718.5966   -7095.9807    2.1446633    55.946336   0.13308147 
   49000   -942.37103    49.287101   -893.08393    1765.2852   -529.63147     2.164289    55.200422   0.15091401 
   49100   -947.01849    46.014456   -901.00403    1648.0709    11386.539    2.2052038    58.056815   0.14975325 
   49200   -943.77019    48.000761   -895.76943    1719.2132   -4455.5407    2.1592144    50.330221   0.15421562 
   49300   -941.94475    47.369696   -894.57506    1696.6107   -9222.2905    2.1428883    54.133871   0.16206225 
   49400   -947.19419    46.370651   -900.82354    1660.8286    7436.2182    2.1942473    50.207462   0.14080847 
   49500   -944.64729    43.642818   -901.00447    1563.1275    8762.8044    2.1962663    51.850626   0.15271405 
   49600   -941.38105    46.457634   -894.92342     1663.944   -11459.996    2.1358925    52.999891   0.15443084 
   49700   -942.68653    48.039183   -894.64735    1720.5893   -4948.9311    2.1512188     53.89348   0.17009219 
   49800   -948.92379    48.152728   -900.77106    1724.6561    11805.714    2.2084459    50.569617   0.14841756 
   49900   -943.77994    50.695301   -893.08464    1815.7218   -2948.7252    2.1635041    59.730292   0.16077595 
   50000   -942.23641    48.800281   -893.43613    1747.8491   -8271.9795    2.1479964     50.76588   0.15003458 
   50100    -945.6319    48.131964   -897.49994    1723.9124    394.23961    2.1735087    53.546738   0.15673082 
   50200   -945.74652    45.691351   -900.05517    1636.4985    3518.4247    2.1874804    47.418935   0.16949072 
   50300    -939.9569    51.125934   -888.83097    1831.1455   -7955.8378    2.1406852      52.6679    0.1697022 
   50400   -942.23963    46.999214   -895.24042    1683.3414   -119.85337    2.1710472    48.935191   0.16651862 
   50500   -943.40103    46.419074   -896.98195    1662.5629    4860.5119    2.1824176    48.890007   0.15683614 
   50600   -938.02849    48.824994    -889.2035    1748.7342   -1081.8693    2.1528625    53.292987    0.1667636 
   50700   -940.94219    47.542747   -893.39944    1702.8088   -3243.7213    2.1573745    56.558831   0.16117978 
   50800   -944.33963    46.966343   -897.37328    1682.1641    2351.9744    2.1718419    50.494513   0.14366964 
   50900   -941.99634    48.531227   -893.46511    1738.2126    1112.4557    2.1714889    49.585352   0.15583009 
   51000   -939.15992    51.634138   -887.52578    1849.3476   -4210.7147    2.1431628     64.92304   0.15423205 
   51100   -943.70539    46.267882   -897.43751    1657.1478    2525.4547    2.1731681    47.430668   0.13702358 
   51200   -939.76621     43.42457   -896.34164    1555.3106    1225.4259    2.1648445    55.499158   0.14826706 
   51300   -941.06174    46.362441    -894.6993    1660.5345    2345.3922    2.1652717    48.157546   0.14753334 
   51400   -940.45489    50.305632   -890.14926    1801.7653    2068.9591     2.163637    49.148238   0.14651107 
   51500   -936.15826    50.635502   -885.52275    1813.5801   -4218.0751     2.144296    56.763723   0.16552073 
   51600   -942.15884    47.841666   -894.31717     1713.515   -685.05014    2.1615651    55.764809    0.1420227 
   51700   -944.53315    50.265483   -894.26767    1800.3273    1735.5036    2.1779175    54.436569   0.14989784 
   51800   -943.27221    44.791647   -898.48056    1604.2744    1368.6401      2.16885     66.20591   0.13608464 
   51900   -944.43288    41.261896   -903.17098    1477.8515   -1857.5191    2.1699384    64.408077   0.12839448 
   52000   -944.23498    49.829632   -894.40535    1784.7167   -641.95551     2.167945    67.235296   0.13338405 
   52100   -946.18046    49.672009   -896.50846    1779.0712    1904.3635    2.1730464    66.381748   0.11409437 
   52200   -944.35009    41.934319   -902.41577    1501.9352    1898.3041     2.176815    66.479526    0.1178218 
   52300    -943.4213    48.424914   -894.99639    1734.4048   -739.67509    2.1647857    65.774903   0.13899195 
   52400   -942.28372    48.373708   -893.91001    1732.5708    7062.4222    2.1816792    67.973223   0.14056867 
   52500   -944.22061    46.337902   -897.88271    1659.6556    -1870.621    2.1644052    69.599151    0.1413379 
   52600   -948.06374    49.851774   -898.21196    1785.5098   -7298.1965    2.1587772    64.067367   0.12013397 
   52700   -941.84737    53.904968    -887.9424    1930.6805    595.53099    2.1639579    66.173999   0.13903375 
   52800   -943.56811    49.238055   -894.33005    1763.5286    10447.009    2.1907591    62.563529   0.13910561 
   52900   -946.47933    48.008572   -898.47076    1719.4929   -9325.9602    2.1511743    70.065934   0.13544806 
   53000   -942.21705    48.853156    -893.3639    1749.7429   -7277.7155    2.1503247    70.572745   0.13650805 
   53100   -939.42141    52.248592   -887.17281    1871.3551    10341.846    2.1831704    69.436029   0.14684818 
   53200     -944.044    47.551975   -896.49203    1703.1393    4368.6018    2.1847184    68.288141   0.14765056 
   53300   -945.14543    47.437359   -897.70807    1699.0342   -11092.182    2.1434773    70.269185    0.1367373 
   53400   -941.51814    51.419732    -890.0984    1841.6683    -986.1033    2.1620605     54.46387   0.17305094 
   53500   -945.58964    53.462401   -892.12723    1914.8293       6544.1    2.1940738     52.22112   0.16358573 
   53600   -944.10386    45.839254   -898.26461    1641.7958     -3900.89    2.1635231    64.470504   0.16634952 
   53700   -942.84632    47.690819    -895.1555    1708.1122   -6929.2822    2.1544793    59.631727   0.15745729 
   53800   -941.62154    51.042293   -890.57924    1828.1498    3531.2454    2.1733664    56.111605   0.14555812 
   53900    -946.1146    45.582346   -900.53225    1632.5943     1413.463    2.1783169    67.501522   0.13256571 
   54000   -944.95973    45.480023    -899.4797    1628.9295   -4574.3735    2.1603188    70.294208   0.12523431 
   54100   -943.02097    48.528272    -894.4927    1738.1067    1554.0223    2.1690515    70.767188   0.13407014 
   54200   -942.74265    44.804929   -897.93772    1604.7501    3957.1839    2.1768763    66.263891    0.1305009 
   54300   -946.79908    43.571254   -903.22783    1560.5643    -1056.598    2.1740216    67.756847   0.11600602 
   54400   -944.66523    48.907065   -895.75816    1751.6737   -1895.1831    2.1606668    64.728774   0.12460776 
   54500   -943.03736    47.124733   -895.91262     1687.837    1713.4268    2.1674442    69.163763   0.12789707 
   54600   -949.17366    45.066244   -904.10741    1614.1094    1705.6981    2.1827549    69.634807   0.12461473 
   54700   -941.28074    44.396517   -896.88423    1590.1222   -1064.1459    2.1609552    69.296825   0.14548657 
   54800    -942.3009    47.465756   -894.83514    1700.0512    115.85124    2.1674252    65.766704   0.13430998 
   54900   -947.09998     47.98992   -899.11006    1718.8249   -125.29653    2.1750615    68.047264   0.13539074 
   55000   -949.15091    45.404068   -903.74684     1626.209   -4141.7989    2.1734498     66.13941   0.12811066 
   55100   -941.79481    48.490738   -893.30407    1736.7624    -5122.003    2.1537415    63.767843   0.14693946 
   55200   -945.94906    50.615788   -895.33328     1812.874    6342.1817    2.1894257    59.144008   0.14224894 
   55300   -946.90274    47.882025   -899.02072    1714.9605   -22.855163    2.1773611    63.362091   0.12659406 
   55400   -940.53864    50.422988   -890.11566    1805.9686   -9539.0139    2.1332958    67.101599   0.11709094 
   55500    -939.4645    47.426947   -892.03755    1698.6613    7139.9148    2.1754986    64.241765    0.1411982 
   55600   -943.58081    46.695976   -896.88484    1672.4805    5406.9797      2.18559    69.883216   0.13868074 
   55700    -944.1801    46.121218   -898.05888    1651.8948   -8907.7443    2.1527231    69.106354   0.14941499 
   55800   -940.03444    51.550752   -888.48369     1846.361   -7069.5278    2.1470312    69.587657   0.16342124 
   55900   -942.35895    46.439066   -895.91988    1663.2789    12410.227    2.2014726    64.609778   0.13157249 
   56000   -947.27234    49.235029   -898.03731    1763.4202   -4114.1367    2.1659052    68.570792   0.12056379 
   56100    -940.7993    45.110328   -895.68898    1615.6883   -7866.4684    2.1449213    62.463451   0.13732056 
   56200   -939.92243    51.799873   -888.12256    1855.2836    6274.0786    2.1783898    66.888092   0.13002217 
   56300   -942.29623    48.185876   -894.11035    1725.8433    3124.0484     2.173388    63.995609   0.12413848 
   56400   -947.32473    49.507197   -897.81753    1773.1683   -11053.338    2.1503942    69.043198   0.11676246 
   56500   -945.72872    49.908552   -895.82017    1787.5433    1859.4789    2.1775283    66.065392   0.11723394 
   56600   -943.66457    46.814874   -896.84969     1676.739    4247.6783    2.1822534    77.116083   0.13630896 
   56700    -949.7716    43.466282   -906.30532    1556.8046    7.5538841    2.1865279    65.409821   0.14540762 
   56800   -944.45958    45.396837   -899.06274    1625.9501   -4281.8293    2.1635398    66.353085   0.12567974 
   56900   -944.91927    48.948954   -895.97032     1753.174    767.02578    2.1778184    66.204387   0.13383793 
   57000   -941.40542    45.218829   -896.18659    1619.5745    4802.5939    2.1802935    65.825302   0.12813472 
   57100   -950.03503    43.988644   -906.04638    1575.5137   -1496.3908    2.1831717    62.753376   0.11614462 
   57200   -944.61728    45.937073    -898.6802    1645.2994   -5915.0734    2.1600068     70.78206    0.1223811 
   57300   -942.78049    47.571792    -895.2087    1703.8491    3613.4422    2.1787687     64.89086    0.1443923 
   57400   -945.03788    46.210331   -898.82755    1655.0865    3421.2626    2.1839552    74.840416   0.13179569 
   57500   -948.44928    42.775196   -905.67408    1532.0524   -2630.4209    2.1739379    68.229812   0.11895035 
   57600   -941.51749    44.910852   -896.60664    1608.5438   -5016.9586    2.1582689    73.197591   0.13440576 
   57700   -941.47062    46.122645   -895.34798    1651.9459    12620.013    2.1954054    64.995949   0.13179408 
   57800   -946.30296    45.698298   -900.60466    1636.7473    2381.6973    2.1845797    63.399447   0.11499019 
   57900    -947.3331       42.902    -904.4311     1536.594   -18367.094    2.1375405     67.23678   0.11941225 
   58000   -942.38123    47.186753   -895.19447    1690.0584    3076.0721    2.1735695    71.905977   0.13325701 
   58100   -940.43281    46.155513    -894.2773    1653.1231    21008.815    2.2174064    63.939274   0.14666552 
   58200   -943.07558    45.038161   -898.03742    1613.1036   -8904.9881    2.1538961    72.656186   0.15562127 
   58300    -940.2049    47.214006   -892.99089    1691.0345   -6396.7172    2.1457065    77.481456   0.13084982 
   58400   -938.02826    51.050119   -886.97814    1828.4301    3495.7619    2.1677358    68.612054   0.14468994 
   58500   -944.80177    48.873405   -895.92837    1750.4681    4538.9795    2.1849221    68.312505   0.13238823 
   58600   -947.56263    50.301854   -897.26078      1801.63   -5989.2282    2.1611647      64.5574    0.1258985 
   58700   -940.97439    47.780659   -893.19373    1711.3299   -2674.7746    2.1598328    67.413564   0.14336815 
   58800   -937.50416    51.494095   -886.01006    1844.3318     3145.394    2.1642513    64.178823   0.14552165 
   58900   -947.82726    52.110972   -895.71629     1866.426    2520.2812    2.1826901    68.113231   0.13203553 
   59000   -940.12126    42.876951    -897.2443    1535.6969   -2993.0042    2.1628174    70.680506   0.14901319 
   59100   -939.21819     44.17901   -895.03918    1582.3319   -1301.5266    2.1637074    71.833111   0.15172206 
   59200   -935.68968    50.789379    -884.9003    1819.0914    6069.1935    2.1665419    69.597202   0.16200732 
   59300   -941.50916    47.140062   -894.36909    1688.3861    6696.2925    2.1832254    64.217664   0.12709646 
   59400    -942.8764    45.409789   -897.46661     1626.414   -7920.8268    2.1531675    62.849678   0.13952186 
   59500   -942.45199    47.185679   -895.26631    1690.0199   -4090.2091    2.1624782    69.162226   0.14146145 
   59600   -939.51279    54.772492    -884.7403     1961.752    9376.7568    2.1860982    65.966278    0.1434858 
   59700   -941.23362    47.420092   -893.81353    1698.4157      3310.45    2.1724246    65.422846   0.14312587 
   59800    -939.7417     42.00871   -897.73299    1504.5997   -11545.678    2.1362713    74.450483   0.15101085 
   59900   -940.93771    46.687733   -894.24997    1672.1853    5513.4695     2.181411    67.973141   0.14305399 
   60000   -939.78179    50.524978   -889.25681    1809.6215    12101.108    2.1914304    64.597225   0.15809906 
   60100   -942.47423    54.786151   -887.68808    1962.2412   -14982.749    2.1261009    67.504454   0.14292476 
   60200   -942.13747    45.592855   -896.54461    1632.9707   -2562.8756    2.1629943    69.101672   0.13254657 
   60300    -942.0656    46.048446   -896.01716    1649.2883    10571.528    2.1923922    62.351007   0.14705825 
   60400   -943.89007     45.55679   -898.33328     1631.679    -108.4198    2.1738338     69.50735   0.13100647 
   60500   -951.93716    43.942902   -907.99426    1573.8754   -6114.1495    2.1736268    68.392038   0.12645223 
   60600   -944.44432    44.511017    -899.9333    1594.2232   -505.62181    2.1703426    69.373497    0.1356582 
   60700   -943.95636    47.931081   -896.02528    1716.7175    4934.1434    2.1830504    66.039935   0.14313455 
   60800   -946.79364    50.177354   -896.61628    1797.1709   -3260.0725    2.1659362       69.028   0.13749701 
   60900   -949.50324    44.333825   -905.16942    1587.8768   -7419.8244    2.1652375    61.023037    0.1345125 
   61000   -946.69115    45.779327   -900.91183    1639.6495    1952.8887    2.1821755    64.750382   0.13100212 
   61100   -942.51296    47.345959     -895.167    1695.7605      8428.68    2.1887927     61.81159   0.13365362 
   61200   -942.10959    44.395565   -897.71402    1590.0881   -6728.9587    2.1522289    63.848566   0.14089321 
   61300   -946.52175    41.050545    -905.4712    1470.2817   -5337.1906     2.164026    70.901171    0.1237028 
   61400   -949.18409     49.52077   -899.66332    1773.6544    6407.1064    2.1983079     64.24831    0.1271347 
   61500   -944.64775    49.271011   -895.37674    1764.7089    5021.0957     2.187387    68.013567   0.14795217 
   61600   -943.28027    45.097513   -898.18275    1615.2294   -11031.444    2.1413831    74.174479   0.14295594 
   61700   -943.09264    45.205327   -897.88731    1619.0909   -2184.2475    2.1645625    70.469043   0.15857879 
   61800   -944.39515    55.524144   -888.87101    1988.6735    2543.7711    2.1728673    65.629889   0.13532393 
   61900   -943.78834    49.308548   -894.47979    1766.0534   -1156.7671    2.1616596       67.182   0.12731087 
   62000   -946.29566     47.91335   -898.38231    1716.0824   -3706.1942     2.165696    63.583034    0.1290363 
   62100   -941.17369    45.440482   -895.73321    1627.5133     5428.269    2.1756008    66.615728   0.12062897 
   62200   -941.22769    52.341409   -888.88629    1874.6795   -2254.4395    2.1543489    71.368591   0.13304476 
   62300   -946.19206    48.811665    -897.3804    1748.2568   -3657.8652    2.1683337     72.32464   0.12433491 
   62400   -943.04824    45.403006   -897.64524     1626.171    2855.7194    2.1781358    67.947534   0.14230793 
   62500   -941.99562    53.348154   -888.64746    1910.7374    1559.6457    2.1651047     63.38484   0.13811156 
   62600   -942.36525     47.99818   -894.36707    1719.1208   -612.65731    2.1609645    64.919843   0.12411825 
   62700   -944.79216    46.217486   -898.57467    1655.3427   -2755.8874    2.1608893    62.851935    0.1271812 
   62800   -941.62589    48.108004   -893.51789    1723.0542    7250.0897    2.1782397    67.626251   0.13315614 
   62900   -939.30767    49.329489   -889.97818    1766.8034    1600.1895    2.1626263    65.944978   0.13158963 
   63000   -946.59879    46.406335   -900.19246    1662.1066   -2933.7617    2.1659297    69.459125   0.12777331 
   63100   -943.80642    46.324171   -897.48225    1659.1638    -733.6598    2.1681587    67.195896   0.12323636 
   63200   -942.46626    49.899828   -892.56643    1787.2309    4394.4071     2.174216    66.380069   0.14093625 
   63300   -943.68373    44.732759   -898.95098    1602.1652   -5054.9358    2.1595957    72.233493   0.11971473 
   63400   -948.78139     47.53307   -901.24832    1702.4622   -11057.425    2.1556858    71.786056   0.12630026 
   63500   -947.27396    52.464086   -894.80987    1879.0733    6264.7796    2.1917394    58.556726     0.123258 
   63600   -945.15848    48.006109   -897.15238    1719.4047    3628.8042    2.1789793    65.889012   0.11570785 
   63700   -947.66778    41.978172   -905.68961    1503.5059   -10417.802    2.1573265    61.743175   0.12241525 
   63800   -946.93389    49.206841   -897.72705    1762.4106   -4996.7955    2.1611043    68.892821   0.11237616 
   63900   -944.78278    50.563705   -894.21908    1811.0085    11087.514    2.1946712    68.903367   0.11808215 
   64000    -945.0969    44.418034   -900.67887    1590.8929   -216.66151    2.1664923    74.140417   0.12512897 
   64100   -943.24939    42.614405   -900.63499    1526.2935   -6228.2992    2.1507074    69.470953   0.12102574 
   64200    -940.7933     47.82234   -892.97096    1712.8228    1216.6913    2.1695119    68.177232   0.12920971 
   64300   -943.70109    48.164075   -895.53702    1725.0625    2599.9182    2.1735711    60.603046   0.11659591 
   64400   -946.35155    45.515883   -900.83567    1630.2139   -3452.2014     2.161745    67.524454   0.10588213 
   64500   -941.68166    45.551053    -896.1306    1631.4735    2745.1551    2.1691807    64.787715   0.12041966 
   64600   -942.80511    50.622623   -892.18249    1813.1188    1670.4046    2.1675266    68.270879   0.12072457 
   64700   -944.41932    46.403266   -898.01606    1661.9967   -2955.2926    2.1598755     66.53889   0.11953168 
   64800   -943.73978     45.64637   -898.09341    1634.8874    164.96795    2.1669872    59.231006   0.13338633 
   64900   -939.83656    51.327209   -888.50935    1838.3545   -200.21758    2.1551734    63.620779   0.14949647 
   65000     -941.589    46.555419   -895.03358    1667.4463    167.22168    2.1655436    57.319016     0.142563 
   65100   -949.30034    50.729694   -898.57065    1816.9537   -4834.5676      2.16454    51.234865   0.13043466 
   65200   -939.34696    49.887369   -889.45959    1786.7846    2357.5155    2.1635346    47.496479   0.16114108 
   65300   -937.53097    44.602852   -892.92812    1597.5124    3393.4095    2.1633621      43.2298   0.15230017 
   65400    -945.1196    47.306062   -897.81354    1694.3316   -2731.9536     2.161654    52.984259   0.14455941 
   65500   -942.49469    50.707909   -891.78678    1816.1734    1120.9409    2.1663925    66.523109   0.13885427 
   65600   -937.12036    45.996765    -891.1236    1647.4373   -528.58071    2.1539423     61.86519   0.12874478 
   65700   -944.68803    45.828834    -898.8592    1641.4226    67.356049    2.1692989    61.849449   0.13820868 
   65800   -942.29994    46.759994   -895.53994    1674.7734     3827.804    2.1743287    57.623775   0.13710067 
   65900   -936.21581    44.760436   -891.45537    1603.1565    3670.4173    2.1585119    63.353406   0.13785033 
   66000   -948.25396    47.058454   -901.19551    1685.4632    -6230.241    2.1636309    61.728509   0.12728791 
   66100    -943.2845    43.672057   -899.61244    1564.1747   -2069.7599    2.1642952    63.775679   0.11994231 
   66200   -941.78037    47.195431   -894.58494    1690.3692    9017.5974    2.1852604    64.586441   0.12850011 
   66300   -940.99356    44.196705   -896.79686    1582.9657    2931.0906    2.1690892     62.07254   0.14008655 
   66400   -945.68992    40.810986   -904.87893    1461.7015   -8530.1032    2.1579235    63.879235   0.13473425 
   66500   -943.69002    46.244312   -897.44571    1656.3035    7430.1046    2.1857092    65.365054   0.12290688 
   66600   -942.09016    48.322573   -893.76759    1730.7393    13265.806    2.1976995    62.517734   0.14096584 
   66700   -942.20103    42.603575   -899.59746    1525.9055   -10103.772    2.1455559    69.600729    0.1428335 
   66800   -944.86088    42.001327   -902.85955    1504.3352   -7183.6383     2.156732    63.719351   0.14717939 
   66900   -944.30966    50.856808   -893.45285    1821.5064     6678.753    2.1854183    61.426501   0.13883679 
   67000   -941.95603    47.329884   -894.62615    1695.1848    2203.3259    2.1717613    71.275221   0.15405904 
   67100    -944.5705    46.718087   -897.85241    1673.2724   -5825.6881    2.1499668    73.575502   0.15983276 
   67200   -946.80844    41.764924   -905.04351    1495.8681    674.38341    2.1810591    60.047653   0.16833189 
   67300   -941.43546    46.126472   -895.30899     1652.083    5969.5397    2.1777876    68.228321   0.17764153 
   67400   -942.00741     47.53582   -894.47159    1702.5607    1298.3435    2.1660131    58.737295   0.16583243 
   67500   -944.64073    47.501891   -897.13884    1701.3455   -7103.2739    2.1538054    57.169342   0.15865807 
   67600   -945.87226    48.107254   -897.76501    1723.0274    2259.9696    2.1770263    76.887998   0.15092171 
   67700      -937.09    49.791029   -887.29897    1783.3341    2750.7694    2.1622644    78.769044   0.14822053 
   67800    -940.0701    46.311138   -893.75896     1658.697   -4954.5198    2.1484143    83.857526   0.14992574 
   67900   -944.51247    46.520923   -897.99155    1666.2107    273.41451     2.170396    82.616424   0.13591399 
   68000     -947.327    51.251166   -896.07583    1835.6309    14172.147    2.2122913    80.323503   0.13963165 
   68100   -939.44477    51.877902   -887.56687    1858.0783   -12443.842    2.1361964    81.824328   0.15948048 
   68200   -943.01588    46.043811   -896.97207    1649.1223   -10119.927    2.1437239    89.975505   0.13878286 
   68300   -948.15394     51.30183   -896.85211    1837.4455    8651.1953    2.1983231    84.664937   0.12903506 
   68400   -942.59089    46.953416   -895.63747    1681.7011    5320.2326    2.1823766     88.95739    0.1428126 
   68500   -937.26023    48.800266   -888.45996    1747.8485   -10242.699    2.1263776    85.587547    0.1411731 
   68600   -942.92758    43.900393   -899.02719    1572.3529    4708.7108    2.1777976    79.353756   0.13296324 
   68700   -943.59225     45.93919   -897.65306    1645.3752    6994.8132    2.1844197    77.302162   0.12967291 
   68800   -943.65363     48.46037   -895.19326    1735.6747    -4542.249    2.1574311    90.137331   0.14234183 
   68900   -939.92724    49.868969   -890.05827    1786.1256   -3941.4889    2.1520634    88.661611   0.15112086 
   69000   -945.39759     44.61874   -900.77885    1598.0814    8427.5866     2.195973    87.022612   0.13126463 
   69100   -941.37364    42.891069   -898.48257    1536.2025   -1182.7737    2.1654748    89.019992   0.14756736 
   69200   -938.92801    43.402409    -895.5256    1554.5169   -2185.6328    2.1593074    80.251989   0.14696197 
   69300   -944.51511    51.290623   -893.22449    1837.0441    5942.6355    2.1823546    78.877163    0.1389746 
   69400   -946.91305       43.459   -903.45405    1556.5438    1468.9606    2.1824003    85.574592   0.12768433 
   69500   -945.42868    44.586926   -900.84176     1596.942   -13085.676    2.1410606    86.029042   0.13028874 
   69600   -944.41524    47.637838    -896.7774    1706.2146    4846.0024    2.1835533    84.697507   0.14452458 
   69700   -943.84296    51.009109   -892.83385    1826.9613    13464.856    2.2037996    84.798143   0.13430349 
   69800   -947.69955    48.947315   -898.75223    1753.1153    -15809.31    2.1339398    85.169492   0.12001351 
   69900   -947.23184    44.795184   -902.43666     1604.401   -10769.365    2.1496842    88.868999   0.12043607 
   70000   -939.98648    46.186384    -893.8001    1654.2288    14626.219    2.1975303     85.26417    0.1220726 
   70100   -942.97654    47.851494   -895.12505     1713.867    1446.9373    2.1708925    90.673231   0.14056527 
   70200   -939.87131    47.602055   -892.26926     1704.933   -4858.2395    2.1464746    104.34156   0.17096411 
   70300   -934.74484    50.430225   -884.31461    1806.2278   -165.22291    2.1517628    105.33048   0.16337384 
[...]
  186800   -947.06924    54.729133   -892.34011    1960.1991    8844.8561     2.194665    191.25252   0.13646654 
  186900   -945.00378    46.488029   -898.51575    1665.0326   -3541.2264    2.1615683    191.16989   0.11789794 
  187000   -945.00243    43.003345   -901.99908    1540.2239   -6570.6612      2.15889    195.30703   0.11487506 
  187100   -941.81077    49.195868   -892.61491    1762.0176    4414.8674    2.1724999    187.23466   0.14199832 
  187200   -943.93347    47.941739   -895.99173    1717.0992    6468.9877    2.1845653    181.82734   0.11058445 
  187300   -946.60416    45.004551   -901.59961    1611.8998   -5356.2165    2.1646801    189.80616   0.13375105 
  187400   -940.02794    47.691503   -892.33643    1708.1367   -4345.6491    2.1536499    189.98791   0.14526375 
  187500   -944.09559    49.117877   -894.97771    1759.2242    5444.4739    2.1844744    183.99638   0.13807481 
  187600   -947.75685     48.02541   -899.73144     1720.096    97.978433    2.1764737     187.3349    0.1271626 
  187700   -940.44145    48.010253    -892.4312    1719.5532    -4898.197    2.1490736    201.05637   0.12897695 
  187800   -943.18065    49.382517   -893.79813    1768.7027    3.2979633     2.168935    195.80739   0.11545236 
  187900   -945.96035    46.575505   -899.38484    1668.1657    4991.6197    2.1872496     194.5968   0.12245924 
  188000   -942.42291    48.353835   -894.06908     1731.859   -1007.1633    2.1636529    183.57919   0.11436227 
  188100   -944.46532    51.247781   -893.21754    1835.5097     -4839.58    2.1549233    187.53768   0.11789327 
  188200   -947.94677    46.725173    -901.2216    1673.5263    4362.1023    2.1887501    188.09267   0.13295153 
  188300    -945.0459    50.405656   -894.64024    1805.3478    1440.8797    2.1757431    190.16761   0.14308337 
  188400   -940.11228    45.177381    -894.9349      1618.09   -6801.8221    2.1438198    191.09592    0.1476142 
  188500   -950.10047    46.018789   -904.08168    1648.2261   -3387.5232     2.175405    198.13275   0.13191821 
  188600   -944.27959    48.449686   -895.82991     1735.292     15050.68    2.2069015    193.44526   0.12204961 
  188700   -944.56759    49.632442   -894.93515    1777.6541   -4587.0481     2.154985    190.47534   0.11791511 
  188800   -944.05255     44.32335    -899.7292    1587.5017   -14756.614    2.1322726    199.06048   0.12518217 
  188900    -947.7876    47.233387   -900.55422    1691.7286    8560.4161    2.2006396    184.49256   0.11796417 
  189000   -942.74791    51.234069   -891.51384    1835.0185    5538.4657    2.1824879    189.49984   0.12612835 
  189100   -944.23562    46.573653   -897.66197    1668.0994   -10589.845    2.1449023    193.54199   0.12884749 
  189200   -947.11745      48.0319   -899.08555    1720.3285   -3961.0621    2.1667101    188.15462   0.14621254 
  189300    -939.6723    50.868494   -888.80381     1821.925    9027.4939     2.180352    185.18421   0.15004252 
  189400   -941.35633    47.438993   -893.91734    1699.0927    1091.0075    2.1684835    207.87527   0.14537652 
  189500   -945.80053    46.291909   -899.50862    1658.0083    -9447.696    2.1503427     196.4928   0.13542541 
  189600   -942.29634    49.003785   -893.29255    1755.1379    4468.6405    2.1715333    197.66061   0.13301698 
  189700   -939.64497    49.494878    -890.1501     1772.727    7931.8913    2.1775849    203.42806   0.13322704 
  189800   -949.32293    50.106687   -899.21625    1794.6398   -5451.4036    2.1656117    186.81064   0.12409097 
  189900   -943.24417    46.248894   -896.99528    1656.4677   -3346.5051    2.1577419    184.58481   0.14016004 
  190000   -935.27768    45.256268   -890.02141    1620.9154      8774.33    2.1729228    194.50424   0.15194278 
  190100   -945.03273    45.878322   -899.15441    1643.1951    3054.1526    2.1811763    191.91242   0.14681691 
  190200   -943.81567    44.583682   -899.23198    1596.8258   -7438.1705    2.1485346    200.35016   0.14221073 
  190300   -941.68378    47.902686    -893.7811    1715.7005    1926.9102    2.1690178    195.16347   0.14687238 
  190400   -946.14997    46.860094   -899.28987    1678.3586     9870.336    2.1967123    190.20722   0.14395104 
  190500   -947.22271    45.013482   -902.20923    1612.2197   -3586.7716     2.167612    195.92177   0.13454727 
  190600    -943.8391    48.278358   -895.56074    1729.1557   -8552.2726    2.1478191     194.2103   0.13278009 
  190700   -941.97682    46.815291   -895.16153    1676.7539    6373.4294    2.1858276    180.69293   0.13053148 
  190800   -946.61386    43.671247   -902.94262    1564.1457    11063.096    2.2043442    181.97703   0.13989808 
  190900   -938.81525     45.52467   -893.29058    1630.5286   -16459.375    2.1198722    190.77259   0.16333879 
  191000   -943.41127    47.854994   -895.55627    1713.9923   -5567.4631    2.1598711    194.22601   0.15393527 
  191100   -943.72954    49.231484   -894.49806    1763.2932    27953.058    2.2376711    186.15363   0.15638763 
  191200    -943.9015    42.602884   -901.29861    1525.8808   -5237.6052    2.1594223    195.24994   0.14652471 
  191300   -939.66372    47.008446   -892.65528    1683.6721   -11580.464    2.1364484    194.46769   0.13990246 
  191400   -944.51272    52.182675   -892.33005    1868.9942    5718.5195    2.1831615    187.98393    0.1273336 
  191500   -942.08573     45.13878   -896.94695    1616.7074    5848.7684    2.1806092    184.84763   0.14619388 
  191600   -945.20226    45.764714   -899.43755    1639.1261   -9468.2129    2.1528974    189.81709   0.12915396 
  191700   -940.00058    50.156186   -889.84439    1796.4127    8.1174596    2.1601486    183.62037    0.1414178 
  191800   -944.25919    51.859592   -892.39959    1857.4225     7809.638    2.1920331     191.0471   0.14714627 
  191900   -944.39766    46.515914   -897.88175    1666.0314   -5851.1653    2.1597057    190.52667   0.12814327 
  192000    -942.1457    45.706113   -896.43959    1637.0272    -5949.226     2.152686    198.07467   0.14818711 
  192100   -937.05361    50.392667   -886.66094    1804.8826    8374.4247    2.1749304     200.0281   0.15687748 
  192200   -946.81206    51.504405   -895.30766     1844.701    2366.2178    2.1817179    194.61619   0.13218005 
  192300   -944.40947       45.856   -898.55347    1642.3956   -12922.824    2.1425321    187.12766   0.14719041 
  192400   -946.06654    52.299121   -893.76742    1873.1649   -3178.1053    2.1644452     181.0472   0.13570532 
  192500   -946.58244    55.834415   -890.74803    1999.7862    6965.8224    2.1892531    183.37178   0.13048196 
  192600    -947.5011    46.371902    -901.1292    1660.8734   -1292.9698    2.1763749    185.49922   0.14316429 
  192700   -944.94461     46.65998   -898.28463    1671.1913   -7771.6093    2.1464888    195.74645   0.12514282 
  192800   -949.41941    54.827364   -894.59205    1963.7173   -671.62819    2.1776316    190.99148   0.12114269 
  192900   -946.02769     45.22079    -900.8069    1619.6447     7291.644    2.1898147    183.93785   0.14932056 
  193000   -946.03651    43.309626   -902.72688    1551.1937   -2531.4843    2.1721033    190.85343   0.14124282 
  193100   -944.84397    49.232673    -895.6113    1763.3358   -5513.5744    2.1607315    194.11907   0.13351422 
  193200   -942.64648    46.288047   -896.35843      1657.87     3323.558    2.1756785    184.02288    0.1458336 
  193300   -948.15693    43.883983   -904.27295    1571.7651    1181.0746    2.1875328    190.68805   0.12781385 
  193400   -943.11676     47.58395   -895.53281    1704.2845    -3237.214    2.1567737    186.92471   0.13238417 
  193500   -940.81902    45.880946   -894.93807    1643.2891    5109.1733    2.1739853     190.8418   0.13950016 
  193600   -944.53889    45.417354   -899.12154    1626.6849     2014.875    2.1783986    193.17737   0.12794123 
  193700   -947.88969    45.467163   -902.42253    1628.4689   -1733.6304    2.1697329    191.92674   0.12353092 
  193800   -945.18396    53.289873   -891.89409      1908.65   -6566.5417    2.1513743    195.55252   0.12719351 
  193900   -945.13252    50.332532   -894.79999    1802.7288     7297.702    2.1869569    190.69321   0.13075396 
  194000   -945.30813    47.030056   -898.27808     1684.446    1387.8989    2.1742969    187.03025   0.12711133 
  194100   -940.87251    47.633025   -893.23948    1706.0422   -10239.112     2.134894    187.34554   0.13079859 
  194200   -943.10415    53.244068   -889.86008    1907.0094    3105.1323    2.1683746    189.54546   0.12644209 
  194300   -944.53062    49.180287   -895.35033    1761.4595    14062.277    2.2035389    179.60918    0.1267551 
  194400   -944.60649    46.082858   -898.52363    1650.5209    -13606.44    2.1370018    196.36317   0.12271032 
  194500   -940.99445    49.139991   -891.85446    1760.0163   -12051.527    2.1303305    209.62214   0.14022224 
  194600   -940.53841    52.536666   -888.00174    1881.6729    16425.185     2.201665    186.98178   0.12553318 
  194700   -943.78222    46.362665   -897.41956    1660.5425    4119.9105    2.1825803    190.54443   0.12832171 
  194800      -941.83    44.679672   -897.15033    1600.2638   -10160.935    2.1418297    190.24997   0.13812528 
  194900   -936.94644    44.358921   -892.58752    1588.7757    5123.9452    2.1681513    183.92393   0.13505532 
  195000   -948.28746    46.763076   -901.52439    1674.8838    5908.8951    2.1987617    187.11138   0.12696134 
  195100   -943.13692    42.671983   -900.46493    1528.3557   -5140.8808    2.1615113    192.41375   0.11044583 
  195200   -944.23039    48.372588    -895.8578    1732.5307   -3527.5101     2.162701    191.39125   0.11805904 
  195300   -947.31288    52.856513   -894.45637    1893.1286    4611.9589    2.1885519    189.52774   0.12668659 
  195400   -946.29857    42.172656   -904.12591    1510.4716    2650.8847    2.1881943    191.17358   0.12785933 
  195500   -942.96105    45.354115   -897.60694    1624.4199   -10945.367    2.1467736    188.56337   0.13477751 
  195600   -944.17127    49.807493   -894.36377    1783.9238     2347.374    2.1780614    195.21782   0.12191823 
  195700   -943.90147    44.285418   -899.61605    1586.1431     7033.317    2.1937561    185.12171   0.11530728 
  195800   -945.20267    41.303466   -903.89921    1479.3403   -5511.2241    2.1639256    190.06533   0.13524759 
  195900   -940.36446    46.755133   -893.60932    1674.5993   -7567.3823     2.148859    180.37141   0.14251868 
  196000   -943.92253    48.638818   -895.28371    1742.0661     8682.104    2.1931593    192.70006   0.12640199 
  196100    -944.6608    45.171832   -899.48897    1617.8912    3276.6847    2.1822959    190.95961   0.12827294 
  196200   -938.88476    48.492943   -890.39182    1736.8414   -7674.0796    2.1409964    193.88624   0.13553711 
  196300   -942.00627    49.260937   -892.74534    1764.3481    643.72046    2.1672899    198.93385   0.13332129 
  196400   -946.66233    49.159042   -897.50329    1760.6986    4407.9185    2.1834426    189.33478   0.11579871 
  196500   -945.59072    48.274887   -897.31583    1729.0314   -2139.7224    2.1696477    187.33514   0.13433285 
  196600   -938.88437    50.898882   -887.98549    1823.0134   -4752.8255    2.1514192    187.44509   0.13353626 
  196700   -943.08454    46.103425   -896.98111    1651.2575    5751.9969    2.1863317    190.90001    0.1245583 
  196800   -943.13889    45.474219   -897.66467    1628.7216    4590.1072    2.1786465    186.52378   0.13058178 
  196900   -938.32947    47.732534   -890.59694    1709.6063   -1381.3932    2.1552981    190.57241   0.14433601 
  197000   -939.51332    45.700747   -893.81257     1636.835    -1092.078    2.1641285    195.20268   0.13105862 
  197100   -942.72202    44.066471   -898.65555    1578.3012    5032.1966    2.1860454    190.10592   0.13339734 
  197200   -941.45788    46.330629   -895.12725    1659.3951     1363.888    2.1742094    197.38307   0.12849613 
  197300   -939.55922    47.519683   -892.03954    1701.9827   -5361.6948    2.1507126    199.54086   0.13872885 
  197400   -946.71403    43.991545   -902.72249    1575.6176    4832.3639     2.193656    194.27272   0.14445859 
  197500   -946.27543    49.050733    -897.2247    1756.8194    3080.6078    2.1847156    193.30563   0.12704637 
  197600   -946.29742     51.30469   -894.99273    1837.5479   -11059.505    2.1482787    198.25211   0.13242113 
  197700   -942.37363     42.69452   -899.67911    1529.1629   -2333.9846    2.1661824    181.31978   0.13651375 
  197800    -946.8495    45.907473   -900.94203    1644.2392    15118.251    2.2156934    191.03652   0.12306912 
  197900   -945.10245    51.385975   -893.71648    1840.4593    -2931.824    2.1639778    185.74801   0.11995799 
  198000   -943.24454    46.263338    -896.9812     1656.985    -14983.88    2.1336238    199.34521   0.13122256 
  198100    -947.4565    46.974342   -900.48216    1682.4506    7259.1444    2.1960679    187.17039   0.12289859 
  198200   -945.47434    54.558543   -890.91579    1954.0891    8085.3188     2.188537    188.16198   0.11598236 
  198300   -945.24388    51.235035   -894.00885    1835.0532   -8236.7061    2.1555397    187.18042   0.13178342 
  198400   -948.71013    49.625216   -899.08491    1777.3953    -6340.534    2.1605964    187.34119   0.11313718 
  198500   -943.90889    47.935326   -895.97356    1716.8695    6510.7465    2.1875516    186.80107   0.12465677 
  198600   -941.96423    52.010903   -889.95332    1862.8419    193.37089    2.1634601    195.98729   0.14268796 
  198700   -948.48464    49.551355   -898.93328    1774.7498   -5743.5663    2.1664691    192.02329   0.11555392 
  198800   -946.53585    49.932569   -896.60328    1788.4035     912.4083    2.1767653    188.75134   0.12126594 
  198900   -941.85623    52.820681   -889.03555    1891.8452    117.69529    2.1641608    193.37243   0.13482526 
  199000   -942.25395    44.051773   -898.20218    1577.7748    206.66356    2.1679333     196.6176   0.13080914 
  199100   -947.51102    49.232887   -898.27813    1763.3435   -5920.2025    2.1643401    190.55435   0.11646401 
  199200   -945.72036     53.82484   -891.89552    1927.8106     1337.209     2.176325    195.35722    0.1494043 
  199300   -944.84809    45.934104   -898.91398     1645.193   -254.24391    2.1770014    197.02144   0.13911521 
  199400   -941.72227    41.128033   -900.59423     1473.057   -4862.8356    2.1576619     190.3342   0.14160991 
  199500   -943.51727    49.291771    -894.2255    1765.4525    2063.7361    2.1754132    191.15864   0.14718508 
  199600   -942.08922    45.059393   -897.02983     1613.864    12552.115    2.2003315    192.32537   0.13163155 
  199700   -949.27154    45.622079   -903.64946    1634.0174   -10505.616    2.1578683    186.69922   0.12172089 
  199800   -941.75686    45.182183   -896.57467    1618.2619   -10350.285    2.1415694    192.67431   0.14163971 
  199900   -944.30352    51.323945   -892.97957    1838.2376    13538.326    2.2044088    183.84152   0.13630506 
  200000   -947.97904    46.908282   -901.07076    1680.0845    4873.8006    2.1903752    190.76298   0.12345574 
  200100   -941.38657    45.595622   -895.79095    1633.0698   -12154.874    2.1348593    196.23925   0.14725203 
  200200   -938.85528    45.757333   -893.09795    1638.8617    4018.7552    2.1669618    195.63843   0.14013327 
  200300   -945.63754    48.310519   -897.32702    1730.3076    7192.9953    2.1925848    191.79003   0.14784156 
  200400   -950.79575    49.111021   -901.68473    1758.9787   -6880.2649    2.1667975    191.60121   0.12007176 
  200500   -940.61823    49.591576   -891.02666    1776.1904    -4774.445     2.144396    186.72983   0.12546682 
  200600   -944.05312    48.533912   -895.51921    1738.3087    7302.0464    2.1921821     188.9325     0.140323 
  200700   -944.47281    45.085246   -899.38757      1614.79    2233.8585    2.1787513     192.7425   0.11840431 
  200800   -941.07743    49.366083   -891.71134    1768.1141   -6722.0842    2.1445078    192.73855   0.13923876 
  200900   -945.99034    53.080292   -892.91005    1901.1436   -2042.0134    2.1633816    191.45467   0.12396003 
  201000   -946.66056    47.981911   -898.67865    1718.5381    5445.2268    2.1843905     193.5131   0.12015146 
  201100   -940.00216    45.309858    -894.6923    1622.8348    274.85218    2.1600823     196.2584    0.1462817 
  201200   -939.54172    47.883966   -891.65775      1715.03    -5328.042    2.1446938    188.48166   0.13015313 
  201300   -950.36312    49.360467   -901.00265    1767.9129    4870.7921    2.1932372    186.88646    0.1270467 
  201400   -943.70691    48.589973   -895.11694    1740.3166    4016.3997    2.1777789    186.30513   0.13933256 
  201500   -938.90638    44.231449   -894.67493    1584.2101   -7341.4718    2.1413831    180.13893   0.11809041 
  201600   -946.65333     42.81671   -903.83662    1533.5393    1029.3032    2.1813824    188.73957   0.13234945 
  201700   -946.54519    49.971255   -896.57394    1789.7891    12880.329    2.2066191    186.31039   0.12598273 
  201800   -945.26113    50.878094   -894.38303    1822.2688   -9061.9718    2.1482362    187.93543   0.12697655 
  201900   -943.83618    44.538474   -899.29771    1595.2066   -16632.776    2.1295989     196.4141   0.14152645 
  202000   -948.43423    49.213542   -899.22069    1762.6506    10730.292    2.2059901    188.33709   0.13070423 
  202100   -939.90584    49.753337    -890.1525    1781.9841     8175.755    2.1800191    191.69473   0.14202132 
  202200   -943.86777    46.900958   -896.96682    1679.8222   -9207.6313    2.1450994    192.51966   0.13685325 
  202300   -948.07329    49.033825   -899.03946    1756.2138   -2786.3257    2.1692949    181.62131   0.12679841 
  202400   -944.38623    54.528297   -889.85793    1953.0058    5751.3897    2.1828072    185.81165   0.13832576 
  202500    -941.0168    46.368332   -894.64847    1660.7455    1919.5466    2.1675166    193.75748   0.14223652 
  202600   -944.66531    44.577135   -900.08818    1596.5913    -7310.911    2.1548295    194.84868   0.12927462 
  202700   -940.80573     48.01033    -892.7954    1719.5559    4359.9752    2.1727934    196.79031    0.1306466 
  202800   -942.35175     47.93273   -894.41902    1716.7766    4762.4098     2.177729    190.78538   0.14702714 
  202900   -944.65235    43.321234   -901.33111    1551.6095    -3567.874    2.1650913    195.87219   0.14880335 
  203000   -944.99279    49.665976   -895.32682    1778.8552   -2471.1547    2.1620061     183.5487   0.14478893 
  203100   -942.61767    50.383222   -892.23444    1804.5443    3861.2707     2.175763    193.58202   0.13533423 
  203200    -947.7359    45.723129   -902.01277    1637.6367    314.65275    2.1819888    185.45042   0.13746236 
Loop time of 141.739 on 1 procs for 200000 steps with 217 atoms

Performance: 365.744 ns/day, 0.066 hours/ns, 1411.048 timesteps/s
100.0% CPU use with 1 MPI tasks x no OpenMP threads

MPI task timing breakdown:
Section |  min time  |  avg time  |  max time  |%varavg| %total
---------------------------------------------------------------
Pair    | 136.27     | 136.27     | 136.27     |   0.0 | 96.14
Neigh   | 2.3754     | 2.3754     | 2.3754     |   0.0 |  1.68
Comm    | 0.90308    | 0.90308    | 0.90308    |   0.0 |  0.64
Output  | 0.071025   | 0.071025   | 0.071025   |   0.0 |  0.05
Modify  | 1.8145     | 1.8145     | 1.8145     |   0.0 |  1.28
Other   |            | 0.3051     |            |       |  0.22

Nlocal:    217 ave 217 max 217 min
Histogram: 1 0 0 0 0 0 0 0 0 0
Nghost:    950 ave 950 max 950 min
Histogram: 1 0 0 0 0 0 0 0 0 0
Neighs:    4133 ave 4133 max 4133 min
Histogram: 1 0 0 0 0 0 0 0 0 0
FullNghs:  8266 ave 8266 max 8266 min
Histogram: 1 0 0 0 0 0 0 0 0 0

Total # of neighbors = 8266
Ave neighs/atom = 38.0922
Neighbor list builds = 4038
Dangerous builds = 53
Total wall time: 0:02:24
