LAMMPS (3 Mar 2020)

# ---------- 1. Initialize simulation ----------
units metal
atom_style atomic
dimension 3
boundary p p p
read_data /home/modeler/RemLabs/Project/arrhenius_4/T1800.0/n3_T1800.0_timestep3.000000e-03_eqsteps3200_time600_rseed3333/20201205-151003/lammps.data
  orthogonal box = (0 0 0) to (17.469 17.469 17.469)
  1 by 1 by 1 MPI processor grid
  reading atoms ...
  217 atoms
  read_data CPU = 0.00135245 secs

pair_style meam/c
pair_coeff * * library.meam Li Si LiSi.meam Li Si
Reading potential file library.meam with DATE: 2012-06-29
Reading potential file LiSi.meam with DATE: 2020-11-07

group Li type 1
1 atoms in group Li
group Si type 2
216 atoms in group Si

velocity all create 1800.0 3333 dist gaussian

# ---------- 2. Specify equilibration ensemble  ----------
fix 1 all npt temp 1800.0 1800.0 0.15 tchain 2 iso 1.0 1.0 1.0 pchain 2
# fix 1 all nvt temp 1800.0 1800.0 0.15

# ---------- 3. Run equilibration -------------
timestep 0.003
run 3200
Neighbor list info ...
  update every 1 steps, delay 10 steps, check yes
  max neighbors/atom: 2000, page size: 100000
  master list distance cutoff = 6
  ghost atom cutoff = 6
  binsize = 3, bins = 6 6 6
  2 neighbor lists, perpetual/occasional/extra = 2 0 0
  (1) pair meam/c, perpetual
      attributes: full, newton on
      pair build: full/bin/atomonly
      stencil: full/bin/3d
      bin: standard
  (2) pair meam/c, perpetual, half/full from (1)
      attributes: half, newton on
      pair build: halffull/newton
      stencil: none
      bin: none
Per MPI rank memory allocation (min/avg/max) = 8.895 | 8.895 | 8.895 Mbytes
Step Temp E_pair E_mol TotEng Press Volume 
       0         1800   -951.04357            0   -900.78722   -114161.75    5330.9442 
    3200     1842.825   -939.57171            0   -888.11968   -466.95453    4668.4918 
Loop time of 2.27121 on 1 procs for 3200 steps with 217 atoms

Performance: 365.197 ns/day, 0.066 hours/ns, 1408.940 timesteps/s
100.0% CPU use with 1 MPI tasks x no OpenMP threads

MPI task timing breakdown:
Section |  min time  |  avg time  |  max time  |%varavg| %total
---------------------------------------------------------------
Pair    | 2.1489     | 2.1489     | 2.1489     |   0.0 | 94.62
Neigh   | 0.07262    | 0.07262    | 0.07262    |   0.0 |  3.20
Comm    | 0.015659   | 0.015659   | 0.015659   |   0.0 |  0.69
Output  | 2.5108e-05 | 2.5108e-05 | 2.5108e-05 |   0.0 |  0.00
Modify  | 0.028993   | 0.028993   | 0.028993   |   0.0 |  1.28
Other   |            | 0.004978   |            |       |  0.22

Nlocal:    217 ave 217 max 217 min
Histogram: 1 0 0 0 0 0 0 0 0 0
Nghost:    957 ave 957 max 957 min
Histogram: 1 0 0 0 0 0 0 0 0 0
Neighs:    4112 ave 4112 max 4112 min
Histogram: 1 0 0 0 0 0 0 0 0 0
FullNghs:  8224 ave 8224 max 8224 min
Histogram: 1 0 0 0 0 0 0 0 0 0

Total # of neighbors = 8224
Ave neighs/atom = 37.8986
Neighbor list builds = 124
Dangerous builds = 0

# ---------- 4. Describe computed properties----------
compute msdli Li msd
compute msdsi Si msd
thermo_style custom step pe ke etotal temp press density c_msdli[4] c_msdsi[4]
thermo 100

# ---------- 3. Run production -------------
timestep 0.003
run 200000
Per MPI rank memory allocation (min/avg/max) = 9.664 | 9.664 | 9.664 Mbytes
Step PotEng KinEng TotEng Temp Press Density c_msdli[4] c_msdsi[4] 
    3200   -939.57171    51.452026   -888.11968     1842.825   -466.95453    2.1602926            0 5.4261293e-32 
    3300   -944.53401     52.87615   -891.65786    1893.8319   -14889.115    2.1312745   0.15180914   0.11940667 
    3400    -944.0496    47.023461   -897.02614    1684.2098    6913.7321      2.19201   0.18281766   0.14371987 
    3500   -936.23899    50.071381   -886.16761    1793.3753    4355.5835    2.1668775   0.42198587   0.15589726 
    3600   -936.15214    47.161246    -888.9909    1689.1448   -5148.6696    2.1424204   0.12372152   0.16501722 
    3700   -942.38397    49.315461   -893.06851     1766.301   -1400.2523    2.1678984   0.26441815   0.15054362 
    3800   -943.22382    46.811132   -896.41269     1676.605    7355.6917    2.1911054   0.22943104    0.1068748 
    3900   -934.81871    49.252928   -885.56578    1764.0613   -7060.0215    2.1358077   0.11294911   0.16313224 
    4000   -936.79612    46.371495   -890.42462    1660.8588    2459.5036    2.1594051    0.3560052   0.12591816 
    4100   -941.30732    49.622534   -891.68478    1777.2992    10295.866    2.1900274  0.094828752   0.10863123 
    4200   -934.58412    53.400078   -881.18404    1912.5971   -4944.3508    2.1349243   0.12679804    0.1423435 
    4300   -939.56895    52.076407   -887.49254     1865.188   -2465.3987    2.1486329  0.091913955   0.13904284 
    4400   -943.75486    52.508186   -891.24667    1880.6528    2498.7858    2.1774336   0.22622372   0.14268619 
    4500   -945.03944    54.879566   -890.15987     1965.587   -2703.8793    2.1632361  0.043553203   0.17281921 
    4600   -935.15645    53.829819   -881.32663    1927.9889   -9787.4639     2.124007   0.15578885   0.20019674 
    4700    -943.3967    51.274609   -892.12209    1836.4706     7822.141    2.1842413   0.26472748   0.13650069 
    4800     -945.684    54.548456   -891.13555    1953.7279   -1130.9613    2.1702988   0.21279364   0.14268995 
    4900   -937.28215    50.339815   -886.94234    1802.9896   -7354.1219    2.1362126   0.21579784    0.1378061 
    5000   -937.62488    55.625759   -881.99912     1992.313    1600.5382    2.1575675   0.37846874   0.12900737 
    5100   -939.82528     46.19477   -893.63051    1654.5291     12069.04    2.1952483     0.310064   0.15442588 
    5200   -938.15258    46.319685    -891.8329    1659.0031   -9756.5916    2.1347353   0.26516146   0.18797036 
    5300      -940.36    50.826827   -889.53317    1820.4326   -3045.7835    2.1553606   0.32681611   0.16272755 
    5400    -939.3664    49.639986   -889.72642    1777.9243    12203.971    2.1934377  0.063578489   0.18230135 
    5500   -943.04818    42.483072   -900.56511    1521.5896   -4252.6843    2.1602828   0.13475727   0.14277938 
    5600   -944.48445    49.953793   -894.53066    1789.1637    -10649.43    2.1397866   0.11893162   0.13879994 
    5700   -938.89163    49.933757   -888.95787    1788.4461    11341.046     2.185874  0.093378484   0.16524017 
    5800   -937.97611    47.193779   -890.78233      1690.31    751.51807    2.1608866   0.80476687    0.1667709 
    5900   -941.26149    44.208137   -897.05336    1583.3751   -9198.1092    2.1435864   0.11878001   0.15484721 
    6000   -943.61438    46.419546   -897.19484    1662.5798    9922.3918    2.1927891   0.16577997    0.1359494 
    6100   -936.94624    47.718037    -889.2282     1709.087    7132.7184    2.1690966   0.13017874   0.13665982 
    6200   -936.19887    45.778045   -890.42082    1639.6036   -5136.6815    2.1369464  0.042096653   0.15397062 
    6300    -938.9644    46.360352   -892.60405    1660.4597    3285.9572    2.1698078   0.16580907   0.16667046 
    6400    -945.1401    44.543804    -900.5963    1595.3975    11391.702    2.2002757   0.32367908   0.14816669 
    6500   -940.19055    49.183401   -891.00715    1761.5711   -9400.2382    2.1387912    0.2929217   0.14947332 
    6600   -943.46554    53.466103   -889.99944    1914.9619   -3539.7046    2.1583332   0.03986093    0.1416255 
    6700   -940.60752    49.702439   -890.90508    1780.1611     7524.638    2.1788003   0.11478937   0.14006236 
    6800   -944.59014     44.43699   -900.15315    1591.5718   -5520.8165    2.1612572   0.53545942   0.14272905 
    6900   -940.77257    43.510431   -897.26214    1558.3858   -2907.7103    2.1607694   0.02965015   0.14087625 
    7000   -941.72757    50.855707   -890.87186     1821.467    7243.5021    2.1803765   0.31276689   0.13570914 
    7100   -940.11267    50.649793   -889.46288    1814.0919   -1810.0143    2.1549825   0.36835959   0.14116557 
    7200   -937.41945    52.312564   -885.10689    1873.6463   -6894.8541    2.1428436   0.19431703    0.1442211 
    7300   -927.85163    53.200432   -874.65119    1905.4465     1840.031    2.1442308   0.65596012   0.19934749 
    7400   -936.46085     50.03903   -886.42182    1792.2166    8814.4423    2.1679979    0.0876254   0.18195671 
    7500   -940.09676    51.351399   -888.74536    1839.2209   -4526.0875    2.1445775  0.084278669   0.14497945 
    7600   -940.31572     48.62494   -891.69078     1741.569    765.83672    2.1614023   0.19097908   0.14288922 
    7700   -945.30164    47.799027   -897.50261    1711.9878    7423.7098    2.1918205   0.28706754   0.13372486 
    7800   -935.83723    49.307925    -886.5293    1766.0311   -4721.9685    2.1403297   0.44206408   0.15531322 
    7900   -938.14481    48.270367   -889.87445    1728.8695    1120.2609    2.1604054  0.046389611    0.1471843 
    8000   -942.75862    49.256124    -893.5025    1764.1757     3826.403    2.1794872   0.31073823   0.14285294 
    8100   -935.32368    52.158437   -883.16524    1868.1261   -1687.1997    2.1473807   0.17177275   0.16614446 
    8200   -933.76836    46.638169   -887.13019    1670.4101     3150.962    2.1577067   0.15064602   0.15706122 
    8300   -943.60187    51.162847   -892.43902    1832.4676   -208.82291    2.1656538   0.15133449     0.140126 
    8400   -939.53061    51.294841   -888.23577    1837.1952    635.58695     2.161091  0.075180945   0.13149033 
    8500   -938.32269    54.667831   -883.65486    1958.0034   -4624.1834    2.1456902  0.083105091   0.13952203 
    8600   -940.25501    47.133771   -893.12124    1688.1607    2514.5953    2.1712639   0.15943876   0.12964409 
    8700   -938.36372    48.496342   -889.86738    1736.9631    2452.1493    2.1659134  0.081126728   0.14976708 
    8800   -936.79201    53.183131   -883.60888    1904.8269   -2777.0555    2.1424908   0.02877489   0.13175419 
    8900   -948.10281    53.354399   -894.74841    1910.9611   -1203.0847    2.1717774   0.31569029   0.13345816 
    9000   -938.26576    46.777554    -891.4882    1675.4024     1150.914    2.1606189   0.30583634   0.12791187 
    9100   -937.82084    51.100767   -886.72008    1830.2441   -1931.5573    2.1533146  0.033858125   0.15055832 
    9200   -943.35464    47.892005   -895.46264    1715.3179    269.54549    2.1670353   0.18726164   0.12293618 
    9300   -941.67222    47.807195   -893.86502    1712.2804   -265.88337    2.1632295  0.066945052   0.13300912 
    9400   -940.54763    53.009937    -887.5377    1898.6237   -706.98097    2.1609788   0.16091517   0.13358322 
    9500   -940.43724    47.738034    -892.6992    1709.8033   -164.89686    2.1651421    0.7390942   0.13591225 
    9600   -944.48086     47.28276    -897.1981     1693.497   -2492.2093    2.1686695   0.26702832   0.13246926 
    9700   -938.84348    51.406826   -887.43666    1841.2061    2023.8764    2.1666567  0.036633894   0.14506285 
    9800   -938.62908    48.308506   -890.32057    1730.2355   -1059.2809    2.1621837   0.10796666   0.14397948 
    9900   -944.48844    48.256455   -896.23199    1728.3712   -4040.8094    2.1669016  0.010503346    0.1392267 
   10000   -941.51327    51.156606   -890.35666    1832.2441    3542.6163    2.1751762   0.10588062   0.14458572 
   10100   -941.53076    54.530025   -887.00073    1953.0678    990.09542    2.1625915    0.1577667   0.14472057 
   10200    -936.6303    46.157707   -890.47259    1653.2017   -4936.6221    2.1438938   0.77677877   0.17914888 
   10300   -940.89759    53.683878   -887.21371    1922.7618    775.21459    2.1649811     15.53391   0.15131035 
   10400    -934.9917    56.285912   -878.70579    2015.9573    2255.3521    2.1544236    20.650269   0.16300345 
   10500   -938.28576      49.8263   -888.45946    1784.5974   -1367.3266    2.1532715    19.475795    0.1689039 
   10600   -938.56372     49.05547   -889.50825     1756.989    222.41225    2.1575541    34.820099   0.17763649 
   10700    -937.7121      56.1826    -881.5295     2012.257    5397.2821    2.1694417    54.428052   0.16292782 
   10800   -935.74003    50.304059   -885.43597     1801.709   -5236.4323    2.1373302    47.949804   0.18405519 
   10900    -941.6348    50.189376   -891.44543    1797.6014   -2349.4141    2.1594905    31.265488   0.14858251 
   11000   -937.37971    50.137671   -887.24204    1795.7496     12669.46    2.1851561    31.318503   0.15190923 
   11100   -935.96897    52.991585   -882.97738    1897.9664   -5887.2001    2.1366393    35.742747   0.16095903 
   11200   -939.14564    44.765457   -894.38019    1603.3363    -2727.407    2.1568912    36.109269   0.14918049 
   11300   -939.47461    47.449857   -892.02475    1699.4818    7960.7131    2.1835107    35.257064   0.16493785 
   11400   -937.73462    48.911444   -888.82318    1751.8305    2991.6677    2.1624143    34.283155   0.16957011 
   11500   -938.81746    51.618164   -887.19929    1848.7755   -11809.601    2.1314516    31.065731   0.16159975 
   11600   -945.32792    47.349243   -897.97867    1695.8782    11680.657    2.2052084    36.071427   0.15323986 
   11700   -941.88363    51.428148   -890.45548    1841.9697    2441.5394    2.1716288    32.758946   0.14622778 
   11800   -937.94158     48.20863   -889.73295    1726.6583   -14630.161     2.118477    33.969601   0.15855915 
   11900   -938.48964    50.310877   -888.17876    1801.9531     8191.454    2.1775995    33.861992   0.14254197 
   12000    -947.9031    49.741529   -898.16157    1781.5612    12678.994    2.2114559    35.659232   0.13563243 
   12100   -940.88003    50.777899   -890.10213    1818.6802   -14689.392    2.1291167    31.739519   0.13754969 
   12200   -939.26466    50.426681   -888.83798    1806.1008   -935.73266    2.1586012    34.661406   0.16220156 
   12300   -938.87577     46.60884   -892.26693    1669.3596    8877.9837     2.184152    33.885813    0.1459987 
   12400   -940.82891    42.784448   -898.04446    1532.3838   -2524.4871    2.1582186    37.754185   0.16442738 
   12500   -936.63301    49.248317   -887.38469    1763.8961   -1970.4708    2.1443876    42.329011   0.15197037 
   12600   -934.85113    48.185717   -886.66541    1725.8376    12272.017    2.1833455      40.4154   0.19381115 
   12700   -933.75353    44.042945   -889.71059    1577.4586    84.545825    2.1465073    29.604558   0.17466226 
   12800   -938.06941    47.317368   -890.75204    1694.7365   -7643.0112    2.1377886    32.739245   0.13443038 
   12900   -949.98413    48.943177   -901.04095    1752.9671    11472.654    2.2075999    35.269963   0.14540881 
   13000   -941.21323    49.226014   -891.98721    1763.0973   -1967.4721    2.1579031    40.036748   0.14877166 
   13100    -941.4435    51.163401    -890.2801    1832.4875   -7010.5682    2.1439483    33.392053   0.14387957 
   13200   -939.96138    51.622344   -888.33904    1848.9252    7861.5306    2.1763453    29.685275   0.13417274 
   13300   -946.75975    48.279976   -898.47978    1729.2136    2450.6859    2.1789742    31.907295   0.13162177 
   13400     -944.814    50.549182   -894.26482    1810.4884   -11254.852     2.142192    33.756355   0.14336938 
   13500   -938.23423    48.782822    -889.4514    1747.2238    4237.9589    2.1664922    33.874418   0.16260805 
   13600   -941.36293    51.554651   -889.80828    1846.5006    3433.2904    2.1685511     34.69908   0.13701338 
   13700   -947.10165    48.864275   -898.23737    1750.1411   -9241.1215    2.1522822     32.80526    0.1216164 
   13800   -945.28726    49.863624   -895.42364    1785.9342   -1549.8418    2.1664479    36.590749   0.13322787 
   13900   -935.69163    47.035343   -888.65629    1684.6354    8173.2885    2.1728607    32.872073   0.14576898 
   14000   -939.56598    48.318841   -891.24713    1730.6057   -3054.9493    2.1498659    31.727014   0.14081507 
   14100   -944.86324    45.570686   -899.29256    1632.1767   -3441.8762    2.1638516    31.126265   0.14560416 
   14200   -940.63613    48.116198   -892.51993    1723.3477    6888.2312    2.1765582    35.193698   0.15112924 
   14300   -940.07714    50.808532   -889.26861    1819.7774   -281.36671    2.1609328    31.971713   0.16436055 
   14400   -940.08001    48.065547   -892.01446    1721.5336   -6261.9922    2.1490386    33.893893   0.14583551 
   14500   -945.11751    46.893954   -898.22356    1679.5714    3149.4177    2.1803624    33.166991   0.13011472 
   14600   -944.68893    48.169142   -896.51979     1725.244    5201.3371    2.1850917    32.978323   0.14043589 
   14700   -940.91754    50.657644    -890.2599    1814.3731   -5921.9838    2.1441937    38.303888   0.13731561 
   14800   -942.40788    51.994803   -890.41308    1862.2653   -3431.0214    2.1552839     35.80946   0.15534687 
   14900   -940.16548    51.169221   -888.99626    1832.6959     7973.955    2.1791377    31.236065   0.14656431 
   15000   -933.68295     56.03472   -877.64823    2006.9605   -4644.1711    2.1302191    33.828542   0.16282961 
   15100   -939.86762    51.631157   -888.23646    1849.2408   -1231.1308     2.155172    33.768515   0.16354164 
   15200   -938.98831    48.741548   -890.24676    1745.7455    5576.4869    2.1706513    34.414312   0.14922444 
   15300   -939.93562     48.89178   -891.04384    1751.1263   -998.14385    2.1570356    34.176565   0.15364194 
   15400   -931.30003    51.417333    -879.8827    1841.5824   -3572.6238    2.1328046    38.755243   0.14826345 
   15500   -938.20859    51.717709   -886.49088    1852.3408    13026.105    2.1869958    29.994033   0.13895508 
   15600   -937.35753    47.115579   -890.24195    1687.5092   -4826.9872    2.1395563    34.373718   0.14439077 
   15700   -940.74735    48.863856    -891.8835    1750.1261   -11695.886    2.1298284    31.074462   0.14414424 
   15800   -941.51832     53.69146   -887.82686    1923.0334    19350.904     2.209412    31.868486   0.14496749 
   15900   -936.31371    54.955798   -881.35792    1968.3174   -4011.1737    2.1395833    32.754868   0.15357088 
   16000   -939.14853    47.380366   -891.76816    1696.9929   -9386.0954       2.1351    37.280121   0.14174346 
   16100   -941.24833     50.91452   -890.33381    1823.5735      6603.24    2.1813582    36.041475   0.15474683 
   16200    -943.2836    54.412715   -888.87089    1948.8661    1417.8982    2.1682856    33.123418   0.13348723 
   16300   -930.78516    52.329906   -878.45525    1874.2674    -8252.345    2.1163209    29.943874   0.15879519 
   16400   -937.99018    47.980362   -890.00981    1718.4826     9088.254    2.1781077    34.316387   0.14240885 
   16500   -939.41696    48.977863    -890.4391    1754.2094    2388.1253    2.1634541     32.55815   0.15113202 
   16600   -943.21191    53.197594   -890.01432    1905.3449   -9136.1649    2.1418907    32.871347   0.14508033 
   16700   -938.31504    53.203214   -885.11182    1905.5462    2840.7939    2.1640309    36.365549   0.17656859 
   16800   -932.78752    53.184873   -879.60265    1904.8893   -1660.9825    2.1409923    40.958376   0.16348968 
   16900   -938.72208    49.873835   -888.84825    1786.2999   -6257.6798    2.1415976    34.869183   0.15128235 
   17000    -939.4209    49.222787   -890.19811    1762.9817    7766.7943    2.1808919    34.858355   0.15001016 
   17100   -944.28784    50.783493   -893.50434    1818.8806   -302.92488    2.1689568    35.451327   0.13720342 
   17200   -934.86908    53.174054   -881.69503    1904.5018   -10786.764    2.1234037    35.045271   0.16372915 
   17300   -939.40161    52.218206    -887.1834    1870.2668    8154.0953    2.1800988    35.678818   0.15323777 
   17400   -943.45652    52.326761   -891.12976    1874.1548   -954.13038    2.1659295    36.298505   0.13792084 
   17500   -939.01836    48.259143   -890.75921    1728.4675   -9946.7517    2.1332112    35.894579   0.15080515 
   17600   -934.89461    54.356441   -880.53817    1946.8506    5648.1967    2.1623732    36.254165   0.16335457 
   17700   -942.36467    54.291172    -888.0735    1944.5129    16062.976    2.2004044    35.848202   0.15284708 
   17800   -939.42586    46.894191   -892.53167    1679.5798   -19959.094    2.1094406    31.805685   0.15924493 
   17900   -939.38179    49.989748   -889.39204    1790.4515   -1265.4668    2.1561203    33.126214   0.14578092 
   18000   -941.19387    52.624329   -888.56954    1884.8126    14725.153    2.1990153    33.233356   0.14634953 
   18100   -926.76022    50.268965   -876.49126     1800.452   -2869.4857    2.1233977    34.539582   0.17269377 
   18200   -938.81628    52.379343   -886.43694    1876.0381   -1608.5786    2.1525339    33.805328   0.14990606 
   18300   -939.67069    50.132912   -889.53778    1795.5791    4083.2145     2.165853    34.257209   0.13965226 
   18400    -941.9151     50.55085   -891.36425    1810.5481   -257.56577    2.1591613    33.259171   0.13694186 
   18500   -936.81108    50.603247   -886.20783    1812.4248    373.40555    2.1545876    30.444736   0.13777419 
   18600   -933.60971    51.141866   -882.46784    1831.7162   -362.37116    2.1433946    34.052685    0.1676131 
   18700   -941.93424    51.749425   -890.18482    1853.4767   -1729.3921    2.1626852    36.379342   0.16048661 
   18800   -942.75723    51.861463   -890.89577    1857.4895    1123.3284    2.1633482    33.199533   0.15101265 
   18900    -936.5569    54.164629   -882.39227    1939.9806    1159.1576    2.1482356    33.692735    0.1550101 
   19000   -935.20149    49.472182   -885.72931    1771.9142    462.69198     2.150747    34.921558   0.16037678 
   19100   -942.46202    50.759327   -891.70269     1818.015   -3859.5088    2.1555292    30.754135   0.13491277 
   19200   -942.10421    52.929879   -889.17433    1895.7563    4810.3007    2.1745121    30.682422   0.15375413 
   19300   -937.09656    55.573494   -881.52307     1990.441   -2944.2171    2.1442991    32.347426   0.17293816 
   19400   -935.79678      49.4887   -886.30808    1772.5058   -8234.4755    2.1281938    34.961873    0.1682666 
   19500   -939.42731    49.514019   -889.91329    1773.4126    6392.8463    2.1744654    28.524363   0.17878088 
   19600   -939.26326    51.424898   -887.83836    1841.8534    4824.0206    2.1673249    30.924008   0.16266448 
   19700    -935.4649    54.536719   -880.92818    1953.3075   -9758.9894    2.1187729    31.622462   0.16705454 
   19800   -943.72655    51.389863   -892.33669    1840.5985    4512.7073    2.1793176    34.590809   0.15432173 
   19900   -938.39034    46.986606   -891.40374    1682.8898    5397.1078    2.1718259    38.669632    0.1615827 
   20000    -940.0128    50.262002   -889.75079    1800.2026   -9206.9201    2.1371794    33.859944   0.14771407 
   20100   -938.27122    55.634503   -882.63672    1992.6261    1475.7815     2.155281    31.147156     0.153094 
   20200   -941.63073     51.95173     -889.679    1860.7226    9340.9808    2.1878888    34.184067   0.16700635 
   20300   -940.61286    47.890366   -892.72249    1715.2592    -12833.07     2.130772    36.591444   0.15006194 
   20400   -940.99876    50.329385   -890.66938    1802.6161   -1931.4818    2.1583933    34.636369   0.14635008 
   20500   -941.81266    55.866337   -885.94632    2000.9296    11805.199     2.190327    34.922168   0.14093505 
   20600   -934.42074     50.72795   -883.69279    1816.8912   -8843.8688    2.1272728    36.082349   0.16268759 
   20700   -942.68984    48.107754   -894.58208    1723.0453   -1573.2216    2.1646542    37.508049   0.14797563 
   20800   -941.88746     51.42669   -890.46077    1841.9175    4845.8928    2.1747511    35.447834   0.16060455 
   20900   -939.71848    51.335889   -888.38259    1838.6654   -3116.3747    2.1507991    35.440588   0.14201248 
   21000   -941.64637    48.640093   -893.00627    1742.1117   -3743.5766    2.1551552    34.123425   0.12966556 
   21100   -947.65974    50.997142    -896.6626    1826.5327       4450.1    2.1846271     35.25391    0.1357736 
   21200   -938.51467    48.507365   -890.00731    1737.3579    1114.0678    2.1618351    37.920724   0.15109951 
   21300   -938.02206    48.606941   -889.41512    1740.9244   -5718.9424    2.1404927    36.376123   0.13853548 
   21400   -943.38995    45.632246    -897.7577    1634.3816    2416.4019    2.1764647    34.693538   0.12164717 
   21500   -941.46126    46.839106   -894.62216    1677.6069    7743.1679    2.1819666     33.07295   0.13548561 
   21600   -938.06803    48.997602   -889.07043    1754.9164   -3744.2832    2.1494994    33.328723    0.1572442 
   21700   -939.07756    47.859092   -891.21847    1714.1391   -6475.5516    2.1426229    33.297945   0.16270566 
   21800   -945.55291    47.717818    -897.8351    1709.0792    10553.001    2.1975212    37.055127   0.14741517 
   21900   -939.20503    51.104169   -888.10086     1830.366    1366.0316    2.1606869     35.82893   0.13761542 
   22000    -936.0544    47.289339   -888.76506    1693.7326   -8531.8809    2.1333625     36.30547   0.15501357 
   22100   -940.51515    49.639729   -890.87542    1777.9151    4900.3982    2.1780648    34.097851   0.15059055 
   22200   -943.41253    47.997535   -895.41499    1719.0976     10213.32    2.1933483    35.220545   0.13513952 
   22300   -939.89606    56.630019   -883.26604    2028.2819   -20190.608     2.102644    38.922261   0.14190094 
   22400   -943.42353    54.946224    -888.4773    1967.9745    5574.5942    2.1771646    35.393205     0.152557 
   22500   -941.54306    51.487267   -890.05579    1844.0872    11099.355    2.1910488      33.6481      0.15955 
   22600   -937.46988    45.046796   -892.42309    1613.4129   -9622.4628    2.1339336    33.269973   0.15002379 
   22700   -946.33157    44.674162   -901.65741    1600.0665   -2721.7585    2.1731064    36.103295   0.13748223 
   22800   -943.50014    46.750781   -896.74935    1674.4434    8628.2596    2.1914951    33.113861   0.14359117 
   22900   -942.02588    50.540547   -891.48533    1810.1791   -465.47059    2.1606782     39.90199   0.12337187 
   23000    -939.1598    49.425598   -889.73421    1770.2457   -5785.1778    2.1445973    34.137457   0.16095721 
   23100   -936.47542    51.080491   -885.39493    1829.5179    6339.2036    2.1646959    34.411297   0.14326357 
   23200   -937.00978    61.297582   -875.71219    2195.4571   -295.02192     2.144564    34.121635   0.14819705 
   23300   -939.30313    51.443061   -887.86007    1842.5039    -264.8462    2.1557385    38.481053   0.16681121 
   23400   -942.07619    52.114859   -889.96133    1866.5652   -3250.1569    2.1589098    34.784376   0.15986395 
   23500   -937.90594    45.988407   -891.91753     1647.138    2410.0608    2.1685426    36.597248   0.18032384 
   23600   -942.64311    47.936236   -894.70688    1716.9021   -1382.7361    2.1654782    34.621119    0.1640578 
   23700   -948.47924     44.56058   -903.91866    1595.9984    3849.4656    2.1919693    34.846297   0.13362184 
   23800   -939.49876    44.705693   -894.79307    1601.1958   -2794.5026    2.1554065    33.510465   0.14760425 
   23900   -939.98323    48.401076   -891.58216     1733.551   -1782.5402    2.1594592    33.435872   0.15605263 
   24000   -940.31384    53.119332    -887.1945    1902.5418    9582.4518    2.1832471     33.77612   0.16556815 
   24100   -943.16762    49.228228   -893.93939    1763.1766   -7702.1234    2.1519642    38.939416   0.15701019 
   24200   -944.09907     47.27253   -896.82654    1693.1306   -8910.1451    2.1479567    37.905049   0.14972396 
   24300   -941.40215    53.046476   -888.35568    1899.9324    11509.435    2.1885353    37.716687   0.14867637 
   24400   -942.43492    52.311764   -890.12316    1873.6177    843.98198    2.1632053    31.803212   0.13981284 
   24500   -940.13002    44.471903   -895.65812    1592.8223   -8365.5576    2.1383113    35.885094   0.15492656 
   24600   -942.21326    46.392638   -895.82062    1661.6161    10788.241    2.1910391      36.8484   0.14762698 
   24700   -937.94044    50.386281   -887.55416    1804.6539    5364.3087     2.168818    34.790514   0.16440757 
   24800   -941.99677    50.615244   -891.38153    1812.8545   -9423.2833    2.1395764    36.475291   0.13982053 
   24900   -944.13785    51.623371   -892.51448    1848.9619   -321.36959    2.1719501    34.103446   0.14425854 
   25000   -933.30832    52.351851   -880.95647    1875.0534    5414.8239     2.156281    35.894029   0.14444106 
   25100   -936.64023    49.119489   -887.52074     1759.282    1841.7321    2.1548713    36.033308   0.15121959 
   25200    -942.0134    49.818529   -892.19487     1784.319   -4580.5922    2.1556458    36.721321   0.15067674 
   25300   -938.26682    50.270111   -887.99671    1800.4931    3687.0886    2.1698821    35.961152   0.15907398 
   25400   -934.40069    52.464421   -881.93626    1879.0853   -2120.8711    2.1437189     31.76042   0.16892141 
   25500    -938.0963    46.884269   -891.21203    1679.2245   -3206.1204    2.1551836    42.334835   0.19205878 
   25600   -941.13135    52.060821   -889.07053    1864.6298    696.82995    2.1667718    37.521168   0.16925244 
   25700   -935.33535    53.124728   -882.21062    1902.7351   -2727.6761    2.1454743    41.743588    0.1694252 
   25800   -940.73091    52.228102   -888.50281    1870.6212   -4773.7853    2.1460089    38.476197   0.16739486 
   25900   -941.29133    49.757842   -891.53349    1782.1455    2415.8826    2.1676184    43.229966    0.1413234 
   26000    -941.9047    53.164682   -888.74002    1904.1661    8941.1149    2.1854996    43.952308   0.12838035 
   26100   -939.96443    48.005075   -891.95936    1719.3677   -10626.685     2.130999    44.581865   0.13186687 
   26200   -948.85814    48.094223   -900.76392    1722.5607    -2914.715    2.1688677    43.203392   0.13528126 
   26300   -941.61743    51.032714   -890.58471    1827.8067    12729.644    2.1941833    46.419086    0.1445287 
   26400   -941.99532     52.21378   -889.78154    1870.1083   -7136.7104    2.1433867    43.834437   0.14158765 
   26500   -937.69759    46.642915   -891.05468    1670.5801   -6164.5754    2.1388328    42.589847   0.14154331 
   26600   -946.42685    47.934696   -898.49215     1716.847    11166.281    2.2002656    41.009722   0.13278168 
   26700   -935.17513    47.266468   -887.90866    1692.9135    1673.4313    2.1501761    44.816519   0.15176743 
   26800   -941.19434    51.915825   -889.27852    1859.4366   -7507.6921    2.1417538    44.495082   0.13102282 
   26900   -942.69945    51.043852    -891.6556    1828.2057    2737.1722    2.1708758    45.957948   0.14594378 
   27000   -949.74486    50.474375   -899.27049    1807.8091    196.72335     2.179086    41.626318   0.13523958 
   27100   -938.58993     50.32438   -888.26555    1802.4368   -10053.525    2.1320782    47.119208   0.15183115 
   27200   -938.99687    49.885636   -889.11123    1786.7226    4650.1682    2.1695687    44.440966   0.16100341 
   27300   -941.06395    48.754209   -892.30974    1746.1989    7293.0238    2.1767185    46.891701   0.14364285 
   27400   -939.36149    50.617315   -888.74418    1812.9286   -5010.3998    2.1410888    44.786892   0.15167488 
   27500   -934.97609    51.319701   -883.65638    1838.0856   -2476.3765    2.1392863    45.079093   0.15915561 
   27600   -942.93813    53.163267   -889.77486    1904.1154    6345.5363    2.1775668    44.888041   0.14008414 
   27700   -941.14578    48.759115   -892.38667    1746.3747   -2208.8954    2.1547224    45.215548   0.14345429 
   27800   -937.49134    54.134499   -883.35684    1938.9014   -14965.487    2.1095538    47.269718    0.1583547 
   27900   -936.72295    52.210985   -884.51197    1870.0081    16176.722    2.1859454     47.74881   0.15994979 
   28000   -942.42329    52.371717   -890.05157     1875.765    3412.4768    2.1698775    45.459007    0.1523316 
   28100    -940.6344    50.061874   -890.57253    1793.0348   -14616.649    2.1191744    49.832243   0.17779899 
   28200   -936.93248     52.88373   -884.04875    1894.1034    5682.5982    2.1584841    61.489959   0.17607488 
   28300   -942.27504    49.051024   -893.22402    1756.8298    11805.001    2.1906087    66.471677   0.18749345 
   28400   -940.72092    47.230711   -893.49021    1691.6328   -9338.6202    2.1402263    71.944282   0.16135417 
   28500   -937.34268    50.155855   -887.18682    1796.4008    463.34343    2.1515067    73.963542   0.16032589 
   28600   -939.29036    50.143819   -889.14654    1795.9698     8133.779    2.1778794    65.663185   0.16036579 
   28700   -939.88218    44.139793   -895.74239    1580.9273    2700.6247    2.1643514    46.270432   0.16407952 
   28800   -937.94094    50.519646    -887.4213    1809.4305   -5018.1435    2.1377676    95.558378   0.15159146 
   28900   -939.86791    51.629293   -888.23861     1849.174     4055.235    2.1660501    108.15572   0.15144834 
   29000   -942.44235    47.382371   -895.05998    1697.0647    4828.6884    2.1759066     112.0894   0.15398298 
   29100   -938.18109    51.610548   -886.57054    1848.5027   -6547.5109    2.1334824    110.44915   0.15977439 
   29200   -939.41837    51.517757   -887.90061    1845.1792    1136.0906    2.1543017    109.73313   0.13612446 
   29300   -945.62301    51.965197   -893.65782    1861.2049    7098.4686    2.1827844    105.76466   0.13424347 
   29400   -936.28357    50.892526   -885.39105    1822.7857   -4375.8022    2.1421638    102.05762   0.15927437 
   29500   -940.84148    54.032466   -886.80901     1935.247   -6745.4395    2.1461248    102.48536   0.15085793 
   29600   -941.96518     48.97718     -892.988     1754.185    7859.1988    2.1850913    107.29226    0.1405271 
   29700   -939.10316    51.018163   -888.08499    1827.2856    1837.5371    2.1653964    108.59943   0.17435473 
   29800    -934.9154    48.285667   -886.62973    1729.4175   -14149.728    2.1176661    113.45248   0.15982884 
   29900   -944.55402     49.40506   -895.14896    1769.5101    7556.8516     2.189968    111.07914    0.1531881 
   30000    -941.0492    51.022964   -890.02624    1827.4575    13741.345    2.1961714    104.15299   0.14459313 
   30100   -936.89971    48.887889   -888.01182    1750.9869   -13263.471    2.1240088    105.53685   0.15335804 
   30200   -943.22377    49.671914   -893.55185    1779.0678   -4164.8667    2.1564967    104.47889   0.13389167 
   30300   -945.49689    51.206752   -894.29013    1834.0402    12804.832    2.2046231    107.72431   0.14115436 
   30400   -940.72709    54.312808   -886.41429    1945.2878   -5598.0649    2.1428795    110.98468   0.13316198 
   30500   -940.83725    49.539257   -891.29799    1774.3165   -9237.5702    2.1382861    112.97286   0.14719189 
   30600   -940.74353    47.465097   -893.27843    1700.0276    9786.6435    2.1865186    108.69545    0.1560208 
   30700   -937.64198    54.679517   -882.96246     1958.422   -1154.3381    2.1506641    107.83523   0.16611416 
   30800   -940.98537    51.273241   -889.71213    1836.4215   -5180.6697      2.14554    104.48671   0.13112566 
   30900   -942.62152    49.880168   -892.74135    1786.5267    328.34451    2.1681439    105.21967    0.1497226 
   31000    -935.9854    51.801708   -884.18369    1855.3493    4019.6012    2.1645196    104.94787   0.15406283 
   31100   -938.00894      50.9127   -887.09624    1823.5083   -3880.7992    2.1444057    103.10963   0.16440955 
   31200   -938.33086    45.184188   -893.14667    1618.3338    1016.2634    2.1583932    103.09476   0.18064748 
   31300   -940.30955    54.662168   -885.64738    1957.8006    9739.2883    2.1823875    110.16656   0.15577202 
   31400   -939.50189    51.930838   -887.57105    1859.9743   -3089.8706    2.1477077    106.45224   0.14210228 
   31500   -941.66648    45.817526   -895.84895    1641.0176   -7442.4853    2.1452007    105.60701   0.15403103 
   31600   -937.31423    48.655546   -888.65868    1742.6652    12730.638    2.1858018     103.0232   0.14863449 
   31700   -939.78612    51.837324    -887.9488     1856.625    4534.8456    2.1667651    104.63219   0.15301896 
   31800   -942.46618    44.966732   -897.49944    1610.5453   -11137.142    2.1372036    124.52997   0.15260182 
   31900   -944.36834     51.90968   -892.45866    1859.2165    2089.2019    2.1694593    108.54492   0.14203515 
   32000    -941.1713    55.678318   -885.49299    1994.1954    11386.919    2.1865787    107.98518   0.14253332 
   32100   -941.79393    49.207663   -892.58626      1762.44   -15989.625    2.1245506    107.89146    0.1465243 
   32200    -939.9658    45.853465   -894.11234    1642.3048   -2240.5233    2.1487798    105.62853    0.1506632 
   32300   -937.84018    54.299815   -883.54036    1944.8224    16240.028    2.1940152    108.63742   0.15047585 
   32400   -937.57618    49.280598   -888.29558    1765.0523   -2670.3195    2.1492207     102.9529   0.15479663 
   32500    -941.3609    47.625005    -893.7359     1705.755   -7968.4425    2.1499809    110.60342   0.16467505 
   32600   -940.08302    49.738105   -890.34492    1781.4385    5354.5447    2.1783349     103.4662   0.15680526 
   32700   -937.01653    52.667686   -884.34884    1886.3655   -2528.6622     2.149524    103.97323   0.15386493 
   32800   -938.95494    46.218081   -892.73686     1655.364   -1208.5002     2.155267    107.87421    0.1617016 
   32900   -937.41815    46.957028   -890.46112    1681.8304    6445.4635    2.1708932    107.00502   0.13924378 
   33000   -932.28667    50.153906   -882.13276     1796.331    1822.3556    2.1479421    109.23412    0.1686922 
   33100   -941.86797    49.466134   -892.40184    1771.6975   -3259.5311    2.1589639    106.38465     0.132106 
   33200   -941.81106    49.906369   -891.90469    1787.4651   -2722.6759    2.1573491    106.27325   0.13806376 
   33300    -933.5163    49.447408   -884.06889    1771.0268    5868.8758     2.161577     104.2339    0.1380676 
   33400   -944.09269    52.037968   -892.05472    1863.8113    2162.8702    2.1719527    106.68664   0.14245107 
   33500   -944.57895    50.932802   -893.64615    1824.2283   -9500.4407    2.1469739    111.13321   0.15360558 
   33600   -940.28679    53.430889    -886.8559    1913.7007    1957.9186    2.1666572    107.76673    0.1499178 
   33700   -944.83468    52.089037   -892.74564    1865.6404    4856.0295    2.1817688    104.19418   0.13081271 
   33800   -942.45162    45.719724    -896.7319    1637.5147   -7626.1903    2.1540775    107.26067   0.14311101 
   33900   -939.19024    50.395744    -888.7945    1804.9928   -313.20266    2.1594327    107.90616   0.13743396 
   34000   -941.68249    53.189336   -888.49315    1905.0491    8204.5082    2.1837068    107.09686   0.14523155 
   34100   -944.10044    46.128335    -897.9721    1652.1497   -6425.4504    2.1609536    112.36256   0.15665067 
   34200   -937.91534    48.333687   -889.58165    1731.1374   -8476.6672    2.1388407    109.86705   0.15475601 
   34300   -940.79155    54.407549     -886.384    1948.6811    12901.078    2.1942547    105.51947   0.16886587 
   34400   -943.85086    50.650158    -893.2007     1814.105   -1075.1277    2.1664236    105.08897    0.1447717 
   34500   -937.87887    50.022945   -887.85592    1791.6405   -11911.341    2.1230759    111.91044   0.15886859 
   34600   -938.10657    54.635943   -883.47063    1956.8613    4311.1185    2.1651946    104.24881   0.15229049 
   34700   -937.88278    47.566342   -890.31644    1703.6539     5008.684    2.1728365    104.77962   0.16141023 
   34800   -938.11402    45.818172   -892.29585    1641.0407   -2813.6436    2.1489764    106.34244   0.14258574 
   34900   -935.94169    53.732072   -882.20962    1924.4879    1362.2581    2.1495135    105.76677   0.14962796 
   35000   -937.26362    48.818982   -888.44464    1748.5189    4445.1961     2.167507    110.79678   0.16484022 
   35100   -946.18909    53.416389    -892.7727    1913.1814   -5887.6276    2.1565975    111.75437   0.15815737 
   35200   -937.91042    51.141333   -886.76908    1831.6971    2129.9379    2.1584401     106.6354   0.16673034 
   35300   -936.53976    53.040871   -883.49889    1899.7316      2933.01    2.1583807    106.84181   0.17553325 
   35400    -943.3243    49.815975   -893.50832    1784.2276    1379.6091    2.1692048    101.88945   0.14906101 
   35500   -941.99421    51.637577   -890.35664    1849.4708   -2979.6963    2.1576826    115.32782   0.14883361 
   35600   -937.75929    52.818938   -884.94036    1891.7828   -744.39271    2.1551054    108.04017   0.15296368 
   35700   -942.57119    47.686212   -894.88498    1707.9472    1147.4363     2.173593    108.18954   0.15565477 
   35800   -943.20294    50.338702   -892.86424    1802.9498    -8324.298    2.1460727    106.17693   0.15079992 
   35900   -944.33152    57.038009   -887.29352    2042.8946    2927.6216    2.1686945    115.80307   0.14261877 
   36000   -941.00175     47.93938   -893.06237    1717.0148    8094.0432     2.179759     109.3623   0.14216694 
   36100   -943.58832    45.544215    -898.0441    1631.2286   -8705.8269    2.1491224    109.32528   0.12730112 
   36200   -941.40476    51.587175   -889.81758    1847.6655   -2307.2368    2.1581133    102.66663   0.13642501 
   36300   -944.26921    56.218745   -888.05047    2013.5516    8658.4342    2.1875539    102.23856   0.13493318 
   36400   -944.06953    47.505422   -896.56411    1701.4719   -6773.7691    2.1522376     104.4187   0.14346284 
   36500   -944.91331    54.444457   -890.46885     1950.003   -9848.1841    2.1403287     107.6787    0.1409528 
   36600   -940.72399    54.776004   -885.94799    1961.8778    11041.748    2.1861102    113.29285   0.15097456 
   36700   -940.62418    48.664524   -891.95966    1742.9868    -566.7719    2.1574472    107.69298   0.14772753 
   36800   -939.57698    48.544869   -891.03211    1738.7011    -7812.949    2.1395928    115.09418   0.14699698 
   36900   -936.53459    55.090066   -881.44452    1973.1264    2669.5772    2.1559506    105.17573   0.14499149 
   37000   -936.35553    47.056951   -889.29858    1685.4093    7313.7651    2.1728023    103.56136   0.15468167 
   37100   -940.46153     47.62028   -892.84125    1705.5857    -3472.845    2.1521985    106.13959   0.13419121 
   37200   -937.80142    53.451297   -884.35013    1914.4316   -2004.2651    2.1529799    104.87311   0.14926702 
   37300   -935.40441    48.100287   -887.30412    1722.7778     5018.182    2.1627144    107.40721   0.15929863 
   37400   -942.98283    49.673985   -893.30884     1779.142   -4395.3495    2.1586481    104.58676   0.15695615 
   37500    -938.5494    50.675035   -887.87437     1814.996    621.26112     2.157953    105.90683   0.16742237 
   37600   -935.02101    50.168812    -884.8522    1796.8649    1321.4464    2.1537078     108.4771   0.16275559 
   37700   -943.46185    48.151221   -895.31063    1724.6021    3490.7301    2.1744886    101.89535   0.12710439 
   37800   -942.29457    51.588365   -890.70621    1847.7082   -3540.4676    2.1517251    104.07303   0.13844765 
   37900   -935.62424    50.102499   -885.52174    1794.4898   -2019.9373    2.1491611    110.10029   0.17371246 
   38000   -942.66096    49.336645   -893.32432    1767.0597   -1275.8018    2.1640761    107.71945   0.13812323 
   38100   -942.88111     48.90677   -893.97434    1751.6631    886.37784    2.1678946     109.1156   0.14688523 
   38200   -938.06726    50.603544   -887.46372    1812.4354    1022.9689    2.1626896    107.40889     0.149464 
   38300   -940.67635     49.19151   -891.48484    1761.8615   -3220.0496    2.1584045    108.21871   0.16959132 
   38400   -943.96973    46.894142   -897.07559    1679.5781   -756.94953    2.1735666    108.04264   0.15101593 
   38500   -938.81725    51.581349    -887.2359    1847.4569    7617.7529    2.1708514    107.12806   0.15716368 
   38600   -938.84545    48.578153   -890.26729    1739.8933   -1708.0848    2.1518744    116.22793   0.13947127 
   38700   -943.95453    46.200637   -897.75389    1654.7393    -3538.451    2.1579111    109.41482   0.12628197 
   38800   -940.58494     50.63572   -889.94922    1813.5879    9205.4954    2.1842848    111.12532   0.13844074 
   38900   -938.05669    50.669104   -887.38759    1814.7836    1482.3027    2.1604758    104.97763   0.13485157 
   39000   -940.57556    46.215807   -894.35975    1655.2826   -9705.8804    2.1391567    112.23936   0.13532089 
   39100   -939.16214    48.900992   -890.26115    1751.4562    5977.5004    2.1740336    109.91264   0.15501678 
   39200   -937.88887    54.325137   -883.56373    1945.7294    6577.0334    2.1659555    109.45649   0.14802164 
   39300   -943.06768    50.232184    -892.8355    1799.1347    -8725.186    2.1435363    119.18254   0.15356804 
   39400   -939.80743    49.391592   -890.41584    1769.0277    984.59696    2.1605964     103.6463   0.15091679 
   39500   -934.73376    54.257031   -880.47673    1943.2901    6787.2731    2.1610991    168.00122   0.16294931 
   39600   -936.68481    47.725047   -888.95976    1709.3381   -2704.8453    2.1454831    152.15877    0.1681696 
   39700   -940.60571    48.815682   -891.79003    1748.4007   -6491.3144    2.1434308    165.23576   0.16027634 
   39800   -936.52881    52.559887   -883.96892    1882.5046    9429.8274     2.170322    142.78433   0.17969884 
   39900   -938.89308    51.860468   -887.03262    1857.4539   -588.36215    2.1561122    150.75768   0.19301082 
   40000   -940.38103    46.877817   -893.50321    1678.9934   -6736.0815     2.143519    152.22087   0.19942751 
   40100   -939.87115    52.569075   -887.30207    1882.8336     3190.325    2.1687499    161.90279    0.1846875 
   40200   -939.54201    51.103886   -888.43812    1830.3559    1728.7348    2.1626503    147.41901   0.18118274 
   40300   -940.21301    43.295592   -896.91742    1550.6911   -2557.9672    2.1583755    159.03032   0.14934873 
   40400   -942.04846    52.783658    -889.2648    1890.5192   -3690.0506    2.1567534    155.98992   0.16870848 
   40500   -939.11677    52.994543   -886.12223    1898.0724    6158.9655    2.1722732    154.75417   0.18043237 
   40600   -942.12928    47.470918   -894.65836    1700.2361   -7455.7104    2.1466188    147.25771   0.17357972 
   40700   -939.64202    47.839385   -891.80263    1713.4333   -9675.8822    2.1334821    156.13145   0.19113586 
   40800    -935.7721    52.229583   -883.54252    1870.6743    19427.827    2.1966883    155.77878   0.20196264 
   40900    -938.5639    49.725657   -888.83825    1780.9927   -2934.8789    2.1494287    146.89047    0.1621347 
   41000   -941.48881    47.918083   -893.57072     1716.252   -16127.494    2.1244479     144.0876   0.16241062 
   41100   -936.85461    48.716876   -888.13773    1744.8618    13323.006    2.1896238    113.29125   0.15415654 
   41200   -935.63898    52.207403   -883.43158    1869.8798     3322.715      2.15674    143.92912   0.18464165 
   41300   -941.23658    48.565211   -892.67137    1739.4297   -8986.3886    2.1391736    150.53018   0.16271867 
   41400   -940.49927    51.477512   -889.02175    1843.7378    2143.1025    2.1618646    141.98114   0.15324811 
   41500   -932.99554     52.33236   -880.66318    1874.3554    10461.903    2.1641103    158.31246   0.17189151 
   41600   -939.86043    49.777277   -890.08316    1782.8416   -7650.0568    2.1402686    135.05946   0.18403026 
   41700   -942.71852    51.537363   -891.18115    1845.8815   -5543.4378    2.1448611    158.30499   0.17366625 
   41800   -938.90314    54.303927   -884.59921    1944.9697    9284.1017     2.176189    147.23029   0.17298579 
   41900   -938.29982    47.433125   -890.86669    1698.8825   -2806.2114    2.1500827    145.07296   0.18454928 
   42000   -943.23694    48.311557   -894.92538    1730.3448   -8199.9506    2.1459507    155.63644   0.16693851 
   42100   -936.77673    50.383934   -886.39279    1804.5698    8642.8262    2.1715656    153.65295   0.16682378 
   42200   -942.98801    52.773248   -890.21476    1890.1464   -961.01138    2.1625919    138.38702   0.16196404 
   42300   -942.43235    44.527904   -897.90444    1594.8281   -3318.1562    2.1545252    152.52616   0.16280775 
   42400   -941.36829    52.854399   -888.51389    1893.0529    6.4225571    2.1558521    149.30525    0.1726134 
   42500    -940.1287    52.178477   -887.95023    1868.8438     5458.047    2.1720897    149.13166   0.18584478 
   42600   -945.23388    49.500047   -895.73383    1772.9122   -2919.5768    2.1591551    145.57093   0.17870016 
   42700   -938.21334    50.614373   -887.59896    1812.8233   -977.37717    2.1491855    150.65798   0.19841453 
   42800   -936.84074    50.810017   -886.03073    1819.8306     6136.638    2.1650379    155.35023   0.19964868 
   42900   -942.48329    49.725979   -892.75731    1781.0042   -2926.0989    2.1603873    147.02671   0.16845573 
   43000   -940.45526    53.139588   -887.31567    1903.2673   -117.14869    2.1516958    147.84005   0.17826725 
   43100   -934.60972    51.563153   -883.04657    1846.8051    2439.8059    2.1535506     151.1344   0.18531776 
   43200   -943.28454    51.784326   -891.50021    1854.7268   -2598.3778    2.1628544    152.55344   0.17013118 
   43300   -940.25753    51.439994   -888.81753     1842.394   -969.06079    2.1550558    128.41648   0.18534181 
   43400   -932.81712    51.692573   -881.12455    1851.4405    3362.1171    2.1513965    138.23127   0.19300339 
   43500   -938.85582    47.875011   -890.98081    1714.7093    2792.3743    2.1704009     146.8847   0.18500919 
   43600   -938.22998    47.801818   -890.42817    1712.0878   -5760.8774    2.1466858    148.23013   0.18773901 
   43700   -935.39291    52.707737   -882.68517       1887.8   -2523.7391    2.1441364    151.37831   0.19541954 
   43800   -944.17889    51.105637   -893.07325    1830.4186    5922.7705    2.1844898    150.75528   0.15236794 
   43900   -938.00463     46.75453    -891.2501    1674.5777   -4373.2216    2.1488795    149.21049    0.1820514 
   44000   -937.06957    50.352994   -886.71658    1803.4616   -5872.8502    2.1388955    153.37052   0.18216002 
   44100    -942.0571    48.026294   -894.03081    1720.1277    16122.888    2.2093595    150.01389   0.16729082 
   44200   -943.31299    49.609806   -893.70318    1776.8433   -2406.8069    2.1627581    152.23033   0.17846177 
   44300   -936.22825    47.527586   -888.70066    1702.2658   -20523.312    2.1057204    153.68606   0.21338238 
   44400   -934.76663    49.531678   -885.23495    1774.0451    15799.889    2.1891828    151.92382   0.20113068 
   44500   -944.61648    50.630697   -893.98578     1813.408     7603.848       2.1914    157.96872   0.16845596 
   44600   -941.93166    52.255382   -889.67628    1871.5983   -13977.998    2.1263995    150.09162   0.15424739 
   44700   -934.48937    49.031894   -885.45748    1756.1446    1579.4742    2.1533649     172.5284   0.17502313 
   44800   -937.67646    48.372329   -889.30413    1732.5214    8688.9798    2.1815257    148.13984   0.18781106 
   44900   -940.26853    45.813495   -894.45504    1640.8732   -2795.9874    2.1558742    145.65117   0.15838834 
   45000   -936.07111    53.028502   -883.04261    1899.2886    -5408.042    2.1335488    160.45072   0.18147168 
   45100   -939.05412    52.659442   -886.39468    1886.0702    7943.8236    2.1769168    133.68143   0.16450862 
   45200   -939.07505    47.354466   -891.72058    1696.0652    11.337955    2.1642338     116.1655    0.1488685 
   45300   -939.39271    50.397538   -888.99517    1805.0571    -8533.551    2.1373966     119.2045   0.14461629 
   45400   -938.43707    57.995747   -880.44132    2077.1973   -470.49564    2.1516955    110.25943    0.1494966 
   45500   -941.48032    51.209404   -890.27092    1834.1352    8286.2188    2.1852653    104.30595   0.13696237 
   45600   -938.82205    46.772993   -892.04905     1675.239   -5998.2644    2.1429813    123.18291   0.15311263 
   45700   -934.11508    49.411074   -884.70401    1769.7255   -3629.3478    2.1431414    112.54715    0.1764155 
   45800   -936.80131    47.561893   -889.23942    1703.4945    9849.9826    2.1784664    115.24263   0.14603957 
   45900   -945.25538    51.616084    -893.6393    1848.7009   -4126.5464    2.1583068    116.26706   0.16092907 
   46000   -941.63156    51.722065   -889.90949    1852.4968   -3391.4121     2.150823    109.50158   0.16683872 
   46100   -934.65242     49.81399   -884.83843    1784.1565    4574.3699    2.1637338      116.999   0.16008918 
   46200   -939.64793     44.44484   -895.20309     1591.853    2576.9131    2.1683973    110.60941    0.1556077 
   46300     -942.644    50.113958   -892.53005    1794.9002   -6917.5405    2.1501957    114.93028   0.14900113 
   46400   -942.08948     55.81555   -886.27393    1999.1106    641.32776    2.1602727    108.22194    0.1365596 
   46500   -943.82677    49.308622   -894.51815     1766.056    565.53678    2.1687146    118.77713   0.14802293 
   46600   -943.62183    49.729786   -893.89205    1781.1406   -1864.2525    2.1598753    110.58956   0.14238717 
   46700   -938.46742    51.972068   -886.49535     1861.451    1459.1145    2.1532977    120.40126   0.14412583 
   46800    -943.9505    51.233287   -892.71722    1834.9905   -696.87487    2.1640247    112.61457     0.139881 
   46900   -943.21273    47.351336    -895.8614    1695.9531   -77.209643    2.1690169    112.56529   0.15347329 
   47000   -939.94641    54.068691   -885.87772    1936.5444   -4230.4932    2.1442222    107.57461   0.13849313 
   47100   -943.10638    52.352913   -890.75347    1875.0915     527.2531    2.1653629    105.67393   0.14325223 
   47200   -948.58843    55.184592   -893.40384     1976.512   -3689.3406    2.1694113    95.339516   0.14857061 
   47300   -935.21277    51.816678   -883.39609    1855.8855   -6680.1776    2.1269588     83.10317   0.15607954 
   47400   -937.97235    47.314662   -890.65769    1694.6396    6316.1405    2.1721282    97.189104   0.15815047 
   47500   -939.00496    48.246824   -890.75814    1728.0263    10029.431    2.1844581    78.493393   0.17815516 
   47600   -933.46387    49.733265    -883.7306    1781.2652   -11865.127    2.1126806     79.87249   0.17185962 
   47700   -937.85708    51.943976   -885.91311    1860.4448   -2990.7577    2.1422463    82.563788   0.17120979 
   47800   -940.41747    50.786737   -889.63074    1818.9967     18534.62    2.2063304    72.946418   0.18012866 
   47900   -936.99316    47.647678   -889.34548     1706.567   -3685.9715    2.1413844    80.301824    0.1829388 
   48000   -935.74456    50.950286   -884.79427    1824.8545   -12758.176    2.1211077    80.028301   0.15798872 
   48100   -940.66382    45.352956   -895.31086    1624.3784    12117.033    2.1938021    72.015063   0.16207278 
   48200   -939.36346    49.928882   -889.43458    1788.2715   -960.51505    2.1582925    74.900137   0.14690222 
   48300   -939.72576    52.021287   -887.70448    1863.2139   -6796.0679     2.141074    70.508722   0.16011062 
   48400    -945.2348    49.757203    -895.4776    1782.1226    271.99347    2.1730494    79.022411   0.16953345 
   48500   -938.96435    46.823695   -892.14066    1677.0549    5873.6895     2.172806    72.422889   0.18326471 
   48600   -939.05574    52.126363   -886.92938    1866.9773   -2832.6364    2.1456338    74.225759   0.17677672 
   48700   -938.40007    45.841028   -892.55904    1641.8594   -1698.9209    2.1531622    67.174453   0.16882371 
   48800   -940.45018    47.025856   -893.42433    1684.2956    6230.6819    2.1853629    72.480802   0.16904259 
   48900   -938.87537     54.73511   -884.14026    1960.4132   -8032.1188    2.1394926    73.980746   0.16725753 
   49000   -940.50025     50.37487   -890.12538    1804.2452   -5587.4744    2.1483258    78.921979   0.17808959 
   49100   -941.42364    51.019932    -890.4037    1827.3489    7244.8437    2.1831305    75.268858   0.16308422 
   49200   -934.47243    54.569503   -879.90293    1954.4817   -1497.7523    2.1428213    75.283849   0.18168043 
   49300   -940.77724     52.59432   -888.18292    1883.7378   -9167.8641     2.136445    80.413221   0.16732157 
   49400   -939.68571    49.248302   -890.43741    1763.8956    5513.8688    2.1735702    77.251142   0.18774011 
   49500   -939.45801    50.593736   -888.86427    1812.0841    9139.2011     2.181845    67.817643   0.18740495 
   49600   -933.29631    53.989026   -879.30728    1933.6911   -16317.284    2.1003374    85.456772    0.1892871 
   49700   -938.83137    48.557059   -890.27431    1739.1378    1463.7186    2.1638276    68.386026   0.15635746 
   49800   -939.22049    50.654418   -888.56608    1814.2576    13622.053     2.193152    73.872502   0.16464487 
   49900    -941.7244    51.953712   -889.77069    1860.7935   -11195.117    2.1372144    73.714125   0.16478077 
   50000   -931.63832    50.408596   -881.22973    1805.4531   -3745.6033    2.1348353    79.008826   0.20556473 
   50100   -935.00831    50.446844   -884.56146     1806.823    7518.2861    2.1708175    74.668095   0.19614683 
   50200   -944.79067    54.762177   -890.02849    1961.3826   -2422.4948     2.156584    72.463645   0.16325259 
   50300   -941.67204    52.126694   -889.54535    1866.9892   -4678.7195    2.1505865    83.409137    0.1780251 
   50400    -936.4421    50.099578   -886.34252    1794.3852    1393.2582    2.1600668    74.958025   0.18177669 
   50500   -930.44731    55.718883   -874.72843    1995.6483    3211.7911    2.1410291    73.388641   0.15855978 
   50600   -937.21363    50.964251   -886.24938    1825.3546    3225.8238    2.1586874    85.602162   0.17048616 
   50700   -937.92217    49.662693   -888.25948    1778.7375    -2921.038    2.1477186    94.745511   0.15935216 
   50800   -935.95074    45.420273   -890.53047    1626.7895    5690.3197    2.1666751    96.361064    0.1745612 
   50900   -947.25397    48.820493   -898.43348     1748.573   -328.20084       2.1789     96.64479    0.1518497 
   51000   -941.33707    44.685282   -896.65179    1600.4648   -78.645634    2.1657242    109.37452   0.15745121 
   51100   -941.04677    50.373019   -890.67375    1804.1789    1021.9179    2.1626037     107.2337   0.15426411 
   51200   -942.02388    52.054903   -889.96898    1864.4178   -2130.7746     2.161172     107.1178   0.15804274 
   51300   -938.54882    49.761137   -888.78769    1782.2635    -1638.678    2.1545989    101.50735   0.17056184 
   51400   -943.74989    48.141991    -895.6079    1724.2715    873.73524    2.1651579    106.08924   0.13953806 
   51500    -941.7957    44.493977   -897.30173    1593.6129    4515.9304    2.1772325     103.3736   0.15375777 
   51600   -943.72713    51.851079   -891.87605    1857.1176    2241.1866    2.1718623    112.73925   0.14862404 
   51700   -939.73313    50.849355   -888.88378    1821.2395   -3983.3929    2.1485953    110.00493   0.13771052 
   51800   -939.29776    51.859045   -887.43872    1857.4029   -3046.0501    2.1469074    109.49871   0.16595195 
   51900   -946.52887    48.346417   -898.18246    1731.5933    9047.0795    2.1937481    102.78043   0.13974268 
   52000   -941.86531      50.3317   -891.53361     1802.699   -5309.6196    2.1485019    108.51545   0.15174998 
   52100   -936.22106    46.966045   -889.25502    1682.1534    -3599.277    2.1425193    103.16347   0.14249516 
   52200   -939.07445    47.533204   -891.54124     1702.467    10748.465    2.1819441    107.82812   0.14989162 
   52300   -946.18721    46.555813   -899.63139    1667.4604    5292.6193    2.1850485    100.85769   0.13800049 
   52400    -937.8003    47.681069   -890.11923     1707.763   -10351.903    2.1296964     103.1316   0.14952736 
   52500   -938.16813    49.115372   -889.05276    1759.1345    4861.8296    2.1673996    101.24237   0.16222217 
   52600   -944.51286    50.311249   -894.20161    1801.9665    7521.2947    2.1900945    108.58645    0.1464285 
   52700   -944.82189     45.55838   -899.26351    1631.7359   -8840.0602    2.1508597    104.66065   0.15558001 
   52800   -934.84529    46.430331   -888.41496    1662.9661   -3490.2033    2.1431833    109.19202    0.1695735 
   52900   -941.91479    53.452005   -888.46279     1914.457    10619.006     2.190277    95.470992   0.16462429 
   53000   -941.63405    49.464821   -892.16923    1771.6505   -3467.1786    2.1566798    99.172139   0.16501581 
   53100   -936.84295    51.494744    -885.3482     1844.355   -4726.3694    2.1443896    102.22451   0.15685632 
   53200   -935.38935    51.989065   -883.40029    1862.0598    2028.6302    2.1577108    103.99824   0.16109464 
   53300    -942.5329    51.717083   -890.81582    1852.3184     -511.054    2.1628912    108.73479   0.12328471 
   53400   -942.80726    51.656224   -891.15104    1850.1386   -2926.1138    2.1590948    104.23312   0.15393202 
   53500   -935.76076    53.915213   -881.84555    1931.0474    886.39498    2.1525483    102.21169   0.16876653 
   53600   -937.19426    49.744865    -887.4494    1781.6807    1914.5085     2.158182    111.01314    0.1634268 
   53700   -940.98559    48.852931   -892.13266    1749.7348   -2452.8459    2.1539323    109.56404   0.16391833 
   53800   -939.92944    52.160535   -887.76891    1868.2012    3487.8821     2.166558    117.84887    0.1468429 
   53900   -935.24962    54.087642   -881.16198    1937.2232    723.46272    2.1512011    107.76222   0.14359922 
   54000   -942.19997    49.645479   -892.55449     1778.121   -2302.4197    2.1586461    108.13898   0.13520003 
   54100   -939.13752    47.548343   -891.58918    1703.0092   -2523.2406    2.1540299    103.35612   0.14942023 
   54200   -936.58241    49.362405   -887.22001    1767.9823    8713.3307     2.176095    113.18627   0.15533578 
   54300   -941.94087     49.89563   -892.04524    1787.0805   -4861.1041    2.1513084    109.87919   0.16666748 
   54400    -940.6966    43.430912   -897.26569    1555.5378   -4667.9044    2.1549766     107.4096   0.15307738 
   54500    -937.2958    47.897864   -889.39794    1715.5278    12484.428    2.1924112     105.6775   0.17792453 
   54600   -936.31437    47.171741   -889.14263    1689.5207    412.30888    2.1527927    108.13825   0.16967615 
   54700   -937.99144    49.876494   -888.11494    1786.3951   -13361.246    2.1277963    105.55977   0.16683677 
   54800   -948.01744    49.449103   -898.56834    1771.0875    12207.133    2.2092568    107.15465   0.15124439 
   54900   -939.26928    48.360316   -890.90896    1732.0911    1606.8133    2.1642362    110.62226   0.14791741 
   55000   -938.56825    48.554624   -890.01363    1739.0506   -10181.117    2.1337289     102.5133    0.1614032 
   55100   -938.69318    50.167749   -888.52543    1796.8269    5460.0702    2.1723216    107.03234   0.15185188 
   55200   -949.12106    50.043516   -899.07755    1792.3773     1109.548    2.1809541    104.85766   0.14230197 
   55300    -942.3017    46.701025   -895.60068    1672.6613   -7589.0756    2.1488949    107.32155   0.16348523 
   55400   -940.93351    50.613824   -890.31968    1812.8036    3125.9132    2.1709048    105.10975   0.15946357 
   55500    -937.8756     49.65343   -888.22217    1778.4058    4725.2504    2.1719875    102.11049   0.17522256 
   55600   -937.46234    44.174209   -893.28814      1582.16   -5962.3973    2.1475889    103.62625   0.17270293 
   55700   -944.43825    47.553052    -896.8852    1703.1779    988.84137    2.1755764    96.014524   0.14979257 
   55800   -938.32672    49.354923    -888.9718    1767.7143    7377.2129    2.1758199     103.1339   0.16240125 
   55900   -936.96241    46.978501   -889.98391    1682.5995   -2658.4414    2.1477503    104.90864   0.14904512 
   56000   -942.51517    43.743891   -898.77128    1566.7476      -289.33    2.1658186    105.05651   0.12811092 
   56100   -942.53394    49.705904   -892.82804    1780.2852     4280.907      2.17553    104.91214   0.15131401 
   56200   -937.78897    49.381163    -888.4078    1768.6542    2483.1388    2.1630791    97.050576   0.15341413 
   56300   -939.56822    46.851165   -892.71706    1678.0388   -3500.5955    2.1495157    100.34373   0.16473382 
   56400   -946.73961    48.977104   -897.76251    1754.1822    723.98316    2.1776758    104.79329   0.16271526 
   56500   -936.79076    50.201618   -886.58914    1798.0399     1631.373    2.1572471    100.09085   0.14543738 
   56600   -939.27393    49.912598   -889.36133    1787.6882   -917.20887    2.1536606    105.19498   0.15029944 
   56700   -938.23048    45.374997   -892.85548    1625.1678     3403.395    2.1642159    103.40131   0.13665418 
   56800   -943.38604     46.78252   -896.60352    1675.5802      2532.14    2.1781169    101.74501   0.14831095 
   56900    -937.6063    52.527177   -885.07912     1881.333   -8156.9328    2.1340832    98.532601   0.15079032 
   57000   -937.93288    50.462057   -887.47082    1807.3679    8303.1717    2.1791663    106.51319   0.15941182 
   57100   -941.17116    51.514864   -889.65629    1845.0756     3039.391    2.1701744    104.98466   0.16387281 
   57200   -940.20766    46.526706   -893.68095    1666.4179   -11386.077      2.13286    113.37467   0.15864428 
   57300   -943.70725    47.784342   -895.92291    1711.4618     3495.753    2.1777015    102.72678   0.15786476 
   57400   -935.20051    50.453882   -884.74662    1807.0751    7586.8725    2.1681631     102.9106   0.15454012 
   57500   -938.33816    49.719686   -888.61848    1780.7788   -9266.3639    2.1358897    103.68239    0.1616859 
   57600   -938.92267    47.117489   -891.80518    1687.5776     2676.491    2.1659734    109.12342   0.14018687 
   57700   -944.98801    51.090935   -893.89708     1829.892    6994.1541    2.1904963    97.186002   0.13425683 
   57800   -937.83729     55.04158   -882.79571    1971.3898   -11692.056    2.1245541    103.62446   0.14962768 
   57900    -942.4833     51.99238   -890.49092    1862.1785   -2033.8279    2.1577733    106.95459   0.15288958 
   58000    -941.0657    49.912603    -891.1531    1787.6884    9598.5026    2.1865274    103.16623   0.16754148 
   58100   -932.58326    48.261765   -884.32149    1728.5614   -546.66363    2.1419302    101.28059   0.17574769 
   58200   -934.93585    49.776606   -885.15925    1782.8175   -6224.2415    2.1334698     104.3642   0.15646837 
   58300   -941.02219    50.127923   -890.89426    1795.4004    5501.3752    2.1764291    100.02709   0.14508153 
   58400   -941.01662    53.766077   -887.25055    1925.7059    2350.0909    2.1708663    101.51316    0.1386587 
   58500    -938.8732    52.838602    -886.0346    1892.4871   -12558.215    2.1261295    111.30799   0.14929082 
   58600   -942.65354    46.877978   -895.77557    1678.9992    5600.0126    2.1836627    100.44605    0.1454388 
   58700   -937.22451    48.747486   -888.47702    1745.9582    10695.941    2.1812908    105.87406   0.14229358 
   58800   -934.08827    44.890017   -889.19825    1607.7976   -5224.6928    2.1349545     106.5969   0.17529535 
   58900   -944.05189    45.493341   -898.55855    1629.4065   -1881.9984    2.1719977    108.11482   0.15545396 
   59000   -943.65994    51.215208   -892.44473     1834.343    5520.8247    2.1788779    100.10171   0.16331153 
   59100   -937.37044    49.205894   -888.16454    1762.3767   -1337.5526    2.1517383    112.33685   0.16475144 
   59200    -938.6207    50.128783   -888.49192    1795.4312    750.19451    2.1555745    113.18345   0.15650329 
   59300   -944.85004    46.401217   -898.44883    1661.9233    3220.1444    2.1832629    137.53001   0.15518064 
   59400   -936.70327    47.577537   -889.12573    1704.0549   -1095.7048    2.1491338     137.6684   0.16968451 
   59500   -938.82294    51.207481   -887.61546    1834.0663    1409.2469    2.1576629    110.57326    0.1625084 
   59600   -941.15535     46.62049   -894.53486    1669.7769    4010.6615     2.171991    98.221255   0.15432074 
   59700   -944.29827    47.851849   -896.44642    1713.8797   -3683.8945    2.1657465    100.05342   0.15575742 
   59800    -940.4898    52.195072   -888.29473    1869.4382   -4918.3166    2.1499724    103.47502   0.16321555 
   59900   -942.82662    51.956304   -890.87031    1860.8864    2279.2482    2.1688784    106.51165   0.16096566 
   60000   -940.41412    43.181693   -897.23243    1546.6116    3649.7488    2.1783959     101.2041   0.16543473 
   60100   -938.70397    51.848097   -886.85587    1857.0108   -7241.5585    2.1367307    105.83112   0.16935949 
   60200   -941.05277    52.973377   -888.07939    1897.3142    6021.3698    2.1794115    100.61265   0.16818594 
   60300   -940.45465    48.414833   -892.03982    1734.0437    2497.3893    2.1709698    110.46512    0.1569188 
   60400   -937.89398    47.922647   -889.97134    1716.4154   -11515.932    2.1237012      104.669   0.15481413 
   60500   -932.16491    49.750996   -882.41392    1781.9003    6939.1022    2.1551357    104.73446   0.15451012 
   60600   -941.19041     52.70781    -888.4826    1887.8026    11129.103     2.189203    104.62253   0.14903648 
   60700   -941.48827    48.573665    -892.9146    1739.7325   -9768.2992    2.1376652    111.49226   0.16017994 
   60800   -940.74121    55.102466   -885.63874    1973.5705   -7698.4401     2.141122    108.98686   0.14910817 
   60900   -940.40621    57.859379   -882.54683    2072.3131    8056.0947    2.1746445    105.19676   0.15024496 
   61000   -939.97337    48.211718   -891.76165    1726.7689    1352.4014    2.1605147    107.49574   0.14587904 
   61100   -939.85488     49.11755   -890.73733    1759.2125   -5396.9848      2.14757    105.01506   0.13490687 
   61200   -939.92362    54.910025    -885.0136     1966.678    211.41213     2.160341    107.33261   0.13483491 
   61300   -936.86327    51.610663   -885.25261    1848.5068   -1274.9797    2.1512423    110.98783   0.14950797 
   61400   -940.90861    47.407312    -893.5013     1697.958    -1355.884    2.1590693    100.50442   0.13502313 
   61500   -941.99755       51.738   -890.25955    1853.0675    1343.8568    2.1656462    107.50671   0.14783793 
   61600   -936.68726    49.378273   -887.30899    1768.5507    1971.2808    2.1528587    103.67558   0.14828854 
   61700   -934.06009    56.111482    -877.9486    2009.7098   -1014.2295    2.1372947    111.60069   0.15736287 
   61800   -938.88625    49.941138   -888.94511    1788.7105    3548.2461    2.1667146    109.64468   0.16283928 
   61900   -941.65162     51.12137   -890.53025    1830.9821   -4546.8882    2.1491371    112.46579   0.15557365 
   62000   -940.04281    49.803155   -890.23966    1783.7684    757.73771    2.1607124    103.69704   0.15003178 
   62100   -939.81138    43.052473   -896.75891    1541.9835    2541.8658    2.1694409    104.22907    0.1473749 
   62200   -944.31537    46.602811   -897.71256    1669.1437    -551.4234    2.1731714    100.94945    0.1373781 
   62300   -941.96576    51.350696   -890.61506    1839.1957   -361.89731    2.1625567    102.71833   0.14894188 
   62400   -939.65489    50.654998   -888.99989    1814.2783   -2132.4893    2.1554981    102.63777   0.14461955 
   62500    -939.8395    47.107794    -892.7317    1687.2304    -167.4421     2.162004    103.85607   0.16113767 
   62600   -944.77548    46.968724   -897.80676    1682.2494    5036.8863    2.1853946    101.46588   0.17593305 
   62700    -940.4673    51.079237   -889.38806     1829.473   -538.78895    2.1590168    104.45475   0.15639702 
   62800   -939.53396    50.059899   -889.47406     1792.964   -3598.7118     2.154107     103.4537    0.1855481 
   62900   -948.31647    50.886186   -897.43028    1822.5586   -1805.9852    2.1797724    108.42742   0.14497081 
   63000   -945.04689     50.49655   -894.55034    1808.6033    2113.9504     2.174561      104.727   0.16511773 
   63100   -940.39138    51.364684    -889.0267    1839.6967   -2109.2165    2.1531056    107.52791   0.14978814 
   63200   -939.14522    48.170598   -890.97462    1725.2961   -29.212498    2.1605232    96.599117   0.14869959 
   63300   -943.95421    45.521917    -898.4323      1630.43    2513.6552    2.1761665    102.45677   0.14915176 
   63400   -942.58369    51.128065   -891.45563    1831.2219    27.362138    2.1659788    111.40108   0.14184181 
   63500   -939.57102    50.987743   -888.58328     1826.196    2495.4133    2.1591929    112.31266   0.15863654 
   63600   -940.82696    49.365321   -891.46164    1768.0868   -2335.9562    2.1529763    111.77986   0.15897772 
   63700   -940.13267    44.839691   -895.29298    1605.9951    1185.9658    2.1681778    105.59345   0.17060017 
   63800   -947.36322    43.255377   -904.10784    1549.2507    5117.6329    2.1906473    103.64085   0.13249873 
   63900   -942.77859    49.351619   -893.42697     1767.596   -10588.351    2.1426415    100.96315   0.13387829 
   64000   -941.82385    50.438637   -891.38521     1806.529    1606.7019    2.1693098    102.88982   0.13947036 
   64100    -942.7745    54.626335   -888.14816    1956.5172    6861.5839    2.1810367    106.31324   0.15299607 
   64200   -936.97724    47.824413   -889.15283     1712.897   -8672.4649    2.1304896    114.31782   0.14123998 
   64300   -949.63462     51.01349   -898.62113    1827.1182   -3519.0866    2.1708072    104.12191   0.12467692 
   64400   -943.65141    53.484612    -890.1668    1915.6249    9611.0106    2.1877431    107.32954   0.14707887 
   64500   -938.66316    49.154906   -889.50825    1760.5505   -10064.121    2.1342466    101.04881   0.15737021 
   64600   -937.76021    49.671081   -888.08913     1779.038   -6248.3732    2.1369113    111.20518   0.16029357 
   64700   -949.01422    51.555688   -897.45854    1846.5378    15077.864    2.2135363    102.15659   0.13817713 
   64800   -940.59961    51.544419   -889.05519    1846.1342   -5508.5843    2.1448835     106.3232   0.13849717 
   64900    -938.4386    48.841167   -889.59743    1749.3135   -6256.4928    2.1418006    108.67759   0.13343864 
   65000   -939.31726    45.624122   -893.69313    1634.0906    6391.6071    2.1772122    103.53227   0.13665051 
   65100   -946.38478     46.69568    -899.6891    1672.4699    1421.9564    2.1773696    105.75467   0.12789937 
   65200   -939.88567    51.537549   -888.34812    1845.8881   -6589.2986    2.1400749    105.96243   0.14208969 
   65300   -941.38729    52.556706   -888.83058    1882.3906    1075.5645    2.1668761    114.68114   0.15865278 
   65400   -935.20608    46.310917   -888.89516    1658.6891    6955.5847    2.1644078    112.58781   0.16233906 
   65500   -935.20679    55.711759   -879.49503    1995.3932   -3801.0226    2.1343697    100.53597   0.13335559 
   65600   -943.85871    58.356612    -885.5021    2090.1222   -3945.6549    2.1539942    106.06203   0.14559973 
   65700   -939.54194    49.738924   -889.80302    1781.4679    2944.5652    2.1616389     103.4719   0.13446847 
   65800   -940.92069    50.164971   -890.75571    1796.7273   -578.09218    2.1600429      107.759   0.14672835 
   65900   -938.06855    51.156085   -886.91246    1832.2254    2414.5307    2.1597907    104.63776   0.16358357 
   66000   -934.70024    53.713659   -880.98658    1923.8285   -2150.7912    2.1378496    97.783386    0.1585924 
   66100   -938.15296    48.407619   -889.74534    1733.7854    4788.1651    2.1638658    99.904904    0.1643366 
   66200   -939.85578     49.58318    -890.2726    1775.8897    5807.4282    2.1774488    100.75322   0.16690455 
   66300   -936.76315    50.394614   -886.36854    1804.9523   -5261.5809    2.1404762    107.48801   0.17213991 
   66400   -935.27456    53.514593   -881.75996    1916.6987   -6687.4102    2.1307668    106.38975   0.15942798 
   66500    -936.0913    46.357629   -889.73367    1660.3622    15983.935    2.1973621    100.07393   0.17952665 
   66600   -939.35984    48.330699   -891.02914    1731.0304    1366.3096    2.1638125    104.53178    0.1800491 
   66700   -934.10504    49.331604   -884.77343    1766.8792   -10540.049    2.1204783     105.1081   0.17853707 
   66800   -938.22694    57.803502   -880.42344    2070.3118    2184.4679    2.1623879    103.34371   0.17731294 
   66900   -938.69158    48.838073   -889.85351    1749.2027    9726.3903    2.1840536     114.4297   0.16944984 
   67000   -936.98808    47.309294   -889.67878    1694.4473   -6773.4964    2.1386343    110.42823   0.17662557 
   67100   -935.18026     50.55304   -884.62722    1810.6266   -1175.4747    2.1467118    108.37726   0.19459744 
   67200   -938.03483    47.441541   -890.59329    1699.1839    10416.821     2.172964    116.47435   0.18491193 
   67300   -939.92805    46.852874   -893.07517       1678.1   -1494.5188    2.1629284    95.056879   0.16079048 
   67400   -937.68668    48.523341   -889.16334    1737.9301   -3867.7544    2.1510367    89.191141   0.18829629 
   67500   -936.79131    51.224095   -885.56721    1834.6613   -282.47472    2.1554342    92.358494   0.17440314 
   67600   -941.63926    46.058436   -895.58082    1649.6461    1140.8799    2.1713919    114.04475   0.17220085 
   67700   -939.93952    48.067949   -891.87157    1721.6196   -2815.1745    2.1511555    127.25236   0.15678037 
   67800   -942.45014    55.851574   -886.59856    2000.4009   -1733.7003    2.1592931     109.9367   0.16871897 
   67900   -940.21641    46.883726   -893.33269     1679.205    2646.6028     2.167617     115.2692   0.15634564 
   68000   -944.01286     48.68606    -895.3268    1743.7581   -2048.5583    2.1646066    115.77552    0.1713188 
   68100   -936.35692    49.862719    -886.4942    1785.9018   -816.99436    2.1482193    132.22099   0.16759144 
   68200   -941.11355      51.2748   -889.83875    1836.4774    1716.9313    2.1638721    115.25118    0.1845389 
   68300   -942.57072    47.487704   -895.08302    1700.8373    5859.1443    2.1725394    119.56001   0.17430952 
   68400   -938.72408    54.313979    -884.4101    1945.3297   -5021.3397    2.1382728    119.31639   0.17925185 
   68500   -938.72639     51.15108   -887.57531    1832.0462    5088.3902     2.165664    132.19733   0.16958966 
   68600    -943.3139     51.72923   -891.58467    1852.7534    2247.3565    2.1716585    113.43443   0.14564335 
   68700   -931.39863    46.565348   -884.83329    1667.8019   -5499.8738    2.1300952    122.18152   0.16507621 
   68800   -933.96357    51.424542   -882.53903    1841.8406    -735.8527    2.1403257    115.97595   0.15489216 
   68900   -938.05941    48.980698   -889.07871     1754.311      6570.75    2.1687864    137.03052   0.15722451 
   69000   -940.37011    49.762058   -890.60805    1782.2965   -3956.5377    2.1489912    132.67018   0.16695117 
   69100   -933.21334    52.339641    -880.8737    1874.6161    -4175.773    2.1310485    147.75827   0.17120233 
   69200   -939.37865    50.100305   -889.27835    1794.4112    7619.9445    2.1766606    146.19786   0.15338556 
   69300   -936.89352     45.52049   -891.37303    1630.3789   -731.33806    2.1501438    143.94159   0.13459491 
   69400   -935.52146    46.159514   -889.36195    1653.2664   -3202.3807    2.1436002    139.53543   0.13388972 
   69500   -936.07708    53.401458   -882.67562    1912.6466    7501.8066    2.1689677    142.77035   0.13049638 
   69600   -936.14134    53.559863   -882.58148    1918.3201   -4161.7578    2.1376877    143.43443   0.16676858 
   69700    -938.1412    47.447177   -890.69402    1699.3858   -6075.9724    2.1387309    146.03326   0.16275817 
   69800   -939.63936    49.775443   -889.86392    1782.7759    10184.021    2.1828399    140.13604   0.15764792 
   69900   -941.03545    47.757079   -893.27837    1710.4854    1986.0524    2.1659212    142.74663   0.15906387 
   70000   -947.79971    44.592384   -903.20732    1597.1375   -11110.787    2.1513966    146.68689   0.13277596 
   70100   -944.14596     48.99926    -895.1467    1754.9758    2745.3323    2.1717468    140.39923    0.1407314 
   70200   -945.19743    55.156594   -890.04083    1975.5092    6296.5627    2.1833881    137.67087   0.13565604 
   70300   -937.12663    46.992171   -890.13446    1683.0891   -5839.5545    2.1414363    131.41489   0.13736459 
[...]
  186800   -941.81137     50.72484   -891.08653    1816.7798    2727.6309    2.1668873    379.86231   0.14249478 
  186900   -939.19606    50.636002   -888.56006     1813.598   -6615.3391    2.1386678    390.26719   0.12772181 
  187000   -934.14824     53.89511   -880.25313    1930.3274   -4122.1984    2.1333071    392.66429   0.16833983 
  187100   -941.02511    52.783307    -888.2418    1890.5066    4786.6324    2.1721581    392.01526   0.15200278 
  187200   -940.74489    49.234202   -891.51069    1763.3906    98.811644    2.1592857    388.59262   0.15489401 
  187300   -941.43333    53.683103   -887.75023    1922.7341   -3787.5367    2.1528532    380.02871   0.14086282 
  187400   -935.05213    54.384876   -880.66725     1947.869   -2625.4115    2.1442962    393.10443   0.16036655 
  187500    -939.0977    48.357306    -890.7404    1731.9833    5514.3672    2.1719287    384.13011   0.15683306 
  187600   -942.90037    51.920849   -890.97952    1859.6165    -1474.692    2.1592511    394.73734   0.14313151 
  187700   -937.16744    52.951916   -884.21552    1896.5456   -2391.5661    2.1479272    394.83477   0.13557003 
  187800    -931.6232    47.826637   -883.79656    1712.9767    2317.9376    2.1483874    378.65863   0.16269871 
  187900   -941.51175    49.931434   -891.58031    1788.3629    2354.6812    2.1647718    379.29265   0.15328791 
  188000   -942.03735    52.245283   -889.79206    1871.2366   -112.97489    2.1629284    385.63056   0.15206034 
  188100   -938.41812    53.124757   -885.29336    1902.7361   -2251.0327    2.1466424    397.26038   0.15547262 
  188200   -932.91836    55.975185   -876.94318    2004.8281   -4411.7585    2.1304778     382.9449   0.16561764 
  188300   -938.48083    49.330492   -889.15034    1766.8393    11854.011    2.1842474    372.02374   0.15362162 
  188400   -940.68109    50.737711   -889.94338    1817.2408   -5078.3478    2.1498114    374.90655   0.12723452 
  188500   -941.30814    49.965702   -891.34244    1789.5903   -11013.153    2.1335602     370.7991   0.16868349 
  188600   -945.39988     46.72811   -898.67177    1673.6314    12320.033    2.2007352    370.89514   0.14650858 
  188700   -945.03343    47.748413   -897.28502     1710.175    4229.9796    2.1854696    383.69811   0.13542853 
  188800   -940.57948    48.991068   -891.58841    1754.6824   -13425.863    2.1323635    384.96078   0.15572393 
  188900    -943.4013     53.59225   -889.80905    1919.4801   -490.31082    2.1639716     369.6411   0.14885798 
  189000   -942.75661    52.708043   -890.04857    1887.8109     10195.63    2.1898661    382.04987   0.14573208 
  189100   -935.72464    58.089348   -877.63529    2080.5498   -10228.799     2.119523    381.74932    0.1600613 
  189200   -935.14425    48.157638   -886.98661    1724.8319    3361.5369    2.1599223    375.28339   0.15793602 
  189300   -937.03474    47.113708   -889.92103    1687.4422    6312.7425    2.1723437    391.36576   0.14528518 
  189400   -944.40652     51.77474   -892.63178    1854.3834   -5171.8591    2.1543408    385.66971   0.14006118 
  189500   -939.90157    53.094144   -886.80742    1901.6397   -110.97472    2.1584592    377.07725   0.16313112 
  189600   -934.90205    51.120466   -883.78159    1830.9497    2112.1827    2.1518566    380.68291   0.15751001 
  189700    -939.8191    49.110067   -890.70903    1758.9445   -2112.6207    2.1540315    394.57273   0.14214799 
  189800   -941.07944    49.251618   -891.82783    1764.0144    125.80252    2.1626368    378.81874   0.16437115 
  189900   -935.44144    54.002627   -881.43882    1934.1782    1054.3327    2.1488218    383.28319   0.14021687 
  190000   -938.13451    50.676685   -887.45782    1815.0551    790.83561    2.1579099     386.1688   0.13918066 
  190100   -938.95984    46.673783   -892.28605    1671.6856   -2368.1369    2.1547808    385.80407   0.17210903 
  190200   -936.15587    48.597148   -887.55872    1740.5736    6130.9799    2.1654803    388.65281   0.16144021 
  190300   -934.17786    53.118758    -881.0591    1902.5213    358.45183    2.1460386    383.59685   0.13873937 
  190400   -941.98713    49.428868   -892.55826    1770.3628   -1728.5663    2.1621288    390.61836   0.15717226 
  190500   -941.94815    51.249508   -890.69865    1835.5715    1063.6573    2.1674277     380.9307   0.13437343 
  190600   -936.54801    49.900402   -886.64761    1787.2514    3082.3306    2.1590436    369.73911   0.15514004 
  190700   -934.01024    53.515071   -880.49517    1916.7158   -5538.4978    2.1306227     384.7306   0.16927329 
  190800   -942.37589    50.076683   -892.29921    1793.5652     8509.942    2.1900247    395.49148   0.14836604 
  190900    -941.0902    50.978904    -890.1113    1825.8795    636.31943    2.1646293    392.98377   0.15115525 
  191000   -938.88795    49.345157   -889.54279    1767.3646   -11942.102    2.1285138    393.48224    0.1567975 
  191100   -943.60748    45.290448   -898.31703    1622.1396    5673.3353    2.1866177    370.14023   0.14951708 
  191200   -943.81017    48.236412   -895.57376    1727.6534    8268.6973    2.1921649    385.69165   0.13781074 
  191300    -939.6878    49.332914   -890.35488    1766.9261   -8690.8858    2.1395116    381.94994    0.1633397 
  191400   -941.50268    52.109815   -889.39287    1866.3846   -4455.4823    2.1518552     379.7705   0.15303494 
  191500    -947.5211    50.014189   -897.50691    1791.3269    10696.104    2.2011169    380.29508   0.14216448 
  191600   -939.94982    47.920861   -892.02896    1716.3514   -3159.0799    2.1591402    392.01734   0.15108937 
  191700   -937.89309     48.58642   -889.30667    1740.1894    -4493.264    2.1448595    384.40146   0.15554838 
  191800   -942.46325    52.315247     -890.148    1873.7424    6888.7823    2.1798572    384.00845   0.15271758 
  191900   -945.77121     48.15319   -897.61802    1724.6726    670.65823    2.1785959    390.05188   0.13704016 
  192000   -940.55665    47.190067   -893.36658    1690.1771   -3480.0185    2.1519102    386.27931   0.13383781 
  192100    -937.3613    48.406577   -888.95472     1733.748    4055.5203    2.1714377    360.56987   0.15804412 
  192200   -937.68049    47.562557   -890.11793    1703.5183     1177.084    2.1661003    377.98975   0.14321846 
  192300   -941.29637    47.782457   -893.51391    1711.3943   -8690.9736    2.1424421    375.87546   0.13951957 
  192400   -950.09485    48.119357   -901.97549    1723.4608    6346.2219    2.1960874    378.32509   0.13109994 
  192500   -942.41328    51.013453   -891.39983    1827.1169     6405.433    2.1783903    387.89848   0.12961349 
  192600   -940.05047    49.490249   -890.56022    1772.5613   -14855.999    2.1208936     385.1426   0.14510164 
  192700   -939.91122    49.741782   -890.16944    1781.5702    2209.7553     2.159522    373.69455    0.1319789 
  192800   -944.14227    49.284577    -894.8577    1765.1948    14452.956    2.2013413    377.20374    0.1266269 
  192900   -948.13141     48.01941     -900.112    1719.8811   -11330.327    2.1460065    385.12936   0.12728168 
  193000   -936.21308    46.842136   -889.37095    1677.7154   -5416.9062    2.1399106    374.40864   0.13965961 
  193100   -940.46688    51.795671   -888.67121    1855.1331    14947.906    2.1953371    375.29164   0.13530133 
  193200   -941.19755     50.67821   -890.51934    1815.1097   -4359.2106    2.1462141    397.21798   0.13039316 
  193300   -936.42284    46.530032    -889.8928     1666.537   -5787.2087    2.1356998    384.58284    0.1514296 
  193400   -946.70683     46.10075   -900.60608    1651.1617    11656.447    2.2003988    373.65479   0.13956947 
  193500   -940.78949     48.36684   -892.42265    1732.3248   -363.88221    2.1558709    392.30391   0.12244464 
  193600   -938.64241    48.215192   -890.42722    1726.8933   -2401.0145    2.1490746    378.18832   0.16256144 
  193700   -944.95213    55.691317   -889.26082     1994.661    1242.2331    2.1690294    375.44026   0.14384252 
  193800   -944.50016    45.295217   -899.20495    1622.3104    1155.8888     2.173451    380.57649   0.13991166 
  193900   -944.98293    49.915887   -895.06704     1787.806   -8246.6794    2.1495871    384.37859   0.15457339 
  194000   -940.29699    50.705581   -889.59141      1816.09    5812.2477    2.1711494    383.97196   0.13545546 
  194100   -939.34558    50.051739   -889.29384    1792.6718    4609.8501    2.1643294    395.91838    0.1534275 
  194200   -942.90459    48.197236   -894.70736    1726.2502   -11092.044    2.1373807    396.84506    0.1562123 
  194300   -942.98548    45.822841   -897.16264     1641.208    5850.3066    2.1813267     376.7238   0.15704027 
  194400   -939.69747    51.058462   -888.63901    1828.7289    10134.605    2.1808201    378.84875   0.15079199 
  194500   -938.80715    48.551487   -890.25566    1738.9382   -12790.027     2.124828    372.65771   0.16568463 
  194600   -939.87266    50.203217   -889.66944    1798.0972   -476.48911    2.1562064    378.04571   0.14960761 
  194700   -946.43741    46.424191   -900.01322    1662.7462    16031.564    2.2141814    376.20768   0.12930548 
  194800   -940.73535    48.934537   -891.80081    1752.6577    -8927.024    2.1409052    377.60198   0.16093199 
  194900   -939.01388    49.215877     -889.798    1762.7342   -2295.3546    2.1527198    388.95645    0.1477757 
  195000   -941.03758    50.865608   -890.17198    1821.8216     4052.481     2.174051    386.06224   0.14715495 
  195100   -944.39699    44.139786   -900.25721    1580.9271    19.384718    2.1732631    378.19586   0.14932476 
  195200   -942.54529    48.827369   -893.71792    1748.8193   -6308.3057    2.1500368    365.59905   0.15149127 
  195300   -943.07414    53.545088   -889.52905    1917.7909    4206.5889    2.1781253    369.54387   0.16655404 
  195400   -939.74258    48.772319   -890.97026    1746.8476    808.62113    2.1656728    374.34419   0.14680088 
  195500   -946.40185    47.552394   -898.84946    1703.1543   -9439.3957    2.1498772     379.7612   0.12894431 
  195600   -942.67062    47.116568   -895.55405    1687.5446    6111.3993    2.1815873    393.02814   0.15259176 
  195700   -936.11378    47.183608   -888.93018    1689.9457    9396.7314    2.1781497    382.02398   0.15078323 
  195800   -940.14241    48.775405   -891.36701    1746.9581    -8948.451    2.1367968    384.78149   0.17955012 
  195900   -942.58143    48.778042   -893.80339    1747.0526   -1600.4323    2.1653524     373.2105   0.14608615 
  196000   -947.23639    45.005443   -902.23095    1611.9318    11510.476    2.2091015    369.34701   0.13865485 
  196100   -940.17918    48.051987   -892.12719    1721.0479   -10299.933     2.137831    380.69557    0.1531295 
  196200   -939.68938    48.953098   -890.73628    1753.3225   -2714.5477    2.1548264    374.82628   0.14989444 
  196300    -939.4943     51.59393   -887.90037    1847.9075    8509.4744    2.1790185      372.688   0.14969602 
  196400   -935.93184    56.406932   -879.52491    2020.2918   -5044.6102    2.1374273    385.14843   0.15429547 
  196500   -939.64808    53.503882    -886.1442     1916.315   -5299.9514    2.1404624    386.45834   0.13426931 
  196600   -941.32248    51.469175    -889.8533    1843.4392    1955.2519      2.16542    382.56394   0.14112981 
  196700   -940.44787    49.813801   -890.63407    1784.1497    2746.8832    2.1653481    389.13701   0.14478193 
  196800   -941.10566    50.188787   -890.91688    1797.5803   -2916.2318    2.1516745    383.82413   0.13634809 
  196900    -932.3613    53.533031   -878.82827     1917.359    2463.1736    2.1458247    379.60614   0.16601548 
  197000   -936.15771    51.775412    -884.3823    1854.4075    4576.4889    2.1631767    370.57659   0.15186352 
  197100   -942.01978    51.920809   -890.09897    1859.6151    -7948.001     2.146462    380.32907   0.14280019 
  197200    -939.9313    48.222131   -891.70917    1727.1419    1766.3945     2.161317    387.28952    0.1435791 
  197300   -941.89939      52.0397   -889.85969    1863.8733    6492.2599    2.1786671    392.26821   0.15113253 
  197400   -932.88028    50.776804   -882.10347     1818.641   -7128.6798    2.1262552    389.57488      0.16365 
  197500   -942.86177    52.031681   -890.83009    1863.5861   -3778.0256    2.1564225    382.89187   0.15579491 
  197600    -944.0134    53.674457   -890.33894    1922.4244    7314.6821    2.1846987    377.78265   0.14510512 
  197700   -938.09554    53.293247    -884.8023    1908.7709   -1930.7705    2.1434733    389.83673   0.17250742 
  197800   -938.31296    54.289242   -884.02372    1944.4438   -8832.0764    2.1316366     376.5867    0.1349312 
  197900   -942.73538     51.61231   -891.12307    1848.5658    3771.1719    2.1730786    366.36574   0.14049516 
  198000   -940.32179    50.162151   -890.15964    1796.6263    2396.6368    2.1650929    388.25052   0.15313547 
  198100   -935.24148    53.500746   -881.74074    1916.2027   -3517.1917    2.1371722    391.12589     0.135853 
  198200   -943.02409    51.247765   -891.77632    1835.5091    948.89367    2.1652895    380.88668    0.1498568 
  198300   -942.92672    50.984666   -891.94205    1826.0858   -1751.2475    2.1606341    387.34081   0.13830685 
  198400    -938.8452    50.913646   -887.93155    1823.5421    897.17386    2.1552503    377.51562   0.12718203 
  198500   -938.64963    55.236842   -883.41278    1978.3834     -568.781    2.1507398    395.06175   0.14967122 
  198600    -940.6693    46.021225   -894.64808    1648.3134    4910.6483    2.1700563    371.81719   0.15267125 
  198700   -941.54613    49.168636   -892.37749    1761.0422   -5680.7898    2.1453119    383.45527   0.13341241 
  198800   -940.64156    51.468152   -889.17341    1843.4026    1039.7911    2.1628883    375.76495   0.15516543 
  198900   -941.18626    50.444522   -890.74174    1806.7398    7018.5641    2.1784946    385.85061   0.13356573 
  199000    -942.6148    43.398165   -899.21663    1554.3649   -2601.5138    2.1597244    381.32305    0.1366835 
  199100   -940.19616    47.797782   -892.39838    1711.9432   -3382.7754     2.148397    380.84829   0.14056862 
  199200   -938.63769    50.706121   -887.93157    1816.1094    11186.045    2.1823607    367.41716   0.15197822 
  199300   -942.26955    48.457808   -893.81174     1735.583   -2182.7807    2.1589124     381.6114   0.14299224 
  199400    -945.0521    45.328116   -899.72399    1623.4887   -9628.1606    2.1450411    376.14057   0.13770845 
  199500   -942.34551    52.158973   -890.18654    1868.1452    7027.5761    2.1795444    378.49373   0.14758998 
  199600   -938.09865    49.202895   -888.89575    1762.2693    8197.7683     2.175243    383.91535   0.14709175 
  199700   -942.00014    48.669635   -893.33051    1743.1698   -14033.297    2.1318286    387.09669   0.15493885 
  199800   -947.83293    48.310929   -899.52201    1730.3223    1320.3002    2.1818178    379.39063   0.12766658 
  199900   -943.72647    53.642409   -890.08406    1921.2766      9996.43    2.1930391    384.97175   0.15007334 
  200000   -937.73048    48.191766   -889.53871    1726.0543   -4319.3838    2.1462177    383.89308   0.16009788 
  200100   -936.77151    45.625474   -891.14603     1634.139   -3589.5978    2.1484165    385.81061   0.15394743 
  200200   -940.00841    48.769341   -891.23907    1746.7409    5686.6231     2.182125    370.58107   0.16725793 
  200300     -931.662    51.611047   -880.05095    1848.5205   -2481.6258    2.1334403    386.35151   0.17462245 
  200400   -940.36752    51.658353   -888.70916    1850.2149    970.92778    2.1589284    389.99283   0.15421145 
  200500   -940.67499    49.454368   -891.22062    1771.2761    2146.4092    2.1646902    387.22714   0.16100355 
  200600   -936.64926      47.3784   -889.27086    1696.9225    859.85184    2.1579269    380.97645   0.15378287 
  200700   -932.03056    51.418038   -880.61252    1841.6077   -949.53149    2.1356962     383.0641   0.16882449 
  200800   -942.39858    51.953637   -890.44495    1860.7908    3397.1264    2.1739909     379.8232   0.14948392 
  200900   -941.13171    49.983687   -891.14802    1790.2344    883.40164    2.1677045    377.29029   0.15066945 
  201000    -937.3141     53.66984   -883.64426     1922.259   -5564.8902    2.1418756    385.80324   0.16431723 
  201100   -937.04091    51.740894   -885.30002    1853.1712   -2412.7963      2.15388    342.92486   0.18638906 
  201200   -937.22913    46.364392   -890.86474    1660.6044    3792.8762    2.1709601    356.54182   0.16358651 
  201300   -936.26669    48.738645   -887.52805    1745.6415     -2356.76    2.1545112    347.70456   0.17152342 
  201400   -935.55275    53.173561   -882.37919    1904.4841    -8380.554    2.1336234     362.5366    0.1731638 
  201500   -943.68759    49.676862   -894.01073     1779.245    9565.6214    2.1911817    339.62284   0.15870999 
  201600   -939.98102    50.136383   -889.84464    1795.7034   -2203.1029    2.1560998     329.2375   0.17588969 
  201700    -937.9975    50.206281   -887.79122    1798.2069   -8067.3276    2.1315081     327.3425   0.16221558 
  201800   -944.27853    48.666183   -895.61234    1743.0462    6955.1899    2.1877511    301.14042   0.16739488 
  201900   -942.37911    48.887773   -893.49133    1750.9827    4642.2862    2.1775028    322.82331   0.17226707 
  202000   -934.59243    46.185301   -888.40713      1654.19   -7382.8476    2.1299276     321.4624   0.19729872 
  202100   -937.11155     49.23691   -887.87464    1763.4876    2264.8781    2.1571202    324.70347   0.18324954 
  202200   -945.91969    50.022547   -895.89714    1791.6262    12447.679    2.1992043    304.97251   0.16502728 
  202300   -938.18887    51.475698   -886.71317    1843.6728   -8742.5432    2.1302304    303.49834   0.16890904 
  202400   -940.58917    52.761645   -887.82753    1889.7308   -2953.1202    2.1498406    309.06095   0.18356459 
  202500   -943.84821    52.683053   -891.16516    1886.9159     6053.002    2.1839551    313.11944   0.16582446 
  202600   -941.93799    45.410566   -896.52742    1626.4418   -3134.3775    2.1554262    307.19995   0.15605615 
  202700   -937.94348    52.655731   -885.28775    1885.9373   -3735.7621    2.1364018    333.19936   0.17279126 
  202800   -938.00484     51.50943   -886.49541     1844.881    11481.487    2.1842771      327.457   0.18710123 
  202900   -939.21677    47.877457   -891.33932    1714.7969   -4138.0803    2.1499529    330.80108   0.18100196 
  203000   -936.60386    50.880771   -885.72309    1822.3647   -2661.1238    2.1421774    300.49626    0.1860731 
  203100   -931.99358    52.229911   -879.76367     1870.686    3475.5278    2.1487029    319.28837   0.18136721 
  203200   -937.92642     48.21562    -889.7108    1726.9086    3179.5114    2.1693953    296.11469   0.18630618 
Loop time of 140.748 on 1 procs for 200000 steps with 217 atoms

Performance: 368.318 ns/day, 0.065 hours/ns, 1420.982 timesteps/s
100.0% CPU use with 1 MPI tasks x no OpenMP threads

MPI task timing breakdown:
Section |  min time  |  avg time  |  max time  |%varavg| %total
---------------------------------------------------------------
Pair    | 133.99     | 133.99     | 133.99     |   0.0 | 95.20
Neigh   | 3.5951     | 3.5951     | 3.5951     |   0.0 |  2.55
Comm    | 0.95049    | 0.95049    | 0.95049    |   0.0 |  0.68
Output  | 0.070692   | 0.070692   | 0.070692   |   0.0 |  0.05
Modify  | 1.8313     | 1.8313     | 1.8313     |   0.0 |  1.30
Other   |            | 0.3078     |            |       |  0.22

Nlocal:    217 ave 217 max 217 min
Histogram: 1 0 0 0 0 0 0 0 0 0
Nghost:    953 ave 953 max 953 min
Histogram: 1 0 0 0 0 0 0 0 0 0
Neighs:    4184 ave 4184 max 4184 min
Histogram: 1 0 0 0 0 0 0 0 0 0
FullNghs:  8368 ave 8368 max 8368 min
Histogram: 1 0 0 0 0 0 0 0 0 0

Total # of neighbors = 8368
Ave neighs/atom = 38.5622
Neighbor list builds = 6133
Dangerous builds = 119
Total wall time: 0:02:23
