LAMMPS (3 Mar 2020)

# ---------- 1. Initialize simulation ----------
units metal
atom_style atomic
dimension 3
boundary p p p
read_data /home/modeler/RemLabs/Project/arrhenius_4/T1400.0/n3_T1400.0_timestep3.000000e-03_eqsteps3200_time600_rseed3320/20201205-103550/lammps.data
  orthogonal box = (0 0 0) to (17.469 17.469 17.469)
  1 by 1 by 1 MPI processor grid
  reading atoms ...
  217 atoms
  read_data CPU = 0.000996217 secs

pair_style meam/c
pair_coeff * * library.meam Li Si LiSi.meam Li Si
Reading potential file library.meam with DATE: 2012-06-29
Reading potential file LiSi.meam with DATE: 2020-11-07

group Li type 1
1 atoms in group Li
group Si type 2
216 atoms in group Si

velocity all create 1400.0 3320 dist gaussian

# ---------- 2. Specify equilibration ensemble  ----------
fix 1 all npt temp 1400.0 1400.0 0.15 tchain 2 iso 1.0 1.0 1.0 pchain 2
# fix 1 all nvt temp 1400.0 1400.0 0.15

# ---------- 3. Run equilibration -------------
timestep 0.003
run 3200
Neighbor list info ...
  update every 1 steps, delay 10 steps, check yes
  max neighbors/atom: 2000, page size: 100000
  master list distance cutoff = 6
  ghost atom cutoff = 6
  binsize = 3, bins = 6 6 6
  2 neighbor lists, perpetual/occasional/extra = 2 0 0
  (1) pair meam/c, perpetual
      attributes: full, newton on
      pair build: full/bin/atomonly
      stencil: full/bin/3d
      bin: standard
  (2) pair meam/c, perpetual, half/full from (1)
      attributes: half, newton on
      pair build: halffull/newton
      stencil: none
      bin: none
Per MPI rank memory allocation (min/avg/max) = 8.895 | 8.895 | 8.895 Mbytes
Step Temp E_pair E_mol TotEng Press Volume 
       0         1400   -951.04357            0    -911.9553   -116399.41    5330.9442 
    3200    1479.2931   -954.73951            0   -913.43736    8188.6208    4556.4751 
Loop time of 2.32648 on 1 procs for 3200 steps with 217 atoms

Performance: 356.522 ns/day, 0.067 hours/ns, 1375.469 timesteps/s
100.0% CPU use with 1 MPI tasks x no OpenMP threads

MPI task timing breakdown:
Section |  min time  |  avg time  |  max time  |%varavg| %total
---------------------------------------------------------------
Pair    | 2.2681     | 2.2681     | 2.2681     |   0.0 | 97.49
Neigh   | 0.010034   | 0.010034   | 0.010034   |   0.0 |  0.43
Comm    | 0.014055   | 0.014055   | 0.014055   |   0.0 |  0.60
Output  | 2.4056e-05 | 2.4056e-05 | 2.4056e-05 |   0.0 |  0.00
Modify  | 0.02939    | 0.02939    | 0.02939    |   0.0 |  1.26
Other   |            | 0.004877   |            |       |  0.21

Nlocal:    217 ave 217 max 217 min
Histogram: 1 0 0 0 0 0 0 0 0 0
Nghost:    957 ave 957 max 957 min
Histogram: 1 0 0 0 0 0 0 0 0 0
Neighs:    4189 ave 4189 max 4189 min
Histogram: 1 0 0 0 0 0 0 0 0 0
FullNghs:  8378 ave 8378 max 8378 min
Histogram: 1 0 0 0 0 0 0 0 0 0

Total # of neighbors = 8378
Ave neighs/atom = 38.6083
Neighbor list builds = 17
Dangerous builds = 1

# ---------- 4. Describe computed properties----------
compute msdli Li msd
compute msdsi Si msd
thermo_style custom step pe ke etotal temp press density c_msdli[4] c_msdsi[4]
thermo 100

# ---------- 3. Run production -------------
timestep 0.003
run 200000
Per MPI rank memory allocation (min/avg/max) = 9.666 | 9.666 | 9.666 Mbytes
Step PotEng KinEng TotEng Temp Press Density c_msdli[4] c_msdsi[4] 
    3200   -954.73951    41.302147   -913.43736    1479.2931    8188.6208    2.2134013            0 1.0898267e-31 
    3300    -947.6117    41.892971   -905.71873    1500.4543    2839.9937    2.1885036     0.180457  0.097857042 
    3400   -950.29456     37.42517   -912.86939    1340.4339   -3301.6156    2.1789226  0.086360233  0.084064301 
    3500   -957.00848    41.223748   -915.78474    1476.4852   -6213.6948    2.1846444  0.057366949  0.087974013 
    3600   -955.79885    39.841126   -915.95772    1426.9647    1455.4469    2.2053904  0.039109717  0.097749295 
    3700    -951.3687    44.076652   -907.29205    1578.6658    5258.7693     2.198239   0.21768672  0.079579746 
    3800   -955.31074    42.373998   -912.93674    1517.6829    1466.2507     2.198983  0.019853203  0.095939661 
    3900     -957.437     40.97772   -916.45928    1467.6733   -7560.6225    2.1822242  0.031835973  0.096292449 
    4000   -952.73868    38.588623   -914.15006    1382.1045   -5479.9914    2.1783805  0.056628704   0.10688073 
    4100   -950.53483    42.811649   -907.72319     1533.358   -463.27833     2.184612  0.064070054    0.0881374 
    4200   -955.52788    39.823439   -915.70444    1426.3312    7853.1754        2.218   0.23530961  0.083746956 
    4300   -955.26148    39.576668   -915.68481    1417.4927     4012.503    2.2080175  0.078811892  0.076442959 
    4400   -951.90032     40.80299   -911.09734    1461.4151   -6652.6671    2.1743523  0.064033187  0.087428814 
    4500   -951.79573     41.11893    -910.6768     1472.731   -7691.8048    2.1672307   0.26917293  0.098158956 
    4600   -954.83939    38.051874   -916.78752    1362.8801    1484.9442    2.2017023  0.043033194  0.079926071 
    4700   -952.86581    38.578949   -914.28687     1381.758    10609.126    2.2216803  0.017564127  0.097908153 
    4800   -954.94635    43.464069   -911.48228    1556.7253    1944.5311    2.1991153   0.18207504   0.10345479 
    4900   -949.11798    41.467616   -907.65037    1485.2196   -7389.8082    2.1601739  0.094289335   0.11464213 
    5000   -950.17623    33.697894   -916.47834    1206.9364   -1259.2636    2.1851455   0.21955035  0.089255519 
    5100   -952.46653    37.042576   -915.42396    1326.7307    9678.9923    2.2157483   0.11668853  0.088395735 
    5200   -953.84517    39.836998   -914.00817    1426.8168     9508.475    2.2162547   0.15367535  0.093569102 
    5300   -948.24928    42.270113   -905.97916    1513.9622   -3133.5679    2.1743002  0.049279082  0.098490434 
    5400   -953.43333    40.159769   -913.27356    1438.3773   -8287.7566    2.1740389  0.030447003  0.096895274 
    5500   -954.56256    39.080233   -915.48232    1399.7122    -5420.954    2.1831673  0.030012932  0.084376023 
    5600    -954.0904    38.945468   -915.14493    1394.8854     3936.718     2.208585  0.015484353  0.081818818 
    5700   -954.12748     38.27305   -915.85443    1370.8018    10463.245    2.2198409  0.046607209  0.091332698 
    5800   -958.91437    35.692088   -923.22228    1278.3612    2618.7351    2.2168445   0.12844333  0.093028738 
    5900   -957.57831    39.866743   -917.71156    1427.8822    -8586.789    2.1808481  0.061695128  0.093859561 
    6000   -951.99405    36.799806   -915.19425    1318.0356   -6277.5738    2.1755816   0.17940745   0.09975905 
    6100   -952.76389    39.596335   -913.16755    1418.1971    3250.4366    2.1994609  0.033591487   0.10314928 
    6200   -959.54118     37.99711   -921.54407    1360.9187    9208.7734    2.2305979  0.068802506   0.10149559 
    6300   -957.79182    40.091897   -917.69992    1435.9463   -404.25277    2.1998801  0.032271877  0.095717112 
    6400   -952.94846     38.43322   -914.51524    1376.5385   -7989.1872    2.1722914  0.099560533  0.098517123 
    6500   -953.94798    38.721788   -915.22619     1386.874   -6105.4377    2.1808419  0.070375298  0.097083491 
    6600   -959.61472    37.808253   -921.80647    1354.1545    5335.2244    2.2222383  0.027829675  0.089696709 
    6700   -956.98147    42.723251   -914.25822    1530.1919      6330.28    2.2156372  0.078941849   0.11308064 
    6800   -955.80844     41.24447   -914.56397    1477.2274   -1608.5961    2.1954826  0.040061877  0.098664061 
    6900    -953.3622    34.499031   -918.86317    1235.6302   -5150.3515    2.1842656  0.089589731   0.08421107 
    7000   -953.79356    34.129107   -919.66446    1222.3808   -1867.0177    2.1950438  0.069307306  0.092080154 
    7100   -953.37972    40.073354   -913.30637    1435.2822    5245.8927    2.2069438  0.047626262   0.10726178 
    7200   -953.91988    38.643752   -915.27612    1384.0791    5613.4035    2.2114907   0.11702376   0.10795346 
    7300   -957.50809    38.782119   -918.72597    1389.0349   -755.50188    2.1987019  0.040116231   0.09569591 
    7400   -953.48234    40.658855   -912.82349    1456.2527   -5998.9897    2.1764993   0.07322784    0.1080901 
    7500   -953.01744     40.75539   -912.26205    1459.7103   -1774.5266     2.189252  0.035216381   0.10520641 
    7600   -954.32324     39.00572   -915.31752    1397.0434    8024.4118    2.2150805  0.011046275   0.10571907 
    7700   -956.45568     39.56082   -916.89486    1416.9251     5689.568    2.2176532 0.0083025605   0.10823003 
    7800   -947.26494    39.324545   -907.94039    1408.4626   -4466.8196    2.1696301  0.083821382   0.10111324 
    7900   -951.27821    37.264494   -914.01371     1334.679   -8775.4475    2.1684845  0.064999145  0.094613395 
    8000   -954.38951    38.013834   -916.37567    1361.5177    1540.2746    2.2006721  0.032616114  0.095759214 
    8100   -952.57857    39.467328   -913.11124    1413.5766    15801.247    2.2348093   0.14858307  0.098889898 
    8200   -948.79293    41.075293   -907.71763     1471.168    8288.1707    2.2033201   0.11973908   0.10055589 
    8300   -953.20275     37.13249   -916.07026    1329.9511   -6795.8041    2.1780135 0.0069143908   0.09819597 
    8400   -952.43776    36.516107   -915.92165    1307.8745   -8406.9113    2.1764302  0.075417326   0.10591901 
    8500   -955.10649    42.534949   -912.57154    1523.4476    709.16625    2.1957144   0.03831695   0.10790761 
    8600     -949.485    43.261939   -906.22306    1549.4858    6027.9849    2.2021444  0.023891933   0.11926687 
    8700   -953.32408    38.162779    -915.1613    1366.8523     4929.342    2.2096908    0.1745039    0.1126673 
    8800   -956.42007    40.775543   -915.64453    1460.4321   -5409.7896    2.1863137  0.095456499  0.093325463 
    8900   -954.67246    39.461989   -915.21047    1413.3853   -5450.5115    2.1814019   0.10693758  0.095012401 
    9000     -955.915    38.813717   -917.10129    1390.1666   -980.90482    2.2003107  0.049979818  0.093478136 
    9100   -960.06966    37.727999   -922.34166    1351.2801    6312.3577    2.2265407  0.036217903  0.090710902 
    9200   -955.52011    38.990493   -916.52961    1396.4981    3300.2185    2.2096303   0.05817906   0.10113603 
    9300   -954.83988    40.240062   -914.59982    1441.2531   -4041.0754    2.1871283  0.017244253  0.090320623 
    9400    -955.0178    40.207354   -914.81045    1440.0816   -7460.6624     2.180034  0.043689129  0.095717962 
    9500   -956.98709    34.854624   -922.13247    1248.3662    3261.4275    2.2129735    0.1069621  0.093557793 
    9600    -952.9874    37.523939   -915.46346    1343.9714    7289.6851    2.2120566  0.089619768  0.098712239 
    9700   -952.95687    38.553521   -914.40335    1380.8473     964.5904     2.200218   0.18951875  0.093779918 
    9800   -955.41054    36.528499   -918.88204    1308.3184   -4645.0858    2.1910252  0.039360497   0.10041256 
    9900   -959.20118    38.810336   -920.39084    1390.0455   -3786.3491    2.1965921  0.002624202   0.10010278 
   10000   -954.13463    39.876114   -914.25852    1428.2178    554.79278    2.1987873   0.10632663   0.10105692 
   10100   -955.56526    40.227085   -915.33817    1440.7883    2915.5081      2.20315  0.042385307   0.10600527 
   10200   -958.07299    36.823291    -921.2497    1318.8767    622.08325    2.2068037  0.074110792  0.084540148 
   10300   -952.79159    37.590284   -915.20131    1346.3476    1462.7832    2.1940011   0.15229966  0.089580438 
   10400   -955.34283     41.20544   -914.13739    1475.8294   -103.20254    2.1964844   0.13345124  0.099208756 
   10500   -954.94325    38.559918   -916.38333    1381.0764    2406.8963    2.2019142   0.10101395  0.090515235 
   10600   -958.15527    37.734735   -920.42054    1351.5214   -491.21477    2.2032743   0.13224188  0.092038187 
   10700   -960.82474    36.225612   -924.59913      1297.47    354.64772    2.2118045 0.0020011527   0.08561307 
   10800   -953.16279    36.722496   -916.44029    1315.2666   -2504.9332    2.1907025   0.10360479   0.10720437 
   10900    -954.9465     39.20519   -915.74131    1404.1877   -2776.7368    2.1896965   0.14523868   0.10621369 
   11000   -954.77881    40.343723   -914.43508    1444.9658    1120.5338    2.1983863  0.086235419   0.10250544 
   11100   -950.40193    39.477067   -910.92486    1413.9254    5331.7418    2.2024947  0.035289439   0.10528153 
   11200   -950.14619    43.506118   -906.64007    1558.2314   -201.19273    2.1809234   0.13124871   0.10159271 
   11300   -954.43707    40.521881   -913.91519    1451.3468   -9066.6192    2.1731106  0.095265618   0.10484371 
   11400   -953.32745    37.479375   -915.84807    1342.3753   -2675.8915    2.1905314  0.080178144   0.10526449 
   11500   -955.53755    40.118788   -915.41876    1436.9095    10466.402    2.2248024  0.021363958   0.10423254 
   11600   -950.90884    44.297477   -906.61136     1586.575    9084.4849    2.2105847   0.07772263   0.10662547 
   11700    -953.9306     40.94566   -912.98494    1466.5251   -4229.6712    2.1878525  0.062397836   0.10536641 
   11800   -954.69925    38.480857   -916.21839    1378.2447   -12981.318    2.1656236 0.0099234582   0.09564258 
   11900   -954.49111    40.113794   -914.37732    1436.7306   -6503.8306    2.1860285  0.024926347   0.10918309 
   12000   -947.21937    40.220125   -906.99924     1440.539    10849.863    2.2097504   0.11091051   0.12647116 
   12100   -953.68416     39.02261   -914.66155    1397.6484    11288.506    2.2244127   0.07398152   0.10549945 
   12200   -956.18097    39.673965   -916.50701    1420.9776   -4135.5626    2.1943363  0.051363559   0.11130964 
   12300   -950.83082    39.713075   -911.11774    1422.3783   -5586.8364    2.1758335  0.032091059   0.11353149 
   12400   -952.86391    42.304552   -910.55936    1515.1956   -3102.0868    2.1846152  0.097702445   0.11240845 
   12500   -955.78605    39.213309   -916.57274    1404.4785    2611.3606    2.2083075  0.054455471   0.10896196 
   12600   -955.01952    40.219445   -914.80007    1440.5147    3449.3061    2.2118089  0.029040383   0.10352172 
   12700   -950.31422    39.517279   -910.79694    1415.3656    1372.5337     2.192667  0.048419129   0.10540521 
   12800   -951.42747    43.693335   -907.73414    1564.9368   -7680.7172     2.172792 0.0031716988    0.1042613 
   12900   -953.99004    37.973588   -916.01645    1360.0762     870.8186    2.1989456  0.062870842  0.095059539 
   13000   -956.05836    40.810434   -915.24793    1461.6817    6053.9882    2.2174287  0.033370349   0.10196885 
   13100   -951.50674    36.594071   -914.91267    1310.6669    5627.4818    2.2102147  0.071742478   0.11695876 
   13200   -945.49388    39.326358   -906.16752    1408.5275    -3312.012    2.1734677  0.055972601    0.1277953 
   13300   -950.75593     38.16978   -912.58615    1367.1031   -4177.2905    2.1850221    0.2082275   0.11034644 
   13400   -954.11552    38.682649   -915.43287    1385.4722    10.720534    2.2019143     0.023473   0.11207626 
   13500   -953.66186    38.143923   -915.51794     1366.177    7335.0199    2.2156447  0.083473023   0.11006735 
   13600   -952.72151    42.948511   -909.77299    1538.2599    3948.8287    2.2030953   0.13955954  0.099696083 
   13700   -950.80719    40.177634   -910.62956    1439.0171   -6389.6067     2.174637  0.046212983     0.102515 
   13800   -953.64253    37.749466   -915.89306     1352.049   -12011.956    2.1613369  0.016576496  0.093891191 
   13900   -954.87007    39.620581   -915.24949    1419.0655    -1169.745    2.1965744  0.075220734  0.089625591 
   14000    -952.8457    42.504455   -910.34125    1522.3554    15094.423    2.2308056  0.029943827    0.1020776 
   14100   -951.59555    42.182024   -909.41353    1510.8071    4976.5959    2.2024693  0.036115941   0.10422964 
   14200   -951.98425    36.177715   -915.80654    1295.7546   -7028.4875    2.1769603  0.081514924   0.10696994 
   14300   -952.29959    36.590018   -915.70957    1310.5218   -4737.0394    2.1803791  0.065487706   0.10607617 
   14400   -952.17241     39.61409   -912.55832     1418.833    3822.7749    2.2003422    0.1425706   0.11191939 
   14500   -949.68174    43.110922   -906.57081    1544.0769    5970.8136    2.1985813   0.14222977   0.10860294 
   14600    -954.4104    39.623523   -914.78688    1419.1709    2352.2598    2.2033261  0.058890671  0.098659836 
   14700   -956.23005    40.522182   -915.70786    1451.3576   -4461.3758    2.1896695   0.13018492  0.092776305 
   14800   -952.96338    38.757016   -914.20637    1388.1357   -3931.0531     2.184698 0.0068737475   0.10281786 
   14900   -947.11123    41.156398   -905.95483    1474.0729   -482.75732    2.1802931   0.10318305  0.098675318 
   15000   -955.20347    41.031912   -914.17156    1469.6143    7928.4785    2.2150428  0.018035212  0.080217809 
   15100   -957.09487     41.55443   -915.54044     1488.329    3870.3068    2.2075344  0.026638054  0.085176893 
   15200   -954.06644     38.58245   -915.48399    1381.8834   -6068.5006    2.1793634 0.0051752597  0.087062735 
   15300   -949.38966    42.845375   -906.54428     1534.566    -10595.43    2.1572667   0.16325501   0.10997825 
   15400   -953.65301    39.748655   -913.90436    1423.6527    7126.8504    2.2104649  0.095700002   0.10240253 
   15500   -956.47105    41.377991   -915.09306    1482.0096     11320.89    2.2271319   0.05205561  0.099092197 
   15600   -954.69756    38.935619   -915.76195    1394.5327    1428.9765    2.1990025  0.026892633   0.10516587 
   15700    -949.6439    41.997437   -907.64647    1504.1959   -11538.044    2.1556151   0.12290865   0.10932194 
   15800   -951.25692    38.133639   -913.12328    1365.8086    -2839.881    2.1804838   0.12809727   0.10028575 
   15900   -952.87142    37.369888   -915.50153    1338.4539    5516.3432    2.2055873  0.023168955  0.092268163 
   16000   -955.12968     39.91954   -915.21014    1429.7731    3916.5304    2.2073193  0.042763137   0.08702261 
   16100   -949.06664    41.134741    -907.9319    1473.2972    918.65288    2.1843524  0.033709467  0.095774442 
   16200   -952.49309    39.925353   -912.56773    1429.9814   -1936.8949    2.1842734   0.13493131   0.09366514 
   16300   -953.64431     37.76394   -915.88037    1352.5674    -3199.458    2.1860454   0.14621323  0.091372482 
   16400   -954.71208    39.736857   -914.97522    1423.2301    1096.9655    2.1945713  0.020637518  0.082244717 
   16500   -946.40286    38.675986   -907.72687    1385.2336    8582.7611    2.1943439   0.13299842  0.097530936 
   16600   -951.56823    39.252006   -912.31622    1405.8645    2889.2327    2.1950283   0.05691786  0.098778857 
   16700     -954.732     38.85958   -915.87242    1391.8092   -6362.1463    2.1783602  0.027905179   0.09636593 
   16800   -956.22362    40.514498   -915.70913    1451.0824   -7226.9954    2.1804045  0.085243059   0.10789785 
   16900   -951.39967    40.709886   -910.68978    1458.0805     5610.365    2.1994783  0.025027987  0.093873291 
   17000   -951.44311    42.252703   -909.19041    1513.3386    8440.5782    2.2052642  0.034829062  0.097180027 
   17100    -954.7099    39.714605    -914.9953    1422.4331   -2968.6184    2.1897045  0.053867591   0.09692168 
   17200    -954.5706    38.339792   -916.23081    1373.1923   -9764.9903    2.1743091  0.056020932  0.089489864 
   17300   -952.51438    40.487192   -912.02718    1450.1044   -1115.7582     2.184392 0.0076673959  0.091165441 
   17400   -951.59556    42.781407   -908.81415    1532.2749    6356.7738    2.2061825  0.066000873   0.10246607 
   17500   -954.42745     39.50232   -914.92513    1414.8298    7393.0016    2.2150497  0.016308898   0.10288335 
   17600    -956.5516    40.545964   -916.00564    1452.2094   -7066.4408    2.1813307 0.0079663536   0.09402674 
   17700   -951.20383    39.639656   -911.56417    1419.7487   -13639.751    2.1520533  0.043420619   0.11256355 
   17800   -952.38397    43.643298   -908.74067    1563.1447   -3692.2653     2.177968  0.040057459   0.10490164 
   17900   -954.95768    40.363262   -914.59442    1445.6657    15273.886    2.2339582   0.14495895   0.10012684 
   18000   -952.48402    37.374519    -915.1095    1338.6197    13380.137    2.2244609  0.089844682   0.10751004 
   18100    -952.2956    38.998145   -913.29745    1396.7721   -4677.9123    2.1799384  0.038759634   0.10717547 
   18200   -948.66764     42.86211   -905.80553    1535.1653   -10514.342    2.1540292  0.020749811   0.11573754 
   18300   -954.64257    39.321848   -915.32072     1408.366    1345.2123    2.1997739    0.1357258  0.097044858 
   18400    -956.8789    41.558061   -915.32084     1488.459     6666.865    2.2158413  0.025706817   0.10424554 
   18500   -955.00833    39.981554   -915.02678    1431.9943    2580.0913    2.2033571   0.19290782    0.1054542 
   18600   -947.91162    41.622718   -906.28891    1490.7748   -3578.9112    2.1685098  0.041231955   0.11877693 
   18700   -952.67697    38.703704   -913.97326    1386.2263   -1991.7691    2.1884598  0.063332874   0.11763332 
   18800    -956.4813    40.865671   -915.61563    1463.6601    1320.0145    2.2028992  0.058063309  0.096030946 
   18900   -957.91359    42.621297   -915.29229    1526.5403    2172.3423    2.2079317   0.04705033  0.099465298 
   19000   -952.77121    45.737185   -907.03402    1638.1401   -2379.2475    2.1859609  0.072484198   0.10512112 
   19100   -954.17068    41.753636   -912.41704    1495.4638   -3165.0152     2.185822   0.08742457   0.10236867 
   19200   -951.95917    36.134875    -915.8243    1294.2202   -3165.3755    2.1850202  0.075832667   0.11049088 
   19300   -954.46393    39.138165   -915.32576    1401.7871    1124.0969    2.2011692  0.046803829   0.10562683 
   19400   -950.91081    43.526706    -907.3841    1558.9688    8926.8432    2.2100738  0.054529585    0.0951444 
   19500   -954.12839     41.44136   -912.68703    1484.2792    6966.1531    2.2102253   0.10402528  0.097861836 
   19600   -957.91721    41.731052   -916.18616    1494.6549   -12559.995    2.1723929  0.097968578  0.096951885 
   19700   -951.61991    36.831553   -914.78836    1319.1727   -10614.577    2.1631152 0.0077928946    0.1026805 
   19800   -950.92639    43.170471   -907.75592    1546.2097    3811.5893    2.1925509    0.2160146  0.095782045 
   19900   -953.74409    40.049191    -913.6949    1434.4168    11496.327    2.2246164   0.10437112   0.08926961 
   20000   -954.57815    38.494693   -916.08346    1378.7403   -236.46095     2.199272  0.072381557  0.096038765 
   20100   -954.78436    39.595192   -915.18917    1418.1562   -6147.4604    2.1809818  0.095071745   0.10509865 
   20200   -950.74722    41.082708   -909.66451    1471.4336   -2378.7506    2.1829485   0.11260121   0.10402549 
   20300   -953.18645    42.966507   -910.21995    1538.9044    399.43925    2.1944936  0.037342313    0.1050357 
   20400   -953.55511    38.400582   -915.15453    1375.3696    2655.5024     2.203397  0.053892614   0.10068456 
   20500    -956.6211    41.202704    -915.4184    1475.7314    807.82422    2.2018192  0.056090598  0.092743089 
   20600   -955.07173    40.712733     -914.359    1458.1825   -1427.8726    2.1949454   0.14943452   0.10321278 
   20700   -950.71077    44.625122   -906.08565      1598.31   -6352.7487    2.1715569   0.26234711   0.10491611 
   20800   -956.22168    42.057715   -914.16396    1506.3548    1343.1543     2.199706  0.053004529  0.094046751 
   20900   -954.60828    39.159349   -915.44893    1402.5459    7380.0051    2.2161478  0.053665009  0.096013435 
   21000   -952.48121    36.960058   -915.52115    1323.7752    5216.5168    2.2051447  0.034983086   0.10580737 
   21100   -949.25069    42.592288    -906.6584    1525.5013   -12655.045    2.1558608   0.21854182   0.10651724 
   21200   -953.60614    39.060685   -914.54546    1399.0121   -6857.8949    2.1766957  0.069027761  0.092419989 
   21300   -953.69158    38.139827   -915.55176    1366.0303    8901.3082    2.2163908  0.024637662  0.097336978 
   21400   -954.51226    40.614848   -913.89741    1454.6766    13037.116    2.2301891  0.070619385   0.10525407 
   21500   -948.97703    41.485162   -907.49187    1485.8481   -1011.9153    2.1811441  0.033934018   0.11241721 
   21600   -953.07345    37.848688   -915.22476    1355.6028   -9496.1807    2.1693288   0.08261846   0.09722511 
   21700   -952.58477    36.561619   -916.02315    1309.5046   -4459.0296    2.1801836   0.12715114  0.089086139 
   21800   -955.75689    41.779152   -913.97774    1496.3777     2156.147    2.2040353   0.07289928  0.095644759 
   21900   -955.12861    43.789449   -911.33917    1568.3793    3820.9669    2.2018255   0.10417136    0.1060813 
   22000   -945.12884    41.459593   -903.66925    1484.9323   -1531.9696    2.1686257  0.064034946   0.11629722 
   22100   -956.17199    43.340184    -912.8318    1552.2882   -4704.9435     2.185809  0.015544416   0.10298286 
   22200   -951.46656    36.549634   -914.91693    1309.0754    2664.2148    2.1970373  0.035771968  0.097039505 
   22300   -953.03263    36.727304   -916.30533    1315.4389    3414.8893    2.2049382  0.053330945  0.086577945 
   22400   -954.64827    39.813695   -914.83457    1425.9822    1206.5732    2.1992044  0.035258947  0.097844359 
   22500   -950.43013    41.407689   -909.02244    1483.0732   -4254.7513    2.1761079   0.44027809  0.099276524 
   22600   -956.40925    41.345555    -915.0637    1480.8478   -7078.9435    2.1838114  0.073619187   0.10741203 
   22700   -957.37169     40.91494   -916.45675    1465.4248    1036.6221    2.2035907  0.095303322   0.10232581 
   22800   -952.78165     40.70087   -912.08078    1457.7576    8778.7403    2.2141624  0.080480353   0.10353691 
   22900   -952.91067    42.888632   -910.02204    1536.1153    625.06585    2.1932916   0.10030741   0.11243756 
   23000   -954.56883    38.297102   -916.27173    1371.6633   -10148.514    2.1682641   0.11632154  0.094621066 
   23100   -955.13089     39.32076   -915.81013     1408.327   -11471.445    2.1716255  0.040555363   0.10862971 
   23200   -953.25243    43.616734    -909.6357    1562.1932    8349.0951    2.2115035  0.016957643  0.096860778 
   23300   -955.25241    40.044724   -915.20769    1434.2568    16135.915    2.2378624   0.13227304   0.10028017 
   23400   -954.67902    37.288677   -917.39035    1335.5452   -1161.7105    2.1940147   0.12518771  0.090861032 
   23500   -956.11875    41.366905   -914.75185    1481.6125   -11707.493    2.1697662  0.018017636  0.096399196 
   23600   -952.84903    41.778869   -911.07016    1496.3676   -4025.0452    2.1838339  0.041109365   0.10039072 
   23700   -956.65497     36.83683   -919.81814    1319.3617      6593.33    2.2211968  0.064328659   0.10822831 
   23800   -954.52684    37.488356   -917.03849    1342.6969    2074.0789    2.2044447  0.064579284   0.12402529 
   23900   -950.33599    36.579775   -913.75622    1310.1549   -838.73154    2.1870095  0.018973402   0.11427016 
   24000    -952.3172    36.797089   -915.52011    1317.9383   -2909.9567     2.185097  0.010257958     0.110079 
   24100   -959.71831    39.136684   -920.58163    1401.7341   -633.81309    2.2085413   0.11586608   0.10204202 
   24200   -953.16879    39.216164   -913.95263    1404.5808    6448.6793    2.2100191   0.15871879   0.10516007 
   24300   -952.77419    38.040799   -914.73339    1362.4835    2615.9147    2.2027385   0.56496343    0.1049387 
   24400   -954.91353    33.265019   -921.64851    1191.4323   -2751.0452    2.1940204  0.095264051   0.10041685 
   24500   -952.75784    37.949788   -914.80805    1359.2238   -8168.2921    2.1753386  0.079482401   0.10617882 
   24600   -953.69729    39.664824   -914.03247    1420.6502    2555.1332    2.2019551  0.040352837   0.10085177 
   24700   -956.03037     38.11553   -917.91484      1365.16    10859.456    2.2254116  0.070483714   0.10980154 
   24800   -956.35027     37.44503   -918.90524    1341.1452    2401.5818    2.2104646   0.13431367   0.11752388 
   24900   -947.85621    35.954014   -911.90219    1287.7424   -9261.8542     2.160011  0.023037958   0.14309381 
   25000   -951.04894    34.570012   -916.47893    1238.1725   -10252.999    2.1687874  0.037827148   0.13258501 
   25100   -956.26879    40.417154   -915.85164    1447.5959    5025.0925     2.213327  0.022703033   0.11166773 
   25200   -954.34083    46.426504   -907.91433     1662.829    9292.1143    2.2171248  0.018348389   0.10308168 
   25300   -955.74476    40.670552   -915.07421    1456.6717    1782.0562    2.2044281   0.15287139   0.10428837 
   25400   -954.71678    37.777044   -916.93973    1353.0367   -4898.3243    2.1859943    0.2383105   0.10806281 
   25500   -950.16982     39.89259   -910.27723    1428.8079   -2767.3735    2.1792979  0.078870613   0.10370552 
   25600   -955.03454     40.56083   -914.47371    1452.7419    1297.4963    2.2013411   0.10904499   0.10424237 
   25700   -954.78757    37.689514   -917.09805    1349.9017    3197.5517    2.2077904  0.020098914   0.10649869 
   25800   -954.08165    40.595429   -913.48622     1453.981     158.3475    2.1965356  0.034762498   0.10392029 
   25900   -952.55296    40.973531   -911.57943    1467.5233   -4596.4781    2.1805206  0.036736046   0.12177411 
   26000   -955.93975     36.42104   -919.51871    1304.4696    493.42024    2.2016994   0.16798222   0.10638964 
   26100    -953.4826     38.28158   -915.20102    1371.1074    4832.2733    2.2069625  0.032317293   0.10411288 
   26200   -953.31999     40.14838   -913.17161    1437.9694     4268.945    2.2015213  0.019507843   0.10162062 
   26300   -956.77889    35.751024   -921.02787     1280.472   -2408.6438    2.2006313   0.31147188   0.10160994 
   26400   -954.19925    37.487186   -916.71206    1342.6551   -7261.7809    2.1773624   0.05207258   0.10822839 
   26500   -953.42475    39.557636   -913.86711    1416.8111   -1817.7604    2.1901804  0.046467305   0.10569462 
   26600   -956.88806    39.076944   -917.81112    1399.5944    8816.7078    2.2246364  0.049965747  0.095609924 
   26700   -956.99513    36.821089   -920.17404    1318.7979    9865.7958     2.226155  0.039649882  0.087150007 
   26800   -953.79668    40.717502   -913.07918    1458.3533   -7476.3295    2.1728249   0.10832026  0.099722461 
   26900   -950.96679     34.64342   -916.32337    1240.8017   -11554.629    2.1636547  0.066674742   0.11384189 
   27000   -954.07179    36.616172   -917.45562    1311.4585    2558.0404    2.2012161   0.11349683   0.10139337 
   27100   -952.79198    43.481971   -909.31001    1557.3665    7825.0489     2.209155   0.10029776  0.095026457 
   27200   -952.39248    38.063348   -914.32913    1363.2911    5050.7285    2.2063637   0.17400291   0.10128694 
   27300    -957.5009    39.907763   -917.59313    1429.3513   -5822.9803    2.1897187  0.076532721   0.10750826 
   27400   -949.51095    38.873704   -910.63724    1392.3151   -1740.8534    2.1791157  0.027118628   0.10743396 
   27500   -953.06505    40.464412   -912.60063    1449.2885    894.55022    2.1955074  0.065492462   0.10095161 
   27600    -957.2376    40.469633   -916.76796    1449.4755    100.25348    2.2052971  0.070310866    0.1027869 
   27700   -956.79735    42.963684   -913.83366    1538.8033   -1139.4409    2.1986446  0.026473725   0.11195392 
   27800   -949.72842    40.641805   -909.08661    1455.6421   -3678.3687    2.1832121  0.058245602   0.12603918 
   27900   -954.12113    36.601284   -917.51985    1310.9252    2861.6786    2.2027817   0.01340894   0.10579976 
   28000   -957.06404    41.480002   -915.58404    1485.6632    124.49932     2.200802   0.01544934  0.092964423 
   28100   -951.80499    39.303886   -912.50111    1407.7226    615.87084    2.1897082   0.16173787  0.099952653 
   28200    -954.2439    37.083311   -917.16059    1328.1897   -3553.2304    2.1878304  0.062796194   0.11283744 
   28300   -955.93155    36.934396   -918.99715    1322.8561   -3047.8463    2.1919396  0.092055477   0.10046465 
   28400   -954.93299    40.133296    -914.7997    1437.4291    7114.2434    2.2131984  0.071831468   0.10744985 
   28500   -953.17468    39.887189   -913.28749    1428.6145    10338.634    2.2226493 0.00010755774   0.11070076 
   28600   -958.49146    37.413225   -921.07823    1340.0061   -3153.1172    2.1980756   0.22477734   0.10278142 
   28700   -953.03174    36.551226   -916.48051    1309.1324   -14044.997     2.157662  0.071384328   0.11924114 
   28800   -950.85164    36.875061   -913.97658    1320.7309   -3688.6281    2.1806842  0.068870815    0.1238626 
   28900   -955.95564    39.434857   -916.52078    1412.4136    9279.0359    2.2226262   0.29375174   0.10395051 
   29000    -954.9276    33.844298    -921.0833      1212.18    12128.782    2.2291279  0.099780895   0.11090912 
   29100   -951.58424    38.771202   -912.81304    1388.6438   -3010.4686      2.18195  0.043864834   0.10228981 
   29200   -957.56305    42.323955   -915.23909    1515.8906   -8200.9888    2.1770884  0.055174428  0.091077283 
   29300   -955.60319      37.4237   -918.17949    1340.3812   -607.93167    2.1973206  0.078372981   0.10444557 
   29400   -954.74159    42.268418   -912.47317    1513.9015    5835.6806    2.2115028  0.010473867  0.094756465 
   29500   -952.41442     40.67993   -911.73449    1457.0076    5690.1441    2.2043731  0.018167569  0.096890033 
   29600   -954.79375    38.259373   -916.53438     1370.312   -4086.1984    2.1862783   0.14697642   0.10792465 
   29700   -956.82567    41.110953   -915.71472    1472.4452   -9554.5164    2.1780395  0.067363713  0.099588525 
   29800   -952.64975    44.043942   -908.60581    1577.4943   -1333.7037    2.1828228    0.1003802   0.11269027 
   29900   -953.43972    37.480865   -915.95886    1342.4287    7963.6696    2.2155858  0.043463848   0.10824873 
   30000   -955.53094    39.370773   -916.16017    1410.1183    4165.0526    2.2077195  0.026501267  0.099643199 
   30100   -951.80091    41.794116   -910.00679    1496.9137   -4041.2586    2.1753152   0.18558788   0.11187193 
   30200   -951.93206    36.861379   -915.07068    1320.2409   -3471.0496     2.181408   0.10407469   0.10337181 
   30300   -955.39726    38.395654   -917.00161    1375.1931   -714.92759    2.1954472  0.071193739  0.095752947 
   30400   -953.76924    40.745629   -913.02362    1459.3607    4782.8977    2.2022128  0.074456833  0.093855255 
   30500   -949.60128    36.991864   -912.60941    1324.9144    4322.0062    2.1948833   0.18553372   0.10213274 
   30600   -955.06587    35.404187   -919.66168    1268.0496    2010.2861    2.2037905  0.042406898  0.096913829 
   30700   -954.16867    38.753485   -915.41519    1388.0093   -231.70548    2.1941306  0.040616516  0.086417173 
   30800   -952.95467    39.715236   -913.23944    1422.4557    -742.8892    2.1909963  0.015169446   0.10204998 
   30900   -957.78158    36.725851   -921.05573    1315.3868    667.40603    2.2059985  0.018692464  0.095569622 
   31000   -955.87431    38.996032   -916.87828    1396.6965   -1170.1606     2.196619  0.022494819   0.10266212 
   31100   -952.31853    38.606008   -913.71253    1382.7272   -8.5438424    2.1927877  0.035228414   0.11298031 
   31200   -956.06986    37.541259    -918.5286    1344.5918   -820.48646     2.201158  0.083848827   0.10836272 
   31300   -955.11697    35.840137   -919.27683    1283.6637    2649.5337    2.2051147  0.082026682  0.096545432 
   31400   -952.24412    39.086863   -913.15726    1399.9497    512.22737     2.191205  0.060417672   0.10625568 
   31500   -952.42678     36.08313   -916.34365    1292.3669    446.31717    2.1939875   0.21031455   0.11133088 
   31600   -959.25132    39.213936   -920.03738     1404.501   -461.47451    2.2039676   0.14660439  0.094447575 
   31700   -950.50245    38.994762   -911.50769     1396.651   -138.86202    2.1888715  0.081376547   0.11139926 
   31800   -951.79461    37.303184   -914.49143    1336.0648     4164.057    2.2033576  0.052682061    0.1017835 
   31900   -956.26692    38.596539   -917.67038     1382.388    1959.5302     2.208251  0.052044884   0.10991525 
   32000   -950.79089    40.379848   -910.41104    1446.2597   -2756.5998    2.1810377  0.060458739   0.11948503 
   32100   -954.27928    41.625611   -912.65366    1490.8784   -2886.4294    2.1868577  0.076443405   0.10490458 
   32200   -954.08972    37.493638   -916.59608    1342.8861    3379.4407    2.2048326   0.28347771  0.097231154 
   32300   -955.37058    41.596362   -913.77422    1489.8308    6119.0111    2.2134964  0.047114154   0.10704819 
   32400   -948.69517     39.59783   -909.09734    1418.2507    1066.2046     2.189097   0.32495575   0.12699097 
   32500   -953.65029    36.690417   -916.95987    1314.1177   -3692.5927    2.1862118    0.0645387   0.11009417 
   32600   -954.84573     39.24672   -915.59901    1405.6752   -4596.6079    2.1880133   0.26767702   0.11874841 
   32700   -953.57475    43.416401   -910.15835     1555.018    1021.0666    2.2004182  0.046609197   0.11171447 
   32800   -952.97738    36.447991   -916.52938    1305.4349    9087.6294     2.217627    0.1687617   0.11609825 
   32900   -956.03733    38.758872   -917.27846    1388.2023   -3196.4695    2.1954177  0.021822371   0.11059558 
   33000   -950.36271    36.347064   -914.01564      1301.82   -4574.9288    2.1776027  0.071964658   0.10029733 
   33100   -949.72076    38.054759     -911.666    1362.9835   -958.83749    2.1856745  0.022953282   0.10574868 
   33200   -959.03749    38.690623   -920.34686    1385.7578     9927.619    2.2339925  0.028292582  0.093706666 
   33300   -956.96193    40.973036   -915.98889    1467.5056    6668.1156    2.2174113   0.11017281  0.097381944 
   33400   -952.70066    38.806657     -913.894    1389.9137   -5440.3163    2.1788897   0.23482548   0.11206282 
   33500   -954.90359    38.486354   -916.41723    1378.4416   -11795.709    2.1672617   0.10423117   0.10175612 
   33600   -955.57186    35.067297   -920.50457    1255.9834    1430.6747    2.2054744  0.054461776   0.10616522 
   33700   -956.32012    42.643555   -913.67656    1527.3375    6616.4665    2.2159279  0.017730751   0.11218879 
   33800   -955.76506    40.534491   -915.23057    1451.7985    2595.1375      2.20557   0.10057967   0.10712269 
   33900   -958.39407    36.988358   -921.40571    1324.7888   -3194.0889    2.1990847  0.021586856   0.10459559 
   34000   -955.13756    40.725157    -914.4124    1458.6274   -5460.7084    2.1835886   0.03859256  0.092965475 
   34100    -954.2196    40.063867   -914.15573    1434.9424    1435.5721     2.200307  0.087714756  0.093286703 
   34200   -954.64349    37.065265   -917.57823    1327.5434    5238.9277    2.2119609    0.0175289  0.098470174 
   34300   -954.74115    37.063956    -917.6772    1327.4965     2287.422    2.2068702   0.16512636  0.094568391 
   34400   -951.70881    40.737427   -910.97138    1459.0669   -6556.2192    2.1771582   0.25726379  0.099974065 
   34500   -952.94643    37.175358   -915.77107    1331.4865   -4562.5746    2.1832792 0.0012598826  0.091906601 
   34600   -956.14609    39.693041   -916.45305    1421.6608    1778.2824    2.2058946   0.12695786  0.096463328 
   34700    -950.0381    41.947843   -908.09026    1502.4196    6924.9785    2.2062892   0.02731392   0.11425079 
   34800   -952.77971    38.762773   -914.01694     1388.342    2524.3391    2.2031558   0.10606257   0.11471012 
   34900   -953.66045    36.668051    -916.9924    1313.3166   -5460.5564    2.1822742  0.040459612  0.099109899 
   35000   -951.06509    39.166854   -911.89824    1402.8147   -8015.6895    2.1727783  0.059492142   0.10264489 
   35100   -949.96461     39.40165   -910.56296    1411.2242    4812.0519    2.1948991  0.048518158  0.096078492 
   35200   -954.40848    38.381482     -916.027    1374.6855    14338.903    2.2289456  0.070451224  0.090094503 
   35300   -955.11832    40.580588   -914.53773    1453.4495    6430.9613    2.2090832  0.099952878  0.095189919 
   35400   -951.83889    40.376523   -911.46237    1446.1406   -13178.594    2.1537302  0.026852199  0.095179315 
   35500   -957.75558    37.604639   -920.15095    1346.8618   -13267.158    2.1712918    0.1743726   0.08936945 
   35600   -954.20705    36.715094   -917.49196    1315.0015     5533.631    2.2113586 0.0082605066   0.10117827 
   35700   -953.13858    39.852004   -913.28658    1427.3543    11563.538    2.2231628  0.019028976    0.1114765 
   35800   -954.03953    37.456825    -916.5827    1341.5676    1357.5253    2.2032244  0.032520752   0.10986135 
   35900   -957.26456    36.011222   -921.25334    1289.7914   -5351.1165    2.1935534  0.040489553  0.090347887 
   36000   -955.28836    40.776801   -914.51156    1460.4771   -5196.6836    2.1871645  0.078981797   0.11140928 
   36100   -953.61172    38.764763   -914.84696    1388.4132    1320.4826    2.1998561  0.087953105    0.1107381 
   36200   -956.33435    35.063726   -921.27063    1255.8555    5956.8652    2.2192673  0.013966993   0.10686277 
   36300   -955.72007     41.39621   -914.32386    1482.6621    723.58642    2.2001504 0.0033643936  0.097948537 
   36400   -953.90984    39.707409   -914.20243    1422.1754    -1434.042    2.1911524   0.10091568  0.091910908 
   36500   -954.94437    37.001028   -917.94334    1325.2426   -1272.1364    2.1930246  0.018217183  0.093414247 
   36600   -957.65444    40.125851   -917.52859    1437.1625   -1356.7265    2.2022804   0.14280433   0.10511635 
   36700   -955.44754    44.021615   -911.42593    1576.6946    1167.4817    2.2000542   0.17797595   0.10204873 
   36800   -956.11834     40.29641   -915.82193    1443.2713    -1991.799    2.1939113  0.040467026  0.092729032 
   36900   -957.26512    39.597386   -917.66773    1418.2348   -5972.6493    2.1865563  0.024197516   0.09568031 
   37000   -952.90621     43.60303   -909.30318    1561.7024   -3988.3825    2.1819678  0.020076757   0.10619477 
   37100   -952.97436    38.900039   -914.07432    1393.2583    11180.837    2.2199539  0.069812738   0.10828939 
   37200   -955.19051     38.72621    -916.4643    1387.0324    8344.5855    2.2160955   0.14501369    0.1037608 
   37300   -953.62377    41.479794   -912.14398    1485.6558   -7592.5938    2.1751949  0.067537946  0.098789404 
   37400   -952.45496     41.09287   -911.36209    1471.7976   -12222.665    2.1584602  0.022037086   0.10189728 
   37500   -954.18889    36.527037   -917.66186     1308.266    -260.7098    2.1973272  0.023764693  0.097826432 
   37600   -952.78752    39.217522      -913.57    1404.6294    11018.277    2.2230832  0.054123993   0.10430415 
   37700   -952.08486    41.201429   -910.88343    1475.6858    6160.3685     2.205238  0.019272186  0.095062511 
   37800   -957.17471    38.084621   -919.09009     1364.053   -3932.5845    2.1945447  0.023862633  0.097246053 
   37900   -953.46303    37.563913   -915.89912    1345.4031   -4362.6232    2.1808229  0.092124796  0.099748843 
   38000   -952.00955    39.429378   -912.58017    1412.2173    711.18107    2.1895174   0.12698877    0.1012992 
   38100   -957.93692    37.512626   -920.42429    1343.5662    5033.8684    2.2164122   0.10753513  0.098727441 
   38200    -955.4218     38.77531   -916.64649     1388.791    933.60986    2.2022644   0.10420572  0.091925848 
   38300   -954.89322    41.225481   -913.66774    1476.5472   -3069.5056    2.1871698  0.074724071   0.11191661 
   38400   -957.14619    38.457663   -918.68853     1377.414   -3636.5234    2.1936642   0.15246851    0.1047874 
   38500   -956.25523    37.528833    -918.7264    1344.1467   -620.45055    2.1997863  0.076522893   0.10071239 
   38600   -953.37854    40.615211   -912.76332    1454.6896    2140.3278    2.1969256   0.11240793   0.10227863 
   38700   -955.09097    38.372189   -916.71878    1374.3527    427.95831    2.2005416  0.031124517   0.10401409 
   38800   -958.47662    38.485445   -919.99117    1378.4091   -2011.8391    2.2005847   0.10165823  0.096004562 
   38900   -952.11227     40.62782   -911.48445    1455.1412   -6034.2461     2.178691  0.059683109   0.11259495 
   39000   -952.80953    37.492286   -915.31724    1342.8377    1922.9778     2.198579  0.088071582   0.10238865 
   39100   -953.93083    37.055142   -916.87568    1327.1808    11986.035    2.2260769  0.025439822   0.10627264 
   39200    -951.9012    43.071136   -908.83007    1542.6519    4741.7969    2.2017107  0.020562515   0.11088927 
   39300    -952.8783    39.453291   -913.42501    1413.0738   -7084.3485    2.1740774 0.0067203671   0.10573966 
   39400   -951.07682    33.708219    -917.3686    1207.3061    -8427.628    2.1698376   0.40588564   0.10537151 
   39500   -954.92973    42.065101   -912.86463    1506.6194    428.14976    2.1963106  0.082327155   0.10112216 
   39600   -951.79697    42.216168    -909.5808      1512.03    11150.086    2.2147173  0.027840671   0.10196939 
   39700    -957.5447    40.663668   -916.88104    1456.4251    3806.6609    2.2118324  0.069477129  0.096065023 
   39800   -951.17776    36.052081   -915.12568    1291.2548   -2646.7113     2.181672   0.37378101   0.10264601 
   39900   -951.19516    40.175289   -911.01987    1438.9332   -7292.5208     2.168746  0.095752829   0.10003744 
   40000   -958.46072    38.642005   -919.81871    1384.0165    1740.4519    2.2088974 0.0048308454  0.089992998 
   40100   -954.13155     37.02441   -917.10714    1326.0801    7402.5201    2.2146508  0.073169407   0.10174129 
   40200   -952.56419    38.867306   -913.69689    1392.0859    1136.6457    2.1956188  0.015308517   0.10563048 
   40300     -953.032    37.676021   -915.35598    1349.4184    -4459.931    2.1827874  0.049451155  0.097379634 
   40400   -959.61327     39.00291   -920.61036    1396.9428   -3076.6949    2.1970052    0.1423844  0.086404976 
   40500   -956.38406     41.97286    -914.4112    1503.3156    2143.5211    2.2068071  0.090382721  0.092772624 
   40600   -951.32022    36.916239   -914.40398    1322.2058    7499.5768    2.2107849   0.02805929  0.096093756 
   40700    -958.2149    36.771036   -921.44386    1317.0052    -497.5422    2.2032607  0.029862208   0.10049491 
   40800   -949.83394    35.672356   -914.16158    1277.6544   -10186.407    2.1605746   0.18139627   0.10969559 
   40900   -952.62837    38.385746   -914.24263    1374.8382   -3110.3602    2.1836299  0.045550731   0.10196003 
   41000   -954.64095    38.421537   -916.21942    1376.1201    17349.686     2.239365  0.037384294  0.097362433 
   41100   -955.39583    35.066072   -920.32976    1255.9395    15495.167    2.2401745  0.019793073  0.091788697 
   41200   -952.87021    41.497288   -911.37292    1486.2824   -10290.168    2.1661159  0.056955084  0.092785566 
   41300   -951.89396    37.218578   -914.67538    1333.0345   -8162.3018     2.167712   0.03626061  0.093226057 
   41400   -954.14561    37.317412    -916.8282    1336.5744    124.37045    2.1995477  0.036530925  0.097271686 
   41500   -953.20504    37.662904   -915.54213    1348.9486     9209.489      2.21619  0.070077103  0.088097366 
   41600   -950.65731    41.081838   -909.57547    1471.4024    38.100921    2.1899085  0.074062916  0.097989672 
   41700   -954.37533    39.112528    -915.2628    1400.8689   -7480.3472    2.1789876  0.040483104  0.096016552 
   41800   -958.86302     42.16909   -916.69393    1510.3439   -7285.2416     2.186878  0.040846188  0.091962641 
   41900   -952.44581    41.911757   -910.53406    1501.1271    4279.0516    2.2014855   0.17883004     0.112991 
   42000   -953.49811    41.716374   -911.78174    1494.1292    5300.7634    2.2101439   0.12360819   0.10905723 
   42100   -951.25288     34.71498    -916.5379    1243.3647    718.08953    2.1947147  0.059312167   0.10438475 
   42200   -955.10996    40.274662   -914.83529    1442.4923   -8370.2794    2.1789383  0.096310565  0.098184651 
   42300   -949.42772    41.030308   -908.39741    1469.5568   -2879.6628    2.1798154  0.037414296  0.089479539 
   42400   -955.97747    38.884003   -917.09346     1392.684    8962.5904    2.2224781   0.18250462  0.090031164 
   42500   -956.22891    40.238666   -915.99024    1441.2031    5480.8757     2.214512   0.06279414  0.094612142 
   42600   -955.37991    41.930408    -913.4495    1501.7951   -6922.4263    2.1807017  0.074642889  0.098744265 
   42700   -950.11189    40.004963   -910.10693    1432.8327   -8389.6507     2.163649  0.018720164  0.094105152 
   42800   -954.93832    35.563809   -919.37451    1273.7667      4759.99    2.2114922   0.10299604  0.086299523 
   42900   -953.10714    37.180359   -915.92679    1331.6656    12475.527    2.2239603  0.045225619  0.097092036 
   43000   -954.19517    40.264293   -913.93087     1442.121     1616.295    2.1985826    0.1236599   0.11567199 
   43100   -952.96996    40.148147   -912.82181     1437.961   -7186.0725    2.1741598  0.064774439   0.10720512 
   43200   -956.46124    35.971492   -920.48974    1288.3684    1139.4393    2.2019993  0.029256624  0.096864002 
   43300   -955.78392    39.933232   -915.85069    1430.2635    2233.9574    2.2024734  0.048822501  0.085434259 
   43400   -955.31356    41.970583   -913.34298    1503.2341    138.82322    2.1939055  0.089375628  0.090005541 
   43500   -955.80315    36.278113   -919.52504    1299.3504   -1735.2977    2.1948317    0.1722368  0.091431155 
   43600   -955.70596    37.051135   -918.65483    1327.0373   -3866.1605    2.1903535   0.08112587  0.089054091 
   43700   -955.15862    41.312078   -913.84654    1479.6488   -430.87028    2.1955335   0.06008882  0.092015889 
   43800   -955.62263    39.035497   -916.58714    1398.1099    3996.1966    2.2081023  0.035331809  0.086436457 
   43900   -959.17815     37.67466   -921.50349    1349.3697    1932.6366    2.2117266 0.0083925659   0.08728533 
   44000   -953.69711    40.083014    -913.6141    1435.6282     -5681.38    2.1800924   0.11523064   0.10070978 
   44100   -952.03009    36.623693    -915.4064    1311.7279   -3502.1425    2.1814614  0.031838485  0.099385894 
   44200   -956.64733    37.165543   -919.48179     1331.135     1531.548    2.2092257     0.130132  0.096756013 
   44300   -954.04564    39.476368   -914.56928    1413.9003    11882.899    2.2229326   0.18015989  0.094348349 
   44400   -954.13709    41.539366   -912.59772    1487.7895    3441.9122    2.2026451  0.067463757   0.10099859 
   44500   -953.94453    37.287546   -916.65699    1335.5047   -9167.1999    2.1698551  0.030769244   0.09584534 
   44600   -952.16552    36.789746   -915.37577    1317.6753   -8711.7022    2.1689365  0.054657848  0.099894076 
   44700   -953.46156    44.603392   -908.85817    1597.5317   -169.34884    2.1897158  0.066608013  0.094247757 
   44800   -956.21817    41.107727   -915.11044    1472.3297     10659.73    2.2227096   0.08783477  0.078534169 
   44900   -955.90581    39.241438   -916.66437     1405.486    2655.5369    2.2064451  0.075298838   0.10027138 
   45000   -951.62148    41.785269   -909.83621    1496.5968   -5258.3265    2.1734454  0.042785651  0.095571657 
   45100   -952.97856    38.411715   -914.56684    1375.7683   -4482.4485    2.1835945   0.13502522    0.1017464 
   45200   -953.78224    36.975021   -916.80722    1324.3112    409.62563    2.1970727  0.059854324  0.092536418 
   45300    -952.9487    40.116147   -912.83256    1436.8149    3566.0617    2.2020398  0.057136276   0.10393702 
   45400   -951.00138    39.221418   -911.77996     1404.769    2261.2629    2.1971267   0.15685721   0.10925366 
   45500   -957.07119    38.238374   -918.83282    1369.5599    142.53145    2.2044938  0.049568822    0.1018626 
   45600   -955.26423    40.024075   -915.24016    1433.5172   -723.07617    2.1986144  0.082054155   0.10908759 
   45700   -950.96524     38.31782   -912.64742    1372.4054    79.107787    2.1904072   0.19265609  0.092330714 
   45800   -957.13274    37.294267   -919.83847    1335.7454    742.85525    2.2036237    0.1219846  0.082827878 
   45900   -954.93502    36.646249   -918.28877    1312.5358   -915.00397    2.1992947   0.21966626   0.09639674 
   46000   -954.34262     40.33209   -914.01053    1444.5492    966.77162     2.199553   0.02481141  0.097714796 
   46100   -955.81552    40.452171   -915.36335      1448.85    2203.3776     2.204733  0.038768503  0.097655536 
   46200   -959.16981    37.756794   -921.41302    1352.3114    683.76868     2.213462  0.060409821  0.092846529 
   46300   -953.71771    39.470201   -914.24751    1413.6795   -2953.6267    2.1886983  0.079702526  0.094509954 
   46400   -954.85806    40.032938   -914.82512    1433.8347   -3942.5052    2.1867113  0.028958877  0.091821623 
   46500   -957.21483     36.39909   -920.81574    1303.6834     2472.403    2.2100902 0.00091096622  0.092286338 
   46600   -952.68788    37.698987   -914.98889     1350.241    7041.0791    2.2124051   0.17106302  0.091703616 
   46700    -952.8991     39.27294   -913.62616    1406.6143    5187.0678    2.2056257  0.034494503  0.095979092 
   46800   -955.23324    37.441357   -917.79188    1341.0136    -6373.819    2.1847017  0.037864438  0.091671292 
   46900   -956.79934    40.652796   -916.14654    1456.0357   -8651.9894    2.1780276  0.049923395  0.079495393 
   47000   -953.55966    42.632487   -910.92717    1526.9411   -22.608129     2.191594    0.1720704  0.099467742 
   47100   -956.47065    41.121215   -915.34944    1472.8128    5782.0493    2.2142691    0.2872079  0.092540653 
   47200   -957.85695    40.785628   -917.07133    1460.7933    1331.7408    2.2087916  0.071224495  0.093627644 
   47300   -951.29866    42.813192   -908.48547    1533.4133   -8607.3606    2.1643516  0.067788687   0.10316989 
   47400   -955.00149    40.389429   -914.61206    1446.6029   -7691.1533    2.1762592  0.053370307  0.086377399 
   47500   -955.29883    39.050162   -916.24866    1398.6352    3207.2754    2.2079365  0.067594331  0.087338108 
   47600   -953.34321    40.329383   -913.01382    1444.4522    10926.371    2.2211911  0.040600945  0.098086641 
   47700   -950.91946    42.753776   -908.16568    1531.2852   -74.809809    2.1866515   0.15150083   0.10190273 
   47800   -956.05125    39.418062   -916.63319     1411.812   -11735.773    2.1737028   0.11137104  0.093955249 
   47900    -952.9804    37.000573   -915.97983    1325.2264   -5168.1569    2.1808386   0.08966457   0.10189172 
   48000   -953.82485     41.30095    -912.5239    1479.2502    6631.1902    2.2124533    0.0768749  0.091951514 
   48100   -952.72564    38.354778   -914.37086    1373.7291    13666.065    2.2293495  0.017830007   0.09726001 
   48200   -958.24327    38.560732   -919.68254    1381.1056   -3760.4869     2.197566   0.21361163    0.1022923 
   48300   -956.01226    39.933888   -916.07837    1430.2871   -17763.543    2.1574732  0.043311018   0.10257332 
   48400   -953.33142     39.13036   -914.20106    1401.5076   -7826.0867    2.1745828  0.097298425  0.091574611 
   48500   -957.38325    38.394619   -918.98863     1375.156    13052.717    2.2367229  0.065763163  0.088166376 
   48600   -954.23285    34.774024   -919.45883    1245.4794    15587.964    2.2367074   0.11629498  0.093069299 
   48700   -952.04329    37.306167   -914.73712    1336.1716   -2550.9449    2.1890767   0.16099585   0.10455279 
   48800   -952.35958    37.048027   -915.31155     1326.926   -5129.7734    2.1783628    0.0576184   0.10192709 
   48900   -957.03647    34.916049   -922.12042    1250.5663   -2117.8657     2.202067   0.19947333   0.10045215 
   49000   -953.99507    38.288194   -915.70688    1371.3443    3603.2983    2.2029717  0.042369396   0.10099638 
   49100   -951.23833    37.137035    -914.1013    1330.1139    7813.8081    2.2075945  0.059437205  0.098089426 
   49200   -959.29983    41.651648   -917.64818     1491.811   -2028.7811    2.1973916  0.042944534  0.092555578 
   49300   -958.11059    36.501275   -921.60931    1307.3433   -7466.4183    2.1878229  0.035424873  0.092060429 
   49400   -953.17899    39.903263   -913.27572    1429.1902   -6844.2989    2.1774241  0.032869066   0.10025085 
   49500   -953.12322    38.781265   -914.34196    1389.0043     6472.956    2.2101444  0.045186571   0.10412496 
   49600   -955.44061    39.957793   -915.48282    1431.1432    10235.166    2.2188617   0.11036729  0.085756474 
   49700   -952.77978    34.880033   -917.89974    1249.2763    168.83881    2.1917958  0.098928938  0.086976977 
   49800   -959.85215    34.203419   -925.64874    1225.0424   -7653.3962    2.1884003  0.098305549  0.090800198 
   49900   -955.71057     36.83365   -918.87692    1319.2478   -5457.9429    2.1855109   0.12746606  0.094591794 
   50000    -957.6311    41.886969   -915.74413    1500.2393    2126.1377    2.2077809   0.17604589  0.095795187 
   50100   -952.67936    39.292091   -913.38727    1407.3002    8215.0047    2.2125324   0.17461081   0.10487324 
   50200   -955.98083    40.447743   -915.53309    1448.6915   -2269.9295    2.1936565   0.11320182  0.098494067 
   50300   -957.09178    36.487539   -920.60424    1306.8513   -5146.9014    2.1870698    0.1402648   0.10182364 
   50400   -955.39345    39.467439   -915.92601    1413.5805   -199.79054     2.194653   0.19495118  0.098163874 
   50500   -955.18101    41.620311    -913.5607    1490.6886    1809.4175    2.2020657  0.044028169   0.10111826 
   50600   -955.83041    36.011975   -919.81843    1289.8183    1475.3605    2.2052937  0.047972783  0.094933094 
   50700   -953.55162    34.678272   -918.87335      1242.05   -929.56607    2.1935455  0.072251953  0.093960917 
   50800   -954.81999     40.57905   -914.24094    1453.3944    -657.4695    2.1897433   0.12018561  0.077933057 
   50900   -956.29907    40.695897   -915.60317    1457.5795    620.57736    2.1990197   0.12348861  0.080208303 
   51000   -960.41466    38.312621   -922.10204    1372.2192     1564.374    2.2123673  0.048355871  0.079865211 
   51100   -951.73665    37.355138   -914.38152    1337.9256   -148.42041    2.1911334  0.076881997  0.098349946 
   51200   -953.57454     38.68992   -914.88462    1385.7326   -918.14862    2.1906023  0.078915265   0.10585261 
   51300   -957.22247    37.684004   -919.53847    1349.7044   -1065.5923    2.2005752   0.14774962  0.095482141 
   51400   -955.15003    37.330442   -917.81959     1337.041    2794.2831    2.2054054   0.11824834   0.09821652 
   51500   -952.02388    38.884435   -913.13945    1392.6994    1988.2937    2.1920207  0.092812502  0.095310243 
   51600   -954.94514    38.751939    -916.1932    1387.9539   -3472.4146    2.1851641  0.013087243   0.10001881 
   51700   -956.03196    37.890217   -918.14174    1357.0902   -3228.3876    2.1904555  0.088906528  0.085097672 
   51800   -952.33667    42.742155   -909.59451     1530.869    967.06424    2.1931928  0.031847268  0.094346902 
   51900   -954.81433    41.906857   -912.90748    1500.9517    11750.359    2.2260518   0.18721035  0.091043291 
   52000   -953.46801    37.314939   -916.15307    1336.4858    6415.8673    2.2075311   0.13635693  0.088548943 
   52100   -955.12152    40.476768   -914.64475    1449.7311   -14932.023    2.1589157   0.06463023  0.093022286 
   52200   -953.47642    44.450697   -909.02572    1592.0628   -16230.076    2.1504377 0.0090029088   0.10226633 
   52300    -955.2754    38.398457   -916.87694    1375.2935    6636.3949    2.2141624   0.20100716  0.096207182 
   52400   -953.47746    38.268829   -915.20863    1370.6507     12171.85    2.2265717   0.15585275  0.092406694 
   52500   -953.08071     42.40229   -910.67842    1518.6963    2338.4033    2.1938542  0.012721092    0.1042897 
   52600   -955.37326    39.432767   -915.94049    1412.3387    -7926.602    2.1771427  0.075852501   0.10379013 
   52700   -957.53615    39.881216   -917.65493    1428.4005   -9079.3456    2.1819282    0.0446165   0.10530488 
   52800   -952.99067      39.6818   -913.30887    1421.2582    3451.8825    2.2022697    0.1975552  0.092392261 
   52900    -958.0744    42.171605    -915.9028    1510.4339    4133.9094     2.214223  0.034654922  0.090206852 
   53000   -956.99845    36.895137   -920.10331      1321.45    1975.8848    2.2092678  0.055521528   0.08944617 
   53100   -953.28811     38.82118   -914.46693    1390.4339   -4948.2635    2.1837639   0.26158012  0.097138316 
   53200   -955.19378    40.358111   -914.83566    1445.4812   -5029.0219    2.1839744  0.062272627   0.10033757 
   53300   -957.07582    35.796886   -921.27894    1282.1146    3972.1695     2.212268  0.092526088    0.0922104 
   53400    -956.5085    42.509936   -913.99856    1522.5517    2481.0079    2.2058562  0.021262948   0.10109145 
   53500   -952.86585    38.513232   -914.35262    1379.4043    2882.8279    2.1987991  0.030540483   0.12003992 
   53600   -958.11044    38.506444     -919.604    1379.1612   -6160.1187    2.1886018  0.094228842  0.096602426 
   53700   -953.52004    39.305781   -914.21426    1407.7905   -6624.7488    2.1787073   0.11155121   0.10491692 
   53800   -953.04103    40.414704   -912.62633    1447.5081    6338.1883    2.2076573  0.075603727  0.097952408 
   53900   -955.37088    39.017309   -916.35357    1397.4585    12151.082    2.2273429   0.27910309  0.099468981 
   54000   -956.46335    38.627062   -917.83629    1383.4813   -2114.6874    2.1955971  0.024570108  0.093269136 
   54100   -950.05289    40.485821   -909.56707    1450.0553   -15582.554     2.145473  0.077454871   0.10655067 
   54200   -955.96649    39.272059   -916.69443    1406.5827    -6572.145    2.1817007 0.0038993026  0.095043137 
   54300   -956.46235    40.442156    -916.0202    1448.4914    9514.9308    2.2202536   0.11728025   0.10160177 
   54400   -952.12277    42.061783   -910.06099    1506.5005    7798.4523    2.2111894  0.055868412   0.10880939 
   54500   -955.46044     40.40003   -915.06041    1446.9826   -4499.9102    2.1887524  0.045759853   0.10331605 
   54600   -955.54328    37.938467   -917.60482    1358.8183   -8046.1386    2.1787966  0.075501468   0.10341776 
   54700   -952.70244    40.347164   -912.35528    1445.0891   -1941.3168    2.1872042  0.033077106   0.10752747 
   54800   -957.81575    42.187596   -915.62816    1511.0067    2483.2498    2.2101217   0.20003586   0.10150405 
   54900   -959.09701    40.291394   -918.80562    1443.0916    2358.1649    2.2140655  0.029024159  0.091014391 
   55000   -954.56998    40.984293   -913.58569    1467.9088   -1588.0008    2.1917576  0.073574795  0.094678736 
   55100    -954.1438    39.495298    -914.6485    1414.5783   -4601.4637    2.1826854  0.051161097   0.09454456 
   55200   -957.08318    36.550039   -920.53315    1309.0899   -612.30034    2.2013012  0.028686048  0.097957264 
   55300   -956.49207    42.796214   -913.69586    1532.8052    1625.9214    2.2029164  0.081848313   0.10426364 
   55400   -956.03251    41.256551   -914.77596      1477.66     3165.921    2.2056889  0.036274877  0.099751064 
   55500   -956.68069    35.976407   -920.70429    1288.5444   -647.39416    2.2009511 0.0063146385  0.096372267 
   55600   -951.77481    38.836954   -912.93786    1390.9989    -9689.331    2.1671888  0.061135847  0.097474319 
   55700   -954.69714    40.236255   -914.46089    1441.1168   -3233.5001    2.1892294    0.1016327   0.10286839 
   55800   -956.48048     38.77409   -917.70639    1388.7473    13569.068    2.2334677    0.1214509   0.10051492 
   55900   -951.19106    40.346434   -910.84463    1445.0629    11338.524      2.21522  0.047839952  0.092693842 
   56000   -951.84834    38.871064   -912.97728    1392.2205   -6106.2779    2.1736054  0.042260149  0.094832403 
   56100   -954.18616    36.324603   -917.86156    1301.0155   -12993.248    2.1650753  0.033890879  0.092155796 
   56200   -953.24133    39.783082   -913.45825    1424.8857   -1050.8515    2.1906139  0.026070476   0.10393697 
   56300   -953.76246    43.242974   -910.51948    1548.8065    6525.6451    2.2099762  0.052215514   0.11294672 
   56400   -955.25373    38.017078   -917.23666    1361.6339    5959.4699    2.2142618   0.10274917   0.10344234 
   56500    -955.8065     41.03385   -914.77265    1469.6837   -3835.5498    2.1893907  0.011771203  0.096792286 
   56600   -954.14791    43.228456   -910.91945    1548.2865   -7319.6381    2.1729982   0.06474726    0.1044435 
   56700   -954.56181     35.11704   -919.44477     1257.765    3388.1884    2.2064886   0.11203604  0.099928736 
   56800   -954.19838    38.770772   -915.42761    1388.6285    5418.7791    2.2089686  0.088651437  0.097270589 
   56900   -952.91612    40.310512   -912.60561    1443.7763    2079.1747    2.1969125    0.0696223   0.10363842 
   57000   -955.09625    34.818763   -920.27749    1247.0818   -1848.7343    2.1961891   0.20121005  0.092634254 
   57100   -954.91656    38.468364    -916.4482    1377.7973   -5674.9517    2.1845495  0.045498248  0.094340732 
   57200   -957.18649     44.13013   -913.05636    1580.5812   -2743.0718    2.1922362  0.030143786  0.091488779 
   57300   -956.35604    37.223534    -919.1325     1333.212    6440.9504    2.2182431  0.078486434   0.10901605 
   57400   -955.65678    38.464175    -917.1926    1377.6473    3821.5194    2.2101475  0.083942212   0.10189328 
   57500   -953.81682    40.646313    -913.1705    1455.8035   -6748.7276    2.1792144   0.12968835   0.11185505 
   57600   -956.24837    38.429014   -917.81936    1376.3879   -10663.511    2.1738498  0.050355081   0.10983163 
   57700   -953.83411    36.687756   -917.14635    1314.0224    3562.0459    2.2075618   0.41982723  0.098748265 
   57800   -952.17951    42.186298   -909.99321    1510.9602    15864.234    2.2292939   0.14616773     0.100213 
   57900   -952.30636    36.983867   -915.32249     1324.628    7057.2448     2.209954   0.18651812  0.098520508 
   58000   -954.88729    37.014299   -917.87299    1325.7179   -9700.9181    2.1742653   0.03515957  0.094751115 
   58100   -951.05819    41.246677   -909.81152    1477.3064    -8894.011    2.1620979  0.082116556   0.10113592 
   58200    -953.8501    40.077401    -913.7727    1435.4271    3763.2712    2.2027122  0.054301567  0.096202249 
   58300   -957.80701    41.334587   -916.47242     1480.455    5996.1587    2.2145245  0.076833825  0.086161787 
   58400   -954.07446     40.71449   -913.35997    1458.2454     327.5231    2.1946838  0.050259304   0.09612659 
   58500   -949.04679    39.318774   -909.72802    1408.2559   -5842.6773     2.170004   0.07756542   0.10404141 
   58600   -956.56786    38.589533   -917.97833    1382.1371   -3035.8625    2.1926707  0.026483822  0.080554342 
   58700   -956.38349    41.242716   -915.14077    1477.1645    3022.6457    2.2048735  0.067536568  0.085674307 
   58800   -952.72067    41.241508   -911.47916    1477.1213    4491.0571    2.2002266  0.055916622   0.10154853 
   58900   -957.78512    38.832238   -918.95288    1390.8299   -1604.3199     2.195771  0.096327767  0.075679266 
   59000   -955.46707    37.895869    -917.5712    1357.2926   -8470.6019     2.178899   0.16492126    0.1008756 
   59100   -954.02422    40.176525   -913.84769    1438.9774    -5165.333    2.1844087  0.050032859  0.096255023 
   59200    -956.0668    39.575606   -916.49119    1417.4547    5633.3426    2.2095885   0.10129945  0.094138078 
   59300   -958.13523     37.84753    -920.2877    1355.5613    6431.6769    2.2210902  0.062150147  0.099844109 
   59400    -954.3698    40.618708   -913.75109    1454.8148   -2839.0958    2.1899334  0.084683077  0.097542208 
   59500   -953.95538    38.417716   -915.53766    1375.9833   -9605.3124    2.1687268  0.012639044  0.092714696 
   59600   -957.29232    35.990825    -921.3015    1289.0608   -6103.0319    2.1894384   0.13506483  0.087269873 
   59700   -952.93675    38.565915   -914.37083    1381.2912    13165.459    2.2258059  0.045448881   0.10042234 
   59800   -952.99715    40.283376   -912.71378    1442.8045    21116.215    2.2427611  0.048311616  0.092167378 
   59900    -954.2526    36.331977   -917.92062    1301.2797   -2012.8961    2.1904017  0.031567023  0.086840808 
   60000   -951.74523     39.54629   -912.19894    1416.4047   -14857.962     2.154219  0.082471734  0.096093877 
   60100   -951.95755    40.239374   -911.71818    1441.2284   -3141.3199    2.1796447   0.16302238  0.096286777 
   60200    -955.7554    39.270283   -916.48512    1406.5191    4963.1549    2.2129126  0.035491705  0.092637079 
   60300   -953.08037    37.759052   -915.32132    1352.3923    7391.1313    2.2131145   0.01069942   0.10190191 
   60400    -950.6016    41.988401    -908.6132    1503.8722   -3400.0188    2.1793843   0.13197113   0.10870595 
   60500   -952.35535    35.615679   -916.73967    1275.6245   -2708.4663    2.1856045  0.029314239  0.096983405 
   60600   -952.61603    36.425413   -916.19062    1304.6262   -2494.3492    2.1905092  0.048560101   0.10654612 
   60700   -949.40339    38.600542   -910.80285    1382.5314    5739.3598    2.1971364  0.044714897  0.092144827 
   60800   -956.48043    40.294894   -916.18554     1443.217     3494.085    2.2050929  0.017536161  0.088253549 
   60900   -958.86225    41.019376   -917.84288    1469.1653   -5705.4585    2.1901579  0.055041466  0.085776397 
   61000   -953.77394    39.713846   -914.06009     1422.406   -4860.3673    2.1806835  0.014893435  0.085049766 
   61100   -953.96127    40.760958   -913.20031    1459.9097    392.48507    2.1927687  0.070853214   0.09048874 
   61200   -957.71059    37.099521   -920.61107    1328.7703    9748.4647    2.2257032   0.18525316  0.085380466 
   61300   -957.64089    42.885737   -914.75515    1536.0116    2507.3059    2.2055435  0.068067425  0.085939989 
   61400    -951.0173    36.781507    -914.2358    1317.3802   -5850.1672    2.1731317   0.15132836   0.10655936 
   61500   -956.76905     36.05877   -920.71028    1291.4944   -10022.116    2.1757376  0.062948243  0.097398209 
   61600   -955.23789    38.288355   -916.94954      1371.35    2667.1853    2.2023048  0.028377159   0.09837444 
   61700   -952.17568    39.587644   -912.58804    1417.8858    13227.676    2.2253072   0.14129234  0.098201188 
   61800   -955.42698    37.956238   -917.47074    1359.4548    5078.4378    2.2118992   0.10573008  0.092777531 
   61900   -956.41456     37.20798   -919.20658    1332.6549   -7802.4843    2.1810466   0.07600305   0.10232561 
   62000   -952.09167    40.615296   -911.47637    1454.6926   -9540.9404    2.1660395  0.017146442   0.10363729 
   62100   -952.18587    36.520226   -915.66564    1308.0221    2829.5463    2.1991231  0.083871308  0.099346947 
   62200   -955.64086    38.419588   -917.22128    1376.0503    4527.0722    2.2123002  0.057006086  0.096439231 
   62300   -951.86702    42.804141   -909.06288    1533.0891   -103.50527    2.1871783  0.075064785  0.096038586 
   62400    -955.0026    39.574714   -915.42788    1417.4227   -1625.7039    2.1924341  0.092580879  0.095742807 
   62500   -954.18999    37.290043   -916.89995    1335.5941   -266.32897    2.1915232   0.04956431   0.10022339 
   62600    -951.9056    41.483344   -910.42226    1485.7829   -301.03449    2.1855195   0.11020943  0.092372822 
   62700   -953.36255    38.466288   -914.89627    1377.7229    4290.3097    2.2035344  0.021275726   0.10654951 
   62800   -955.44542    38.113966   -917.33145     1365.104    1072.5549      2.20156   0.12451277   0.10469131 
   62900   -954.48965    41.317703   -913.17195    1479.8503   -4987.6851    2.1861398  0.020619817   0.10412675 
   63000   -951.70696    38.331416   -913.37554    1372.8923   -2141.7543    2.1826459  0.011883837   0.10551608 
   63100   -955.41955    36.094687   -919.32486    1292.7808    2813.9158    2.2073339   0.13934339    0.1004133 
   63200   -953.87586    40.058922   -913.81693    1434.7653    8304.3779    2.2158663   0.18429882   0.10353886 
   63300   -954.04372     39.66786   -914.37586    1420.7589    2036.1973    2.2004989  0.016224338  0.090024354 
   63400   -957.54395    36.071505   -921.47245    1291.9505   -9090.1661    2.1826467  0.083929349  0.091869523 
   63500   -955.82516    40.386945   -915.43821    1446.5139    -10994.71    2.1699256  0.017082144   0.10074572 
   63600   -954.25261    40.860148   -913.39247    1463.4623    4035.3442    2.2027762   0.06565236   0.10523663 
   63700   -957.92877    38.800125   -919.12864    1389.6798     12187.69    2.2341698  0.045148381  0.097802836 
   63800   -956.39063    40.602013   -915.78862    1454.2168    3741.1702    2.2052771      0.11845   0.09455667 
   63900   -950.97238    37.811638   -913.16075    1354.2757   -6001.0848    2.1727372   0.19591138   0.11344445 
   64000   -954.95103    37.272151   -917.67888    1334.9533   -7423.0267    2.1807629  0.097573328    0.1132172 
   64100   -955.78636    39.070702   -916.71566    1399.3709    4020.4309    2.2070551  0.065146935   0.10845285 
   64200   -953.52949    43.031852   -910.49764    1541.2449    3861.0823    2.2001609  0.010049549   0.10441526 
   64300   -957.56416    41.078023   -916.48614    1471.2658     -1662.64    2.1972103 0.0018527053   0.09294359 
   64400   -954.56052    37.839665   -916.72086    1355.2796   -1929.7004    2.1892657  0.032408652  0.092523745 
   64500   -949.90168    40.698247   -909.20343    1457.6636   -3351.3276    2.1757515  0.088461948   0.10013918 
   64600   -954.00397    37.633835   -916.37014    1347.9075    3136.5548    2.2044922  0.010945434  0.096565372 
   64700   -956.58839    40.120141   -916.46825     1436.958    1946.4662    2.2075739  0.019907403  0.099328114 
   64800   -948.00347    37.839274    -910.1642    1355.2656    377.72502    2.1882788  0.025039672   0.10792846 
   64900   -952.75803    36.604805   -916.15323    1311.0514   -1263.5341    2.1915657  0.053960528   0.10027972 
   65000   -955.25808    38.044756   -917.21333    1362.6252   -1907.3036     2.192864  0.028043816   0.09937321 
   65100   -952.92383    40.484619   -912.43921    1450.0122    792.34634    2.1980896  0.092775026    0.1155441 
   65200   -955.85153    39.776408   -916.07512    1424.6467    3301.1701    2.2085341  0.077260228    0.1024685 
   65300   -957.06706    38.067117   -918.99994    1363.4261    325.67596     2.204647  0.025715137   0.10459862 
   65400   -953.31162    39.454711   -913.85691    1413.1247   -5151.9534     2.183417  0.044851555   0.10397846 
   65500   -952.94543    38.177878   -914.76755    1367.3931   -4140.5571    2.1867658  0.041552149   0.10001187 
   65600   -961.42929    41.032404   -920.39689    1469.6319    4306.4769    2.2233989  0.037095233  0.082642976 
   65700   -956.29314    43.396833    -912.8963    1554.3172    8199.6478    2.2193566  0.045313504  0.093291786 
   65800   -953.20332    38.370802   -914.83252     1374.303    100.41966    2.1935738  0.047015434   0.11182765 
   65900   -956.33719     36.01398   -920.32321    1289.8902    -9103.237    2.1783891    0.1160767  0.092789703 
   66000   -953.37208    39.356891   -914.01519    1409.6211   -5349.6166    2.1808702    0.1823881   0.10799835 
   66100   -952.20871    39.137902    -913.0708    1401.7777    8559.6177    2.2132094   0.13881397   0.10183126 
   66200     -952.813    35.406847   -917.40615    1268.1449    12130.891    2.2227762  0.053725576   0.10837663 
   66300   -951.85116    38.544326   -913.30684     1380.518   -781.91043    2.1902213   0.19810927   0.10372284 
   66400    -950.5519    38.838389   -911.71351    1391.0502   -8872.1628    2.1702718   0.19522123   0.10799999 
   66500   -954.25461    36.911039   -917.34357    1322.0196   -3588.4672    2.1896715   0.11142242   0.11416855 
   66600   -956.80733    42.110367   -914.69697    1508.2406    3081.7668    2.2085917   0.10544565  0.094498087 
   66700   -953.75265    44.513212   -909.23944    1594.3018     4452.202    2.2062991  0.076142815   0.10628185 
   66800    -952.1823    35.345119   -916.83718     1265.934    3582.3563    2.2034559  0.097963072  0.093808251 
   66900    -952.8639    37.268981   -915.59492    1334.8397    -4006.749    2.1848788  0.093789541  0.097728794 
   67000   -949.69289    39.511406   -910.18148    1415.1553   -3513.1058    2.1799587   0.13422933   0.10088339 
   67100   -957.80197    39.216246   -918.58573    1404.5837     4641.366    2.2150934  0.088379654   0.08831981 
   67200   -954.69877    38.185493   -916.51327    1367.6659     4298.225    2.2096382  0.079685085  0.097074275 
   67300     -954.239    41.430508   -912.80849    1483.8905   -2406.6088    2.1891356  0.094924464  0.098209653 
   67400   -957.52155    40.593923   -916.92762    1453.9271   -7020.0361    2.1855602   0.11867437  0.099063339 
   67500   -957.97914    38.781592   -919.19754     1389.016   -2830.0119    2.1978376   0.10467646  0.092550242 
   67600   -952.65773     39.16875   -913.48898    1402.8826      4388.31    2.2023166   0.09850813   0.10953636 
   67700   -954.25212    38.438819    -915.8133    1376.7391    3801.6699    2.2038808   0.10494985   0.10443426 
   67800   -959.87122    38.770175   -921.10104    1388.6071   -1328.7209     2.206695  0.090877388   0.09839999 
   67900   -955.43956    41.799717   -913.63984    1497.1143   -3286.4354    2.1877813  0.066521873  0.099580968 
   68000   -955.17456     40.05915   -915.11541    1434.7735   -1532.1156    2.1948955  0.011370403  0.094476448 
   68100   -954.17678    33.842664   -920.33412    1212.1215    4188.7038    2.2118855   0.02616566   0.10377568 
   68200   -955.47044    42.791974   -912.67846    1532.6533    104.85856    2.1966049   0.21007215  0.087079773 
   68300   -952.39191    38.422338   -913.96957    1376.1488    1233.4387    2.1976371   0.24495508  0.096714836 
   68400   -954.61268    36.634006   -917.97867    1312.0972    248.56636    2.1976036  0.058108465  0.097460032 
   68500   -953.12722    40.711573   -912.41564    1458.1409   -610.12186    2.1923258   0.15832156  0.095206412 
   68600   -950.35578    38.565756   -911.79003    1381.2855    4963.9389    2.2003658 0.0027418369   0.10972661 
   68700   -954.65623    37.787195   -916.86904    1353.4003    3770.0266    2.2076809  0.071935996   0.10429224 
   68800   -952.78734    38.503233    -914.2841    1379.0462    190.83888    2.1945809   0.22301646   0.11626238 
   68900   -948.77743    38.897688   -909.87975    1393.1741   -4571.7052    2.1746709   0.01271808   0.11517879 
   69000   -955.14144    37.312839    -917.8286    1336.4106    596.22748    2.2015722 0.0028485031   0.10255068 
   69100   -958.28787    43.363444   -914.92442    1553.1213    5527.7361     2.218926  0.087029455   0.11402368 
   69200   -952.42101    41.901994   -910.51902    1500.7775    4366.5889    2.2037997  0.060394437   0.10637324 
   69300   -955.23013    36.994042   -918.23609    1324.9924   -5657.2152    2.1893127   0.24001215    0.1004997 
   69400   -953.10967    36.287459   -916.82221    1299.6852   -11312.808    2.1690954  0.026768613  0.099934501 
   69500   -949.77741    36.776323   -913.00108    1317.1945   -845.05251    2.1902639   0.20720463   0.10938248 
   69600   -957.46948    38.960603   -918.50887    1395.4275    11239.825    2.2324233  0.094291781  0.092561647 
   69700    -958.5034    39.702848   -918.80055     1422.012     6032.558    2.2224861  0.038052005   0.10384831 
   69800   -954.19055    40.495703   -913.69485    1450.4092   -4501.6956    2.1863477 0.0069374715   0.10596943 
   69900   -954.39731    38.357795   -916.03952    1373.8371   -7338.0773    2.1792486  0.089002054   0.10944839 
   70000   -954.53069    33.616707   -920.91398    1204.0285    1015.2981    2.2058247    0.1028657   0.11283843 
   70100   -953.09569    40.107522   -912.98817     1436.506    3533.5458    2.2061389   0.21917537   0.10950906 
   70200    -952.6093    37.773185   -914.83612    1352.8985    4597.2906    2.2070858   0.15461443   0.10622755 
   70300   -956.71609    37.266757   -919.44934    1334.7601   -856.50227    2.2028384  0.096443352   0.10483334 
[...]
  186800    -952.2682    35.980887   -916.28731    1288.7049    10772.513    2.2257044    5.7790232   0.11226578 
  186900   -951.24182    40.102985   -911.13883    1436.3435    11461.266    2.2207949    5.8322465   0.09713085 
  187000   -951.70556    39.653818   -912.05174    1420.2559    -4129.606    2.1862823     5.293647   0.11030793 
  187100   -953.06259    35.647484   -917.41511    1276.7636   -4985.0016    2.1837722    6.0382344   0.11224203 
  187200   -952.78842    39.168476   -913.61995    1402.8728   -750.70281    2.1910905    5.8068076   0.11026471 
  187300    -948.9032    39.051181   -909.85202    1398.6717     4764.001    2.1986255     6.820048   0.11457297 
  187400   -959.32222    41.249376   -918.07285    1477.4031    3176.6782    2.2154811    6.1885223  0.090623669 
  187500   -955.96205    40.634062   -915.32799    1455.3647   -2087.7573     2.197177    6.9807683   0.10808067 
  187600   -952.88782    40.775795   -912.11203    1460.4411   -5897.3195    2.1792955     7.389421   0.11125852 
  187700   -958.58664    38.154769   -920.43187    1366.5655   -2594.0375     2.200827      6.19925  0.088322724 
  187800   -955.04888    38.277274    -916.7716    1370.9531    1723.2587    2.2030367    6.4243565  0.095734253 
  187900   -954.90583    41.888948   -913.01688    1500.3102    1620.8685    2.2041302    6.0504935  0.097787259 
  188000   -956.89456    38.153651    -918.7409    1366.5254   -1017.8511    2.2020791    7.0925012    0.1010602 
  188100   -953.71736    34.994715   -918.72264    1253.3838   -3004.9958    2.1892667    6.5192838   0.10308848 
  188200    -953.4691    39.868765   -913.60034    1427.9546    -3657.869    2.1855754     5.889257  0.097777673 
  188300   -958.48924    42.067854   -916.42139     1506.718    1395.4692    2.2097249    6.1288142   0.10556598 
  188400   -959.16239    39.013697    -920.1487    1397.3291    6646.4863    2.2254698    6.7493772   0.10191411 
  188500   -952.45065    40.538265   -911.91238    1451.9336   -1989.9495    2.1873882    5.8305662   0.11599851 
  188600    -953.7333    38.396012   -915.33729    1375.2059   -10944.168    2.1716206    5.5678351  0.098705226 
  188700   -954.88236    36.444577   -918.43778    1305.3126   -3299.5333    2.1929291    6.8000122  0.090711221 
  188800   -949.82898    38.322423   -911.50656    1372.5702    12655.371    2.2204927    5.5462396  0.095689089 
  188900   -951.18246    38.978557    -912.2039    1396.0705    12140.319    2.2209658    6.2435286  0.098273148 
  189000   -954.19797    36.713914   -917.48405    1314.9593   -3594.2096    2.1924924     5.736056    0.1066373 
  189100   -953.71708    39.947045   -913.77004    1430.7583   -10819.679    2.1705624    6.5847379   0.10916529 
  189200    -950.7839    40.459229   -910.32467    1449.1029   -3212.9984    2.1842892    6.5490405   0.11143239 
  189300   -958.07539     41.15838   -916.91702    1474.1439    4396.6989    2.2181127    7.0068225  0.099307366 
  189400   -955.42668    40.523718   -914.90296    1451.4126    5430.5054    2.2160967    6.1923549    0.1082905 
  189500   -951.14366    41.550924   -909.59274    1488.2034   -2595.1805    2.1854172    6.0117343   0.11490435 
  189600   -955.42096    37.540669   -917.88029    1344.5706   -2770.8395     2.195617    6.8290861   0.10813223 
  189700   -954.48286    38.372313   -916.11054    1374.3571   -815.97519      2.19683    6.6471941   0.11655407 
  189800   -951.90563    40.245027   -911.66061    1441.4309    2427.1113    2.1988352    4.9939738  0.094027946 
  189900   -954.69393    35.801893   -918.89204     1282.294    2684.9195    2.2101745    5.9293486  0.095152613 
  190000   -954.99786    37.452317   -917.54555    1341.4062   -2248.9892    2.1912129    6.1799712  0.087103622 
  190100   -955.31654    41.750606   -913.56594    1495.3553   -5729.2324    2.1837798    5.8662057  0.096814442 
  190200   -955.87803    38.100097   -917.77793    1364.6073     851.0008    2.2036942    6.8291164   0.11178068 
  190300   -957.69488    38.281652   -919.41323      1371.11    5844.5623    2.2186851    6.5387268    0.0941886 
  190400   -952.72172    39.820109   -912.90161    1426.2119    4082.8456    2.2034555    6.8190195   0.10778766 
  190500   -952.72438    36.298776    -916.4256    1300.0905   -6795.6883    2.1796305    6.2190923  0.098524093 
  190600    -956.5044    35.540357   -920.96405    1272.9267   -11325.102    2.1743441     7.014436   0.10152642 
  190700   -954.60662    40.820259   -913.78636    1462.0337    1350.0443    2.1996953    5.7798775   0.10836299 
  190800    -955.0419    41.799034   -913.24287    1497.0898    17077.827    2.2407311     6.078688   0.10679222 
  190900   -956.61148    38.888556   -917.72293    1392.8471    5906.0369    2.2157595    5.9538636  0.093704106 
  191000   -951.75435     41.15833   -910.59602    1474.1421   -9964.0487    2.1664986    5.8123322   0.10008824 
  191100   -950.42245    37.706774   -912.71568    1350.5199   -6906.7467    2.1734639    7.1263561   0.10317415 
  191200   -957.17604    40.306004   -916.87004    1443.6149    520.42575    2.2048078    6.0058629    0.1030672 
  191300   -955.09672    41.120218    -913.9765    1472.7771    7126.9381    2.2190278    6.8989191   0.11324532 
  191400   -952.09185    42.549857   -909.54199    1523.9816    1945.5158    2.1969345    5.9931725   0.11608339 
  191500   -957.79567    40.601274    -917.1944    1454.1904   -5676.7695    2.1913172    5.8150475  0.096876353 
  191600   -956.90642    41.428849   -915.47757    1483.8311   -7144.9254    2.1869682    6.2521346   0.10003276 
  191700   -949.58683    39.555346   -910.03148     1416.729    4342.5003    2.1957189    6.3954257   0.10220154 
  191800    -955.1585    37.119356   -918.03915    1329.4807    8344.2502    2.2220087    4.4750856   0.10417971 
  191900   -953.40365    36.511586   -916.89206    1307.7126    2157.6912    2.2017533    6.0084145   0.10009188 
  192000   -952.58551    39.209374   -913.37613    1404.3376   -6406.2483    2.1791526    5.2284303  0.098853132 
  192100   -956.96044    42.505106   -914.45533    1522.3788   -5509.4203    2.1861264    6.1297908   0.10227195 
  192200   -958.83258    38.971931   -919.86065    1395.8332    6840.1195    2.2241754    7.7725193  0.095066445 
  192300   -955.18547    41.676125   -913.50935    1492.6877    12526.017    2.2302301    6.6676901  0.099458189 
  192400   -957.24374    42.190363   -915.05338    1511.1058   -2867.8246    2.1964024    6.4612236  0.093577481 
  192500   -956.13476    34.730889   -921.40387    1243.9345   -12836.796    2.1727746    6.3638428   0.10409103 
  192600   -952.47246    36.976613   -915.49585    1324.3682   -8203.5932    2.1759694    5.9459409   0.11358933 
  192700   -952.18216    39.237102   -912.94505    1405.3307    9446.3136    2.2178929    5.3735104  0.091870189 
  192800   -956.90596    38.846442   -918.05952    1391.3387    8231.2019     2.225698    5.6193005  0.090917023 
  192900     -956.004    39.308812   -916.69519    1407.8991    -618.9673    2.2007426    6.4883608  0.093330623 
  193000   -955.52203    43.407103   -912.11493     1554.685    -7881.127    2.1788787     5.739257   0.10996973 
  193100   -954.95223      38.0746   -916.87763    1363.6941   -2964.4442    2.1916215    7.6152351   0.10005808 
  193200   -955.68805    39.583777   -916.10428    1417.7473    2122.8465    2.2058405    7.7883668   0.10178108 
  193300   -949.79806    40.291276   -909.50678    1443.0874    3824.6718    2.1996147     7.841777   0.10340158 
  193400   -953.72967    37.422949   -916.30672    1340.3543    2588.5206    2.2053238    6.7991097   0.10318038 
  193500   -955.17558    38.900355   -916.27522    1393.2696   -3084.6771    2.1939786    6.2620816   0.11188991 
  193600    -947.2717    37.854761   -909.41694    1355.8203     -2347.08    2.1782375    4.6156197   0.10325446 
  193700   -956.20532     38.95142    -917.2539    1395.0986    1597.4211    2.2073689    6.1993102  0.099477317 
  193800   -953.30123    37.045724   -916.25551    1326.8435    6466.3778    2.2105044    7.5133885     0.092469 
  193900   -948.60435    36.696867   -911.90748    1314.3487    1151.6321    2.1912423    5.6971278   0.10321765 
  194000   -953.99168    38.600456   -915.39123    1382.5284   -7128.1657    2.1780391    6.4277217   0.10020131 
  194100   -956.12833    37.504264   -918.62406    1343.2667   -5293.0573    2.1900641     6.725007  0.095827638 
  194200   -951.18959    37.968326   -913.22127    1359.8877     9335.017    2.2139648    6.8850954   0.10533552 
  194300   -953.96626    38.463267   -915.50299    1377.6147    10795.303    2.2233546    7.9409922   0.10429028 
  194400   -960.07928    39.087054   -920.99223    1399.9565   -3167.9036    2.2011616    5.7869619   0.10291304 
  194500   -952.25613    38.151492   -914.10464    1366.4481   -12021.633    2.1618791    6.6819759  0.099450474 
  194600   -952.02117    37.627531   -914.39364    1347.6817    -3990.995    2.1816382    5.0419029  0.090193286 
  194700   -957.12361    37.228802   -919.89481    1333.4007    9368.5489    2.2269059    7.2985844  0.089641963 
  194800   -951.91137    38.892764   -913.01861    1392.9978    10824.299    2.2176104    5.5256952   0.10089302 
  194900   -952.94092    39.265462   -913.67546    1406.3464    71.327486    2.1925221    5.5053598   0.10335998 
  195000   -957.31056     39.02805   -918.28251    1397.8432   -7889.4602    2.1831516    6.3954442  0.093613947 
  195100   -953.02891    38.338155   -914.69075    1373.1337   -266.06004     2.188613    6.5947583  0.091274676 
  195200   -952.81044     41.15728   -911.65316    1474.1045    2447.1073    2.1972015    7.4145021   0.10297255 
  195300   -955.46334     38.70091   -916.76243    1386.1262    1620.0032     2.202863     5.975543   0.10890776 
  195400   -955.70747    39.648186   -916.05929    1420.0542   -1763.8227    2.1944967    5.7888717  0.093269664 
  195500   -953.75408    44.336249   -909.41783    1587.9637   -5584.3642    2.1760679    5.5220459   0.09042936 
  195600   -955.55588    38.625472   -916.93041    1383.4243   -834.85461    2.1966242    5.7169384  0.091352252 
  195700   -957.70054    42.029296   -915.67125     1505.337    1318.0961    2.2035254    5.8163267  0.083634246 
  195800   -953.13626    43.523291   -909.61297    1558.8464    768.24572    2.1934712    6.2676605  0.090871581 
  195900   -957.28337    40.059015   -917.22435    1434.7686   -3133.5422    2.1951073    7.2178471   0.10036411 
  196000   -954.04267    37.317171    -916.7255    1336.5658   -5785.5423    2.1807317    6.3345216  0.091131901 
  196100     -950.342    38.131436   -912.21057    1365.7298   -1645.0864    2.1823451    8.0168688   0.11043433 
  196200   -957.26001    39.012956   -918.24705    1397.3026    7505.0575    2.2197237    5.9470498  0.091037432 
  196300   -957.34502     39.32343   -918.02159    1408.4227    8828.5253    2.2213184    6.4934749  0.091589305 
  196400   -950.50773    36.919853   -913.58788    1322.3353   -1525.9363    2.1827503    6.4816544  0.098563497 
  196500    -953.1209    38.063917   -915.05698    1363.3115   -13414.882    2.1616214    5.4188684  0.098982931 
  196600    -958.5441    37.640821   -920.90328    1348.1577     -1783.19    2.1988073    6.4445526  0.089156159 
  196700     -950.924    37.728079   -913.19592     1351.283    13203.716    2.2236654    5.5483263   0.10362798 
  196800   -953.26941    38.733883   -914.53553    1387.3072    8799.5133    2.2171263    7.8950582   0.10361788 
  196900   -958.56147    38.660578   -919.90089    1384.6817   -5838.1963    2.1928035    6.7550886  0.089856554 
  197000   -951.48739    38.390778   -913.09661    1375.0184   -6726.3162    2.1748155    6.6236232   0.11076333 
  197100   -953.62803     40.29361   -913.33442     1443.171   -190.03486    2.1953508    7.2575947  0.098478217 
  197200   -956.52293    39.370659   -917.15227    1410.1142    5447.5707    2.2122266    7.5216214   0.10500067 
  197300   -956.39251    41.530763   -914.86175    1487.4813    1014.0624    2.2037727    6.2466462   0.10658146 
  197400   -952.44467    41.617323   -910.82735    1490.5816   -5545.0492    2.1805227    5.7917865    0.1037992 
  197500   -956.28548    39.235479      -917.05    1405.2726   -5037.0367    2.1893981    5.5524543  0.098702344 
  197600   -956.68656    41.435548   -915.25101     1484.071    98.511606    2.2007488    5.4108647  0.095847472 
  197700   -952.88378    43.972373   -908.91141    1574.9309    3053.9352    2.1968727    4.5241494   0.10831619 
  197800   -957.01822    39.972432   -917.04579    1431.6676     2521.112    2.2090988    5.7477467    0.1000006 
  197900   -955.71903    39.791282   -915.92775    1425.1794   -3316.6555    2.1925999    6.1542665   0.10586562 
  198000   -953.07362    41.941874   -911.13175    1502.2058   -8142.7909    2.1754683     6.957684   0.12428668 
  198100   -956.82869    37.716852   -919.11183    1350.8809    689.67144    2.2047073     5.929132  0.099832935 
  198200   -956.79712    39.920191   -916.87693    1429.7965    7936.9668    2.2204026    7.5632949   0.10440053 
  198300   -955.02769    42.461281   -912.56641    1520.8091    6306.0829    2.2091201     6.110756   0.10128051 
  198400    -956.0764    39.266705   -916.80969     1406.391   -10406.579    2.1726734     5.238297    0.1006815 
  198500    -955.2077     35.46775   -919.73995    1270.3262   -12009.185    2.1666946    5.6161293  0.099267475 
  198600   -952.39585    38.782789   -913.61306    1389.0589     2421.457    2.1958877    4.7716889  0.095926831 
  198700   -957.43574      42.8865   -914.54924    1536.0389     11575.72    2.2278734    6.2771974  0.094242067 
  198800   -958.89498    38.573689   -920.32129    1381.5696    6121.9768    2.2180803    5.7553375  0.092271868 
  198900   -952.78324    40.798925   -911.98431    1461.2695   -8453.1118    2.1708735    5.7739767   0.10067975 
  199000   -954.79857    40.467685   -914.33088    1449.4057   -6534.7147    2.1779328    6.2822086   0.10169668 
  199100   -953.26946    35.723355   -917.54611     1279.481    4099.0539     2.204914    6.0867768   0.10410817 
  199200   -953.27853     40.06176   -913.21677     1434.867    8137.3723    2.2128979    6.2501816   0.10405581 
  199300   -953.19816    41.758202   -911.43996    1495.6274    442.06202    2.1944621    6.2654777   0.10280697 
  199400   -955.91981    38.599385   -917.32042      1382.49   -6011.0333    2.1854336    6.0219853   0.10780191 
  199500   -953.69401    39.157058   -914.53695    1402.4638   -4375.9396    2.1837323    5.3131591   0.10241823 
  199600   -951.76867    42.438246   -909.33043    1519.9841    1615.9123    2.1906798    5.1238441   0.10619259 
  199700   -955.24772    38.228894   -917.01882    1369.2203    8335.3116     2.215587    5.7195244  0.091080532 
  199800   -958.04669    42.783163   -915.26353    1532.3377   -555.95337    2.2005501    5.1702501   0.09757513 
  199900   -949.10677    38.241767     -910.865    1369.6814   -5231.8764      2.17122    5.7059414   0.12445558 
  200000   -956.18866    36.874953    -919.3137    1320.7271    -5689.074    2.1872315    6.2308368   0.10007913 
  200100   -956.03285    39.280089   -916.75277    1406.8703     2738.749    2.2061201    6.9726849   0.10612192 
  200200   -953.82938    42.042488   -911.78689    1505.8094    11633.301    2.2227141    6.8628428    0.1086082 
  200300   -956.39164    38.571012   -917.82063    1381.4738    3278.7391    2.2058012    5.6172858  0.094346057 
  200400   -953.11928    34.102226   -919.01705    1221.4181   -14793.311    2.1608549    6.4387319   0.11156349 
  200500   -951.45504    37.297952   -914.15709    1335.8774   -11963.993    2.1649074    5.8961647    0.1184568 
  200600   -955.05358    39.988957   -915.06462    1432.2594    5897.5222     2.212576    6.2924179   0.10148792 
  200700   -956.73301    36.384432   -920.34858    1303.1584    13374.437    2.2357605    5.8063387   0.10277304 
  200800   -954.67676    42.191909   -912.48485    1511.1612   -1388.5119    2.1933087    5.4347226   0.10616451 
  200900   -952.78269    38.195632   -914.58706     1368.029   -6363.2934    2.1794321    7.9451885   0.11524155 
  201000   -952.61452    34.083441   -918.53108    1220.7453   -1762.5187    2.1931021    6.8151684   0.12100903 
  201100   -953.71711    39.013527   -914.70359     1397.323    3139.6857    2.2081315    7.1584322   0.11785294 
  201200   -953.06392    41.353768   -911.71015     1481.142    5069.7685    2.2070758    6.3858936   0.11700093 
  201300   -954.45738     37.74847   -916.70891    1352.0133   -1226.3534    2.1981496    6.9525588   0.10698445 
  201400   -957.19378    41.285269   -915.90851    1478.6886   -6187.7212    2.1862927    5.3741591   0.10084697 
  201500   -950.24724    40.848073   -909.39916    1463.0299   -5187.1387    2.1760511    4.8282765   0.11955541 
  201600   -954.49344    37.851742    -916.6417    1355.7121    4634.4149    2.2114763    6.4477101    0.1057958 
  201700   -953.83923    37.921525    -915.9177    1358.2115    7221.1433    2.2171418    6.5934673   0.11321679 
  201800   -948.73252     39.02877   -909.70375     1397.869    911.63103    2.1898931    5.6992795   0.11149231 
  201900   -955.47305    39.289767   -916.18328     1407.217   -9669.3037    2.1771285    6.8209463   0.11247799 
  202000   -952.28774    35.157447   -917.13029    1259.2123   -8138.6797    2.1794247    6.7891915   0.11991796 
  202100    -953.0259    40.937574   -912.08833    1466.2354     6708.845    2.2102724    6.1773241   0.11508229 
  202200    -956.9551    40.228744   -916.72635    1440.8477    15320.442    2.2418096    7.2174246    0.1125112 
  202300   -956.62459    37.749799   -918.87479    1352.0609    249.93101    2.2051296    6.6920886   0.10279872 
  202400   -952.70874    38.273682   -914.43505    1370.8245    -14152.75    2.1606829    5.7801995   0.11230446 
  202500   -954.59271    41.047254   -913.54546    1470.1638   -9235.7562    2.1781068    5.6334355  0.096819798 
  202600   -958.97088    38.037363   -920.93352    1362.3604    6650.5076    2.2258952    5.2356368  0.092785191 
  202700   -955.41931    41.174742   -914.24456    1474.7299    5363.4353    2.2137935    5.2580103   0.10676009 
  202800   -952.85434    38.694327   -914.16001    1385.8905    1123.5041    2.1974109    5.3973314  0.097703199 
  202900   -956.29854    36.528163   -919.77037    1308.3063   -4107.1268    2.1943755    6.5582061   0.10696478 
  203000   -955.25353    39.914073   -915.33945    1429.5774   -1645.6679    2.1947343    6.3365828   0.10902348 
  203100   -952.59242    39.612202   -912.98022    1418.7654    4348.9097    2.2056189    8.0662232   0.11077146 
  203200   -953.88837    36.698473    -917.1899    1314.4062    4126.3095    2.2118201    5.5064104   0.11693986 
Loop time of 144.633 on 1 procs for 200000 steps with 217 atoms

Performance: 358.424 ns/day, 0.067 hours/ns, 1382.807 timesteps/s
100.0% CPU use with 1 MPI tasks x no OpenMP threads

MPI task timing breakdown:
Section |  min time  |  avg time  |  max time  |%varavg| %total
---------------------------------------------------------------
Pair    | 141.25     | 141.25     | 141.25     |   0.0 | 97.66
Neigh   | 0.33698    | 0.33698    | 0.33698    |   0.0 |  0.23
Comm    | 0.8556     | 0.8556     | 0.8556     |   0.0 |  0.59
Output  | 0.067368   | 0.067368   | 0.067368   |   0.0 |  0.05
Modify  | 1.8236     | 1.8236     | 1.8236     |   0.0 |  1.26
Other   |            | 0.3007     |            |       |  0.21

Nlocal:    217 ave 217 max 217 min
Histogram: 1 0 0 0 0 0 0 0 0 0
Nghost:    957 ave 957 max 957 min
Histogram: 1 0 0 0 0 0 0 0 0 0
Neighs:    4239 ave 4239 max 4239 min
Histogram: 1 0 0 0 0 0 0 0 0 0
FullNghs:  8478 ave 8478 max 8478 min
Histogram: 1 0 0 0 0 0 0 0 0 0

Total # of neighbors = 8478
Ave neighs/atom = 39.0691
Neighbor list builds = 567
Dangerous builds = 3
Total wall time: 0:02:26
