LAMMPS (3 Mar 2020)
Reading data file ...
  orthogonal box = (0 0 0) to (6.4012 6.4012 6.4012)
  1 by 1 by 1 MPI processor grid
  reading atoms ...
  8 atoms
  read_data CPU = 0.000848778 secs
Reading potential file library.meam with DATE: 2012-06-29
Reading potential file LiSi.meam with DATE: 2020-11-07
WARNING: Calling write_dump before a full system init. (src/write_dump.cpp:80)
WARNING: Using 'neigh_modify every 1 delay 0 check yes' setting during minimization (src/min.cpp:190)
Neighbor list info ...
  update every 1 steps, delay 0 steps, check yes
  max neighbors/atom: 2000, page size: 100000
  master list distance cutoff = 6
  ghost atom cutoff = 6
  binsize = 3, bins = 3 3 3
  2 neighbor lists, perpetual/occasional/extra = 2 0 0
  (1) pair meam/c, perpetual
      attributes: full, newton on
      pair build: full/bin/atomonly
      stencil: full/bin/3d
      bin: standard
  (2) pair meam/c, perpetual, half/full from (1)
      attributes: half, newton on
      pair build: halffull/newton
      stencil: none
      bin: none
Setting up cg style minimization ...
  Unit style    : metal
  Current step  : 0
WARNING: Energy due to 1 extra global DOFs will be included in minimizer energies
Per MPI rank memory allocation (min/avg/max) = 9.731 | 9.731 | 9.731 Mbytes
Step PotEng Lx Ly Lz Press Pxx Pyy Pzz 
       0   -10.899687       6.4012       6.4012       6.4012  0.074311852  0.074311852  0.074311852  0.074311852 
       1   -10.899687    6.4012033    6.4012033    6.4012033 -7.0411597e-06 -7.0411597e-06 -7.0411597e-06 -7.0411597e-06 
Loop time of 0.000114315 on 1 procs for 1 steps with 8 atoms

71.7% CPU use with 1 MPI tasks x no OpenMP threads

Minimization stats:
  Stopping criterion = energy tolerance
  Energy initial, next-to-last, final = 
         -10.899686536      -10.899686536      -10.899686536
  Force two-norm initial, final = 3.64967e-05 3.45812e-09
  Force max component initial, final = 3.64967e-05 3.45812e-09
  Final line search alpha, max atom move = 1 3.45812e-09
  Iterations, force evaluations = 1 2

MPI task timing breakdown:
Section |  min time  |  avg time  |  max time  |%varavg| %total
---------------------------------------------------------------
Pair    | 9.248e-05  | 9.248e-05  | 9.248e-05  |   0.0 | 80.90
Neigh   | 0          | 0          | 0          |   0.0 |  0.00
Comm    | 3.514e-06  | 3.514e-06  | 3.514e-06  |   0.0 |  3.07
Output  | 0          | 0          | 0          |   0.0 |  0.00
Modify  | 0          | 0          | 0          |   0.0 |  0.00
Other   |            | 1.832e-05  |            |       | 16.03

Nlocal:    8 ave 8 max 8 min
Histogram: 1 0 0 0 0 0 0 0 0 0
Nghost:    162 ave 162 max 162 min
Histogram: 1 0 0 0 0 0 0 0 0 0
Neighs:    112 ave 112 max 112 min
Histogram: 1 0 0 0 0 0 0 0 0 0
FullNghs:  224 ave 224 max 224 min
Histogram: 1 0 0 0 0 0 0 0 0 0

Total # of neighbors = 224
Ave neighs/atom = 28
Neighbor list builds = 0
Dangerous builds = 0
Total energy (eV) = -10.8996865360076
Number of atoms = 8
Lattice constant (Angstoms) = 6.40120326153326
Total wall time: 0:00:00
