LAMMPS (3 Mar 2020)

    # ---------- Initialize simulation ---------------------
    units metal
    atom_style atomic
    dimension  3
    boundary   p p p
    read_data /home/modeler/RemLabs/Lab4/Problem2A/temp_1260/lammps.data
  orthogonal box = (0 0 0) to (12.27 12.27 12.27)
  1 by 1 by 1 MPI processor grid
  reading atoms ...
  108 atoms
  read_data CPU = 0.000857295 secs

    pair_style eam
    pair_coeff * * /usr/share/lammps-stable/potentials/Ag_u3.eam
Reading potential file /usr/share/lammps-stable/potentials/Ag_u3.eam with DATE: 2007-06-11

    velocity  all create 1260 87287 dist gaussian

    # ---------- Describe computed properties------------------
    compute msdall all msd
    thermo_style custom step pe ke etotal temp press density c_msdall[4]
    thermo 100

    # ---------- Specify ensemble  ---------------------
    #fix  1 all nve
    fix  1 all nvt temp 1260 1260 0.05

    # --------- Compute RDF ---------------
    compute rdfall all rdf 100 1 1
    fix 2 all ave/time 1 2500 2500 c_rdfall[*] file /home/modeler/RemLabs/Lab4/Problem2A/temp_1260/lammps.rdf mode vector

    # --------- Run -------------
    timestep 0.001
    run 10000
Neighbor list info ...
  update every 1 steps, delay 10 steps, check yes
  max neighbors/atom: 2000, page size: 100000
  master list distance cutoff = 7.55
  ghost atom cutoff = 7.55
  binsize = 3.775, bins = 4 4 4
  2 neighbor lists, perpetual/occasional/extra = 1 1 0
  (1) pair eam, perpetual
      attributes: half, newton on
      pair build: half/bin/atomonly/newton
      stencil: half/bin/3d/newton
      bin: standard
  (2) compute rdf, occasional, copy from (1)
      attributes: half, newton on
      pair build: copy
      stencil: none
      bin: none
Per MPI rank memory allocation (min/avg/max) = 3.723 | 3.723 | 3.723 Mbytes
Step PotEng KinEng TotEng Temp Press Density c_msdall[4] 
       0       -307.8    17.426853   -290.37315         1260    10076.318    10.472245            0 
     100   -296.61289    10.642946   -285.96995    769.50852    44024.098    10.472245  0.068669797 
     200   -293.21247    17.727832   -275.48464    1281.7615    59890.219    10.472245  0.080046218 
     300   -289.16255     21.21528   -267.94727    1533.9117    75685.869    10.472245  0.094819462 
     400   -290.12713    16.216495   -273.91063    1172.4885    69157.776    10.472245   0.10160855 
     500   -292.51735    19.435018   -273.08233    1405.1948    64765.309    10.472245  0.075635705 
     600   -291.66845    16.432649    -275.2358    1188.1169    63335.838    10.472245  0.089308247 
     700   -289.78944    17.913885   -271.87556    1295.2135    72022.072    10.472245   0.10047888 
     800   -290.74122    17.942105   -272.79912    1297.2538    68115.075    10.472245  0.089180576 
     900   -290.12467    15.751879   -274.37279    1138.8957    68288.775    10.472245  0.095794462 
    1000   -289.53361    18.183656   -271.34995    1314.7186    73561.314    10.472245  0.090373712 
    1100   -290.54186    18.012627   -272.52923    1302.3527    70198.239    10.472245   0.09357767 
    1200   -289.69883    16.515064   -273.18376    1194.0757    71849.357    10.472245   0.10525861 
    1300   -287.89579    18.895042   -269.00074    1366.1533    78047.571    10.472245  0.097946577 
    1400   -293.07201    17.731862   -275.34015    1282.0528    61269.024    10.472245  0.069905807 
    1500   -291.91873    17.981696   -273.93703    1300.1164     64824.23    10.472245  0.087418031 
    1600   -288.27889    18.372493    -269.9064    1328.3719    76978.807    10.472245   0.11759641 
    1700    -289.6411     19.16551   -270.47559    1385.7088    72799.343    10.472245   0.10874795 
    1800   -292.24034    19.005335   -273.23501    1374.1278    62994.577    10.472245  0.093258407 
    1900   -289.39465    16.062159   -273.33249    1161.3296    71826.521    10.472245   0.10308905 
    2000   -290.37777    17.462028   -272.91575    1262.5432    69466.127    10.472245  0.081578231 
    2100    -291.6157    17.092084   -274.52361    1235.7955    65351.788    10.472245  0.084790545 
    2200   -287.52734    18.595698   -268.93164    1344.5101    78134.929    10.472245   0.10072466 
    2300   -287.50196    17.137414   -270.36455    1239.0729    79134.433    10.472245   0.10975647 
    2400   -290.66194     16.87982   -273.78212    1220.4483    67795.518    10.472245  0.087830547 
    2500   -292.54273    18.266442   -274.27629    1320.7041    62882.416    10.472245  0.076509969 
    2600   -291.90843    15.401671   -276.50676    1113.5749    63610.181    10.472245    0.0780714 
    2700   -290.57637    17.523114   -273.05325    1266.9599    68018.851    10.472245  0.077817857 
    2800     -289.215    14.611022   -274.60398    1056.4092    71210.292    10.472245  0.095967487 
    2900   -289.42593    17.993293   -271.43263    1300.9549    72852.903    10.472245  0.081158994 
    3000   -291.55926     16.06895   -275.49031    1161.8206     64673.33    10.472245  0.081839645 
    3100   -290.29673    16.219466   -274.07727    1172.7032    67798.499    10.472245  0.088686186 
    3200   -290.22685     16.46352   -273.76333    1190.3489    69133.026    10.472245  0.091974111 
    3300   -290.92834    21.341132   -269.58721    1543.0111    70250.728    10.472245  0.088566329 
    3400     -290.309    17.592207   -272.71679    1271.9555    69527.486    10.472245   0.10163228 
    3500   -290.65924     18.76197   -271.89727    1356.5319    68854.664    10.472245  0.097676634 
    3600   -290.80301    17.231684   -273.57133    1245.8889    67936.528    10.472245  0.078835134 
    3700   -292.60379    14.715374   -277.88842    1063.9541    59966.419    10.472245  0.073937059 
    3800   -291.51215    17.832032   -273.68011    1289.2954    66518.488    10.472245  0.085727327 
    3900   -289.88089    18.525349   -271.35554    1339.4237    70752.605    10.472245  0.092622859 
    4000    -289.8699    15.805133   -274.06477     1142.746    69817.256    10.472245  0.094450995 
    4100   -292.11661    17.482205   -274.63441    1264.0021    63290.619    10.472245  0.084510062 
    4200   -287.29645    18.310339   -268.98611     1323.878    78941.038    10.472245   0.10912033 
    4300   -290.51789    18.163319   -272.35457    1313.2481    69818.114    10.472245  0.096326754 
    4400   -291.90715    18.187991   -273.71916     1315.032    64259.559    10.472245  0.083468603 
    4500    -291.0972    18.419891   -272.67731    1331.7989    66687.226    10.472245  0.092927997 
    4600   -288.14847    14.754129   -273.39434    1066.7561    74548.563    10.472245    0.1138898 
    4700   -290.33782    18.926945   -271.41088      1368.46     71353.65    10.472245  0.089080711 
    4800   -290.70293    16.261809   -274.44112    1175.7648    69401.643    10.472245  0.090456732 
    4900    -291.0793    15.953573   -275.12572    1153.4786     66277.45    10.472245  0.088231027 
    5000   -287.95891    16.567106   -271.39181    1197.8384    77615.021    10.472245   0.11525142 
    5100   -289.99546    20.363825   -269.63163    1472.3496     73187.57    10.472245  0.099085352 
    5200   -288.74612    15.149566   -273.59656    1095.3471    73076.203    10.472245   0.10103108 
    5300   -291.12081    19.159463   -271.96134    1385.2716    68134.711    10.472245  0.077187085 
    5400   -290.97435    15.975685   -274.99867    1155.0774    67134.514    10.472245   0.09726776 
    5500    -289.1476    17.998725   -271.14888    1301.3476    73192.323    10.472245  0.098698793 
    5600    -289.4363    15.246763   -274.18953    1102.3747    71843.845    10.472245  0.097667998 
    5700   -288.69423    17.289773   -271.40446    1250.0888    74038.112    10.472245  0.085776029 
    5800   -291.23659    18.755919   -272.48067    1356.0944    66522.498    10.472245  0.081518621 
    5900   -290.90304    16.710965   -274.19208    1208.2397    67829.956    10.472245  0.077291343 
    6000   -290.96305    17.004031   -273.95902    1229.4291    66763.123    10.472245  0.086210132 
    6100   -291.72547    17.091839   -274.63364    1235.7778    64110.176    10.472245  0.090998284 
    6200   -289.30833    16.404872   -272.90346    1186.1085    72722.317    10.472245  0.096534634 
    6300   -289.48059    16.745809   -272.73478     1210.759     72286.87    10.472245  0.095501325 
    6400   -291.43872    15.858693   -275.58003    1146.6186     65001.82    10.472245  0.089714964 
    6500   -289.88045    17.447695   -272.43276     1261.507    71056.927    10.472245     0.103561 
    6600   -290.92731     18.96603   -271.96128    1371.2859      68120.8    10.472245   0.10167327 
    6700   -291.34195    17.697079   -273.64487     1279.538    67494.279    10.472245  0.092491972 
    6800   -292.43849    16.013606   -276.42489    1157.8191    62176.899    10.472245   0.10057639 
    6900   -289.42061    17.720836   -271.69978    1281.2556    73131.919    10.472245   0.11212093 
    7000   -288.83252    19.083976   -269.74854    1379.8137    76226.553    10.472245   0.10059845 
    7100   -292.62579    17.583118   -275.04267    1271.2983    61117.086    10.472245  0.086140598 
    7200   -291.27002    18.454317   -272.81571    1334.2879    68049.169    10.472245  0.086420055 
    7300   -290.41652    16.273508   -274.14301    1176.6106    70081.895    10.472245  0.078474705 
    7400   -290.67217     15.44443   -275.22774    1116.6664    67580.835    10.472245  0.090330698 
    7500   -290.05938    19.427471   -270.63191    1404.6491    72674.094    10.472245  0.092494644 
    7600   -291.04821    17.304638   -273.74357    1251.1636    65677.105    10.472245  0.095054641 
    7700   -291.73395    18.034078   -273.69987    1303.9037     64771.27    10.472245   0.08636709 
    7800   -289.48024    16.622387   -272.85786    1201.8354    71352.145    10.472245  0.088201379 
    7900   -290.89803    15.689999   -275.20803    1134.4216    67531.131    10.472245  0.089689938 
    8000   -289.69771    15.669632   -274.02808    1132.9491    70952.808    10.472245   0.10602146 
    8100   -287.60031     17.74725   -269.85306    1283.1655    78368.295    10.472245   0.12896775 
    8200    -288.5134    15.364111   -273.14929    1110.8592     74047.06    10.472245   0.11092834 
    8300   -294.01974    19.037682   -274.98206    1376.4665    57860.611    10.472245  0.065771733 
    8400   -290.95041    15.340749   -275.60966    1109.1701    68165.603    10.472245  0.091844386 
    8500   -289.07129    17.363454   -271.70783    1255.4161    74282.594    10.472245   0.10091417 
    8600   -289.58453    16.224504   -273.36002    1173.0675    72170.834    10.472245   0.10250408 
    8700   -290.01909    16.837025   -273.18207    1217.3541    69479.616    10.472245   0.10481719 
    8800   -288.37751     16.36429   -272.01322    1183.1744    76217.495    10.472245   0.10455364 
    8900   -289.55106    16.696338   -272.85472    1207.1822    70532.692    10.472245  0.098700342 
    9000   -292.11893    15.835488   -276.28344    1144.9408    63166.001    10.472245  0.089271374 
    9100    -292.9489    19.044129   -273.90477    1376.9327    62350.303    10.472245  0.078649984 
    9200   -290.66354    16.277304   -274.38623    1176.8851    68414.988    10.472245  0.099554323 
    9300   -288.97044    18.951035   -270.01941    1370.2018    75857.453    10.472245   0.10235375 
    9400   -289.35844    15.630879   -273.72756    1130.1471    72041.951    10.472245   0.10423272 
    9500    -290.3814    15.810524   -274.57087    1143.1358    69151.765    10.472245   0.10014824 
    9600   -288.96926    18.877318   -270.09194    1364.8718    74175.883    10.472245  0.099302949 
    9700   -290.52048    17.426051   -273.09443     1259.942    68306.457    10.472245  0.084256651 
    9800   -290.99607    15.046831   -275.94924    1087.9192    65920.314    10.472245  0.095262622 
    9900   -289.94624    17.254629   -272.69161    1247.5479    70472.033    10.472245   0.09153791 
   10000   -290.72699    16.439878   -274.28711    1188.6395    67969.924    10.472245  0.095478148 
Loop time of 2.10762 on 1 procs for 10000 steps with 108 atoms

Performance: 409.941 ns/day, 0.059 hours/ns, 4744.686 timesteps/s
100.0% CPU use with 1 MPI tasks x no OpenMP threads

MPI task timing breakdown:
Section |  min time  |  avg time  |  max time  |%varavg| %total
---------------------------------------------------------------
Pair    | 1.3963     | 1.3963     | 1.3963     |   0.0 | 66.25
Neigh   | 0          | 0          | 0          |   0.0 |  0.00
Comm    | 0.041528   | 0.041528   | 0.041528   |   0.0 |  1.97
Output  | 0.0016855  | 0.0016855  | 0.0016855  |   0.0 |  0.08
Modify  | 0.65862    | 0.65862    | 0.65862    |   0.0 | 31.25
Other   |            | 0.009492   |            |       |  0.45

Nlocal:    108 ave 108 max 108 min
Histogram: 1 0 0 0 0 0 0 0 0 0
Nghost:    990 ave 990 max 990 min
Histogram: 1 0 0 0 0 0 0 0 0 0
Neighs:    4644 ave 4644 max 4644 min
Histogram: 1 0 0 0 0 0 0 0 0 0

Total # of neighbors = 4644
Ave neighs/atom = 43
Neighbor list builds = 0
Dangerous builds = 0
    
Total wall time: 0:00:02
