LAMMPS (3 Mar 2020)

    # ---------- Initialize simulation ---------------------
    units metal
    atom_style atomic
    dimension  3
    boundary   p p p
    read_data /home/modeler/RemLabs/Lab4/ProblemEC1_v2_size_4/temp_1270/lammps.data
  orthogonal box = (0 0 0) to (16.36 16.36 16.36)
  1 by 1 by 1 MPI processor grid
  reading atoms ...
  256 atoms
  read_data CPU = 0.000975329 secs

    pair_style eam
    pair_coeff * * /usr/share/lammps-stable/potentials/Ag_u3.eam
Reading potential file /usr/share/lammps-stable/potentials/Ag_u3.eam with DATE: 2007-06-11

    velocity  all create 1270 87287 dist gaussian

    # ---------- Describe computed properties------------------
    compute msdall all msd
    thermo_style custom step pe ke etotal temp press density c_msdall[4]
    thermo 100

    # ---------- Specify ensemble  ---------------------
    #fix  1 all nve
    #fix  1 all nvt temp 1270 1270 0.25
    fix 1 all npt temp 1270 1270 0.25 tchain 2 iso 1.0 1.0 1.0 pchain 2

    # --------- Compute RDF ---------------
    compute rdfall all rdf 100 1 1
    fix 2 all ave/time 1 125000 125000 c_rdfall[*] file /home/modeler/RemLabs/Lab4/ProblemEC1_v2_size_4/temp_1270/lammps.rdf mode vector

    # --------- Run -------------
    timestep 0.005
    run 500000
Neighbor list info ...
  update every 1 steps, delay 10 steps, check yes
  max neighbors/atom: 2000, page size: 100000
  master list distance cutoff = 7.55
  ghost atom cutoff = 7.55
  binsize = 3.775, bins = 5 5 5
  2 neighbor lists, perpetual/occasional/extra = 1 1 0
  (1) pair eam, perpetual
      attributes: half, newton on
      pair build: half/bin/atomonly/newton
      stencil: half/bin/3d/newton
      bin: standard
  (2) compute rdf, occasional, copy from (1)
      attributes: half, newton on
      pair build: copy
      stencil: none
      bin: none
Per MPI rank memory allocation (min/avg/max) = 3.744 | 3.744 | 3.744 Mbytes
Step PotEng KinEng TotEng Temp Press Density c_msdall[4] 
       0       -729.6    41.860898    -687.7391         1270    10211.164    10.472245            0 
     100   -706.89287    22.740645   -684.15223    689.91876   -3407.3676    10.026412  0.065710043 
     200   -701.97159    22.024383   -679.94721    668.18841    -8131.703    9.8989871  0.098422641 
     300   -701.68892    25.377639   -676.31129     769.9214    1229.5434     9.982757  0.093972852 
     400   -701.17098    28.484286    -672.6867    864.17267    4228.5134    9.9995053  0.092416663 
     500    -697.4441    28.194216   -669.24989    855.37234    1179.5182    9.9079736   0.10466905 
     600   -695.46613     29.74268   -665.72345    902.35053   -3127.6309    9.8265796   0.12488767 
     700   -694.74873    32.464693   -662.28403    984.93252   -3286.3818    9.8116891   0.13140039 
     800    -689.7394     30.97124   -658.76816    939.62331    11399.434    9.8809997   0.15028496 
     900   -690.85006    35.457264   -655.39279    1075.7229     2594.695    9.7895671   0.13966109 
    1000    -687.4103    35.454377   -651.95593    1075.6353   -4815.6899    9.6585537   0.18053213 
    1100   -683.18114    34.708615   -648.47252    1053.0099   -1547.0076    9.6305893   0.20979279 
    1200   -683.85599    38.732937   -645.12305    1175.1021    4559.8761    9.6812049   0.19435182 
    1300   -681.87814    40.367422   -641.51072    1224.6901   -3952.8068    9.5611657   0.21679461 
    1400    -677.5737    39.418955   -638.15475    1195.9149    715.85992    9.5501329   0.22126051 
    1500   -677.38359     42.49319    -634.8904    1289.1828    990.89559      9.53444   0.26175542 
    1600   -673.68324    42.012578   -631.67066    1274.6018    5877.6127    9.5372063   0.28099024 
    1700   -679.78787     41.54996   -638.23791    1260.5666     96.08163    9.5596831   0.21672624 
    1800   -677.42011     38.54399   -638.87612    1169.3697   -533.65623     9.516082   0.23337327 
    1900   -674.67078    42.022471   -632.64831    1274.9019   -5359.4872    9.3923302   0.29250837 
    2000   -674.24793    41.903223    -632.3447    1271.2841    7062.1783    9.5401538   0.24992407 
    2100   -677.95157    40.911632   -637.03994    1241.2006   -3285.4842    9.4889871   0.27397251 
    2200   -672.54012    41.262836   -631.27728    1251.8557   -9169.2194    9.3321832   0.31580725 
    2300   -670.33626    40.535005   -629.80125    1229.7743    -9334.734    9.2822419   0.36909816 
    2400   -678.76335    41.070771   -637.69258    1246.0287    2824.4801    9.5800857   0.21186539 
    2500   -678.21129    42.173621   -636.03767    1279.4876    1508.3288    9.5399462   0.25042278 
    2600   -671.66599     40.39865   -631.26734    1225.6375    6901.0884    9.4901276   0.29538271 
    2700   -676.64748    42.714506   -633.93298    1295.8972   -12153.291    9.3630783   0.27052543 
    2800   -677.18325    39.156346    -638.0269    1187.9478   -15344.878    9.3420101   0.25728318 
    2900   -673.84506    41.166643   -632.67841    1248.9373   -909.93275    9.4535446   0.27348689 
    3000   -672.47746    40.676052   -631.80141    1234.0535    6852.6451    9.5024217   0.28523092 
    3100   -683.75446    44.918071   -638.83639    1362.7503     3990.484    9.6579999   0.18478725 
    3200   -678.23809     40.61863   -637.61946    1232.3114     6856.162    9.6278045   0.20357624 
    3300   -672.16463    38.284242   -633.88039    1161.4894    -2217.997    9.4068107   0.30115575 
    3400     -673.877    43.233307   -630.64369    1311.6369   -3020.4645    9.3991662   0.32824364 
    3500   -675.87752    41.391115    -634.4864    1255.7475   -8704.3545    9.3839144   0.30630463 
    3600    -679.3791    39.604542   -639.77456    1201.5454   -10943.531    9.4359021   0.26651114 
    3700   -674.77455    42.028788   -632.74576    1275.0935    356.51094    9.4687679   0.26146646 
    3800   -676.19944    42.034272   -634.16517    1275.2599   -1909.2511    9.4798463   0.23227102 
    3900   -678.72078     39.31378     -639.407    1192.7241   -2782.0682    9.5181685   0.22594315 
    4000   -676.21837    41.392775   -634.82559    1255.7978    449.20286    9.4799148   0.24564377 
    4100   -673.01632    41.447358   -631.56897    1257.4538   -989.62372    9.4305874   0.30122802 
    4200   -675.45183    42.414874   -633.03695    1286.8069    6059.3782    9.5509633   0.26322481 
    4300   -680.13037    40.416584   -639.71379    1226.1816    706.25707    9.5742255   0.21747312 
    4400   -674.50415    40.479542   -634.02461    1228.0916   -620.64776    9.4613227   0.26522218 
    4500   -674.79512    42.984508   -631.81061    1304.0887   -5426.1846    9.4079435   0.30222884 
    4600   -674.04627    38.086254   -635.96001    1155.4827    4715.1503    9.5197719   0.27879929 
    4700   -680.89664    41.139132   -639.75751    1248.1027   -7870.8791    9.4887919   0.23331626 
    4800   -675.01573    43.278899   -631.73683    1313.0201   -449.94904    9.4521044    0.2551586 
    4900   -676.89968    42.956114   -633.94357    1303.2273    5756.7736    9.5607726   0.23465883 
    5000   -676.83971    37.847609    -638.9921    1148.2425    4465.8685    9.5514701   0.25219931 
    5100   -671.91569     37.69796   -634.21773    1143.7024   -4194.8468    9.3912779   0.29239112 
    5200   -672.44405    43.339039   -629.10501    1314.8447   -7050.2697    9.3351465   0.31571486 
    5300   -675.82296    40.633722   -635.18924    1232.7692    2026.5912     9.501735    0.2592725 
    5400   -678.89836    42.787533   -636.11083    1298.1128   -552.46491    9.5422414   0.23871922 
    5500   -671.10519    40.820849   -630.28434    1238.4464    1415.9085    9.4200174   0.28701644 
    5600   -671.03499    43.598666   -627.43633    1322.7214   -10136.513    9.2916968   0.31517798 
    5700   -676.83862    41.257605   -635.58102    1251.6969    3495.5761    9.5452523   0.24539183 
    5800   -675.91388    40.546448   -635.36743    1230.1215    5868.2138    9.5610507    0.2339929 
    5900   -675.88949    42.244903   -633.64458    1281.6502   -2090.9991    9.4868962   0.24516314 
    6000   -681.16299    38.788171   -642.37482    1176.7778    1142.9661    9.6093126   0.21824203 
    6100    -680.9082    42.369821   -638.53838      1285.44   -6893.2075    9.4987129   0.23127494 
    6200   -674.18731    39.478192   -634.70912    1197.7121   -3864.9295    9.4280334   0.27137087 
    6300   -678.13663    46.856703   -631.27993    1421.5656   -505.58121    9.5136569   0.24043544 
    6400   -680.08845    45.566425   -634.52202    1382.4204    7330.1585    9.6341503   0.22030757 
    6500   -678.33482    39.237425    -639.0974    1190.4076    10765.524    9.6668867   0.21448986 
    6600   -677.60385    42.749038   -634.85481    1296.9449   -4284.2184    9.4743428   0.25691904 
    6700   -675.87753    44.018646   -631.85888     1335.463   -9358.9454    9.3839002   0.29883679 
    6800   -674.00606    46.692923   -627.31314    1416.5967   -431.18979    9.4503746   0.27951636 
    6900   -675.99974    43.878709   -632.12103    1331.2175    6866.2506    9.5565022   0.24965454 
    7000   -678.71118    41.707794   -637.00339     1265.355   -2820.5196    9.5194413   0.23311097 
    7100   -677.10769    41.927731   -635.17996    1272.0276    2742.9161    9.5554968   0.28317244 
    7200   -675.79606    44.975118   -630.82094     1364.481    1764.4773    9.4942881   0.24591533 
    7300   -675.30344    43.996488   -631.30695    1334.7908    5079.4762    9.5316978   0.28092948 
    7400   -678.71899    39.487095   -639.23189    1197.9822    3897.5325    9.5751192   0.23943068 
    7500   -680.21671    42.211392   -638.00532    1280.6335   -14652.106    9.4131199   0.25382593 
    7600   -675.74202    43.200433   -632.54159    1310.6396   -1189.4626    9.4498846   0.26939261 
    7700   -679.13393    44.646176   -634.48776    1354.5014   -1337.7898    9.5276373   0.24879894 
    7800   -680.52056    40.151841   -640.36872    1218.1497    4730.5455    9.6373366   0.24337276 
    7900   -677.91107     44.18169   -633.72938    1340.4095   -1462.3767    9.5091186   0.24255334 
    8000   -674.22675    41.940282   -632.28647    1272.4084    2173.6559    9.4912639   0.24756642 
    8100   -681.32895     42.34657   -638.98238    1284.7346    2956.5943    9.6200284   0.19673512 
    8200    -678.0086     42.39997   -635.60863    1286.3547    8433.9539    9.6174065   0.21361729 
    8300   -675.39561    43.187421   -632.20819    1310.2448    1718.5338    9.4921846   0.27002442 
    8400   -677.55052     42.11684   -635.43368    1277.7649   -4932.3288    9.4732678   0.25179468 
    8500   -680.97235    39.567339   -641.40501    1200.4167   -3201.3962    9.5384231   0.24579232 
    8600    -678.0559    44.502703    -633.5532    1350.1486    128.50724     9.509652   0.25848359 
    8700   -675.08193    42.359156   -632.72277    1285.1164    15850.309    9.6504555    0.2311343 
    8800    -679.5038    42.184956   -637.31884    1279.8315    1601.5854    9.5704937   0.20848497 
    8900   -677.68549    37.496059   -640.18943     1137.577   -957.19796    9.5170127   0.23437851 
    9000    -675.8201    44.262455   -631.55765    1342.8598   -12522.084    9.3459839   0.28479349 
    9100   -674.96437    41.208315   -633.75605    1250.2016    -1020.036    9.4559701   0.28152432 
    9200   -679.85643    41.249491   -638.60694    1251.4508     691.4489    9.5801196   0.20769576 
    9300   -680.13352    40.901089   -639.23243    1240.8807    10877.705    9.6825686   0.19123142 
    9400   -674.74923    43.032418   -631.71681    1305.5423    9096.1412    9.5581586   0.24439284 
    9500   -673.06057    39.302552   -633.75802    1192.3834    1469.3777    9.4561595   0.25647932 
    9600   -678.41261    39.330277   -639.08233    1193.2246   -8352.2479    9.4582262   0.24706061 
    9700   -680.27807    44.451121   -635.82695    1348.5837   -1206.8465     9.555473   0.23093443 
    9800     -673.083    43.257327   -629.82567    1312.3657    7571.7861    9.5071372   0.27086441 
    9900   -678.63848    43.603618   -635.03486    1322.8716   -10280.933       9.4249   0.24368958 
   10000   -676.81193    39.379025    -637.4329    1194.7035   -558.74883    9.5086603   0.24178635 
   10100   -673.41984    41.690507   -631.72933    1264.8306    1900.3815     9.465461   0.27902007 
   10200    -674.4014    41.580214   -632.82118    1261.4844   -5795.9695     9.397377    0.2697866 
   10300   -676.73717    38.712112   -638.02506    1174.4703   -4616.9881    9.4695728   0.28771571 
   10400   -673.25543    40.788275   -632.46716    1237.4581     -6947.52     9.376082   0.28491377 
   10500   -673.08676    41.485158    -631.6016    1258.6006   -3549.4744    9.4215148   0.26423842 
   10600   -677.02155    38.569262   -638.45229    1170.1364    5812.3668    9.5850287   0.23481098 
   10700   -680.39731    45.209659   -635.18765    1371.5966   -7382.5507    9.4802578   0.26047688 
   10800   -671.99795    42.647176   -629.35077    1293.8546    -4407.737    9.3738376   0.33374432 
   10900   -676.18647    41.437261    -634.7492    1257.1475    -3251.633    9.4638094   0.26065197 
   11000   -678.55398    41.205461   -637.34852     1250.115    4019.9569    9.5832877   0.22243849 
   11100   -678.00912    44.124252   -633.88486    1338.6669    3683.8234    9.5678999   0.24066699 
   11200   -673.04095    46.189289   -626.85166    1401.3172     4410.061    9.4781862   0.25036668 
   11300   -676.39036    42.779413   -633.61095    1297.8664   -237.60222    9.5010149   0.27466868 
   11400   -678.55944     44.05844     -634.501    1336.6703   -2510.8109    9.5029126   0.23565893 
   11500   -676.49828    45.020733   -631.47755    1365.8649   -3296.2829       9.4596   0.27049524 
   11600   -672.37241    41.972204    -630.4002    1273.3769    2000.0833    9.4595271   0.30146972 
   11700   -679.14802     42.49268   -636.65534    1289.1674     2402.138    9.5726383   0.21372455 
   11800   -678.61495    40.356558   -638.25839    1224.3605   -3209.3478    9.4929573   0.21937587 
   11900   -672.34953     41.98987   -630.35966    1273.9128   -10254.525     9.314145   0.33903036 
   12000   -675.97258    42.514755   -633.45783    1289.8371   -4091.3858    9.4441689   0.26926285 
   12100   -679.78868     43.32992   -636.45876     1314.568    8890.0896    9.6511564   0.19582273 
   12200   -673.71376    40.274189   -633.43957    1221.8615    9411.3604    9.5446937    0.2729847 
   12300   -671.99425    44.050791   -627.94346    1336.4382   -3995.2693    9.3670223   0.28440455 
   12400   -678.79548    44.256453   -634.53903    1342.6777   -2788.5343    9.5047788   0.23775157 
   12500   -678.00044    42.502903   -635.49754    1289.4775    2410.6627    9.5487498   0.22913191 
   12600   -677.31447    45.940386   -631.37409    1393.7659   -3846.4649    9.4646617   0.24670953 
   12700    -670.6267    44.976474   -625.65023    1364.5221    3937.4296    9.4271871    0.3022101 
   12800   -678.78552    44.699999   -634.08552    1356.1343   -4603.8784    9.4838854   0.25155287 
   12900   -674.66802    38.813531   -635.85449    1177.5472   -9688.7702    9.3735352   0.28210574 
   13000   -672.87377    38.662469    -634.2113    1172.9642    1216.2362    9.4298662   0.25089799 
   13100   -677.28741    37.642647   -639.64477    1142.0243    1368.0008     9.538243    0.2214502 
   13200   -681.10514    40.024581   -641.08056    1214.2887    120.26342    9.5897193   0.20990275 
   13300   -679.50454    44.088538     -635.416    1337.5834   -3569.0569    9.5168702   0.25152357 
   13400   -675.04503    43.185678   -631.85935    1310.1919    3271.1419    9.5007603   0.25172999 
   13500   -676.01215    42.340804   -633.67135    1284.5597    949.13116      9.51445   0.24572588 
   13600   -680.86632    42.032267   -638.83405    1275.1991    2399.6564    9.6119786   0.19575253 
   13700    -674.5679      40.4328    -634.1351    1226.6736    8690.3514    9.5510606   0.23206196 
   13800   -676.15096    45.111392   -631.03957    1368.6154   -6991.0479    9.4048683    0.2799077 
   13900   -673.56171     42.88171      -630.68      1300.97   -6591.5249    9.3707534   0.24531816 
   14000   -679.05067    40.967233   -638.08344    1242.8875   -1704.2881    9.5319515   0.24583339 
   14100    -675.9753    40.353822   -635.62148    1224.2775    3468.4568    9.5216748   0.24615243 
   14200   -672.19124    39.983131   -632.20811    1213.0312   -3211.5005    9.3814885   0.30785394 
   14300    -672.5122     43.02965   -629.48255    1305.4583   -4595.7795    9.3840224   0.30605406 
   14400    -680.1924    43.185634   -637.00677    1310.1906    6650.7675    9.6407186   0.21355967 
   14500   -677.26526     39.09619   -638.16907    1186.1227    3499.0363    9.5746189   0.24038697 
   14600    -673.1629    43.096442   -630.06646    1307.4846   -5909.9473    9.3844158   0.32280831 
   14700   -673.46148    40.967048   -632.49443    1242.8819   -2483.9066    9.4354109   0.27689296 
   14800   -679.78618    41.766174      -638.02    1267.1262    270.15213    9.5676756   0.21365906 
   14900   -677.80987    41.354536   -636.45534    1254.6377    4148.7842    9.5812418   0.22502349 
   15000   -672.62796    43.285521   -629.34244     1313.221   -3694.7863    9.3781762   0.30090701 
   15100   -675.34813    39.848094   -635.50004    1208.9344    1882.8032    9.5063992   0.24571604 
   15200   -680.75295    44.114004   -636.63895     1338.356    6335.7205    9.6447984   0.19792954 
   15300   -672.58286    42.766387   -629.81647    1297.4712    10316.406    9.5510949   0.21945292 
   15400    -673.9579    41.314133   -632.64377    1253.4119    212.01675    9.4560203   0.27083831 
   15500   -679.81469    44.757718   -635.05698    1357.8854   -1267.4851    9.5251251   0.22409093 
   15600   -681.05983    41.291427    -639.7684    1252.7231    12366.556    9.7222697   0.21111119 
   15700   -680.99157    38.951826   -642.03975    1181.7429   -896.95818    9.5834337   0.21868717 
   15800   -676.19851    41.253396   -634.94511    1251.5692   -7132.6674    9.4161473   0.27245653 
   15900   -674.41007    40.026493   -634.38358    1214.3468    -10404.93    9.3464345   0.28793144 
   16000   -674.24509    41.550077   -632.69501    1260.5701    1941.8462    9.4816477   0.27805456 
   16100   -680.35202    40.584906   -639.76711    1231.2882    10018.211    9.6960157   0.19968834 
   16200   -678.79327    39.607666    -639.1856    1201.6402    9737.4622    9.6639482   0.20228188 
   16300   -675.94368    42.515589   -633.42809    1289.8624     -500.236    9.4747177   0.25992264 
   16400   -674.25168    41.538555   -632.71313    1260.2206   -2990.0046    9.4404312   0.26177885 
   16500   -680.95157     41.40036   -639.55121    1256.0279   -2501.9082    9.5551223   0.21253668 
   16600   -679.71817    39.643204   -640.07496    1202.7183   -49.488893    9.5663865   0.21804942 
   16700   -676.14639    42.241935   -633.90446    1281.5601    4112.8565    9.5346106   0.26690899 
   16800   -675.46354    44.430807   -631.03273    1347.9674    1260.7188    9.4827421   0.25569302 
   16900    -677.0029    40.727421   -636.27548    1235.6119    915.91163    9.5007397   0.29442131 
   17000   -675.93917    36.934828   -639.00435      1120.55   -12215.772    9.3718116   0.28524476 
   17100   -675.17281    42.284447   -632.88836    1282.8499   -5825.9103     9.397987   0.31993761 
   17200   -674.32999    45.217642   -629.11235    1371.8388    6970.4673    9.5337973   0.25723464 
   17300   -678.77435    43.114304   -635.66004    1308.0266   -1317.7295    9.5230658   0.27148933 
   17400   -678.71961    39.723633   -638.99598    1205.1584   -1349.1467    9.5260922   0.26509733 
   17500    -676.6313    45.154247   -631.47706    1369.9155   -4195.1859    9.4473757   0.24511761 
   17600   -675.46717    42.784236   -632.68294    1298.0128   -2197.3217    9.4560797   0.26620083 
   17700   -679.84564    42.412514   -637.43312    1286.7352    3920.0953    9.6079419   0.22870791 
   17800   -684.91934    46.671889   -638.24745    1415.9586    1272.5227    9.6405819   0.18710437 
   17900   -669.97305    39.803691   -630.16936    1207.5873    7236.2334    9.4585912   0.29491426 
   18000    -673.8466    41.122005   -632.72459     1247.583   -1923.0391    9.4386309   0.25980211 
   18100   -676.97882    41.428946   -635.54988    1256.8952    -10782.27    9.4043324   0.26452266 
   18200    -674.4422    43.947812   -630.49439     1333.314    4446.6853    9.4893068   0.24738957 
   18300   -669.75628    42.556434   -627.19984    1291.1016    980.23451    9.3981607    0.2928745 
   18400   -674.01156    38.049411   -635.96215    1154.3649     3123.912    9.5035186   0.28980022 
   18500   -678.33619    44.799497   -633.53669    1359.1529   -2574.3795    9.4909933   0.23074717 
   18600   -676.11104    40.341274   -635.76976    1223.8968    4967.0242    9.5425824   0.25255237 
   18700   -681.58202    38.962063   -642.61996    1182.0535    -1055.916    9.5825084   0.22647794 
   18800   -677.12775    39.668749     -637.459    1203.4933   -1532.1396    9.5093047   0.24051976 
   18900   -675.04147    39.852072    -635.1894    1209.0551   -2039.3585    9.4616499   0.24838198 
   19000   -674.51901     40.05101     -634.468    1215.0906     5396.282    9.5293109   0.26968192 
   19100    -674.1278    47.485102    -626.6427    1440.6303   -3995.3779    9.3930198   0.29454866 
   19200   -674.64791    44.267962   -630.37994    1343.0269    5609.5687    9.5250351   0.24772497 
   19300   -675.74035    39.458814   -636.28153    1197.1242   -482.17986    9.4901941   0.24638373 
   19400   -676.04614    42.356005   -633.69014    1285.0208    491.52409    9.5050281   0.24585955 
   19500   -667.88973    42.867337   -625.02239    1300.5339    6145.2489    9.4097578   0.29795541 
   19600   -675.40286    45.125472   -630.27739    1369.0425   -2283.7143    9.4535533   0.25775664 
   19700   -676.23403    40.794406   -635.43963    1237.6442    10118.076    9.6197344   0.26570875 
   19800   -675.93172    41.353016    -634.5787    1254.5916    -846.0982    9.4888519   0.24102759 
   19900   -676.88365    41.645013   -635.23864    1263.4504   -4764.4164    9.4543715    0.2354134 
   20000    -681.3398    38.052883   -643.28692    1154.4703    323.57052    9.6017364   0.21240128 
   20100   -680.07848    40.263525   -639.81496     1221.538   -6070.0379    9.5028116   0.24581538 
   20200    -679.7167    43.902999    -635.8137    1331.9544    8631.7644    9.6441388   0.21754277 
   20300   -677.81807     45.39579   -632.42228    1377.2436    4665.1723     9.572995   0.23432367 
   20400    -673.2329    40.813448   -632.41945    1238.2218   -1500.0598    9.4288575   0.28157726 
   20500   -680.03205    38.776397   -641.25566    1176.4206   -7674.9674    9.4946041   0.22160868 
   20600    -675.4884    38.367807   -637.12059    1164.0246    1180.1434    9.5058469   0.24485713 
   20700   -675.39564    42.393128   -633.00252    1286.1471    6001.7555    9.5557456   0.25665334 
   20800   -674.87214    46.202085   -628.67006    1401.7054     4417.169    9.5154022   0.28111654 
   20900   -672.86604    42.083349   -630.78269    1276.7488   -23.929012    9.4397146   0.28648667 
   21000   -675.86904    40.351348   -635.51769    1224.2024   -10237.578    9.3752965    0.2643869 
   21100   -676.98037    42.815858   -634.16451    1298.9721   -3316.6637    9.4610842   0.25741395 
   21200   -676.38578     45.10588    -631.2799    1368.4481    5237.5286    9.5515444   0.23202417 
   21300   -682.15708    42.969536   -639.18754    1303.6345    664.87886    9.6060502   0.20599721 
   21400   -676.98659    41.463696   -635.52289    1257.9495    5828.3795    9.5748793   0.24484454 
   21500   -672.98096    41.271228   -631.70974    1252.1102    6152.1341    9.5119812   0.26795298 
   21600   -676.81321    43.701579   -633.11163    1325.8436    -3426.066    9.4573119   0.25985088 
   21700    -676.8032    37.974407   -638.82879    1152.0894   -1107.3709     9.489939   0.24978666 
   21800   -673.24208    39.902758   -633.33932    1210.5928   -4394.6973    9.4049537    0.2588569 
   21900   -673.35767    40.345141   -633.01253    1224.0141     5243.119    9.5132259   0.28650009 
   22000   -681.71585    41.436683   -640.27917    1257.1299     939.6829     9.600302   0.20725497 
   22100   -680.57097    45.088281   -635.48269    1367.9142   -193.21069    9.5538461   0.21210209 
   22200   -675.96331    44.977089   -630.98622    1364.5408    1940.4891    9.4955518   0.22495905 
   22300   -677.28973    42.037497   -635.25224    1275.3578    3317.5362    9.5517721   0.21049041 
   22400   -680.91357    41.517583   -639.39599    1259.5843   -2242.9985    9.5651777   0.20208444 
   22500   -673.77812    41.429944   -632.34818    1256.9255    5091.8174    9.4983614   0.26162854 
   22600   -676.32074     42.94719   -633.37355    1302.9565    -10114.67    9.3794319   0.26942628 
   22700    -677.2663     38.74575   -638.52055    1175.4908   -11296.713    9.3915224   0.23172003 
   22800   -676.78028    42.478334   -634.30194    1288.7321    1414.6032      9.50921   0.22814946 
   22900   -674.37522    42.871964   -631.50325    1300.6743   -1319.1422     9.448152   0.27950237 
   23000    -675.9614    39.655121   -636.30628    1203.0799    2031.8569    9.5335707   0.23478567 
   23100   -678.53144    41.189341    -637.3421    1249.6259    1368.2969     9.547103   0.22305465 
   23200   -675.21741    43.987372   -631.23004    1334.5142    427.38936    9.4776405   0.24347125 
   23300   -677.36673    41.905859   -635.46087    1271.3641    3449.3357    9.5520941   0.23785802 
   23400   -679.73693    39.066042   -640.67089     1185.208    4766.6517    9.6056387   0.20533641 
   23500   -678.97682    44.919042   -634.05778    1362.7797   -3784.6758    9.4961125   0.21849962 
   23600   -674.51738     41.70415   -632.81323    1265.2445   -2013.0469    9.4385948   0.26403286 
   23700   -674.87181    39.279364   -635.59244    1191.6799   -7308.4444    9.4088306   0.27421061 
   23800   -683.26445    42.999727   -640.26472    1304.5505   -2187.9823    9.5847922    0.2155473 
   23900   -676.69248    43.240398   -633.45208    1311.8521     7159.221    9.5864014   0.23902588 
   24000   -675.48914    43.382494   -632.10664     1316.163    9557.2116    9.5877693   0.23772349 
   24100   -678.06419    38.957441   -639.10675    1181.9133      1885.33    9.5665146    0.2169051 
   24200   -679.04095    40.077071   -638.96388    1215.8812   -4915.9216    9.5024821   0.20554004 
   24300   -673.77942    40.747433   -633.03199     1236.219    122.52043    9.4452033    0.2983825 
   24400   -674.04117    43.553643   -630.48753    1321.3555   -2171.4113    9.4217216   0.29871475 
   24500   -680.21526    41.855381   -638.35988    1269.8326   -5396.0234    9.5270318   0.24748742 
   24600   -676.81248    40.204262   -636.60821      1219.74   -906.19058    9.4972289   0.26283368 
   24700   -674.83881    44.350936   -630.48787    1345.5442   -5416.0162    9.4085745   0.28836965 
   24800   -676.10168    41.159195   -634.94248    1248.7113   -1680.8004    9.4802498   0.26554261 
   24900   -681.87999     41.52035   -640.35964    1259.6682   -4046.1057    9.5490978   0.25855268 
   25000   -677.70553    43.648619   -634.05691    1324.2369    7921.7134    9.6014086   0.23491148 
   25100   -678.35738    47.468566   -630.88881    1440.1287   -6106.7975    9.4518931   0.23559872 
   25200   -677.38416    40.358712   -637.02545    1224.4258   -2163.2266    9.4912748   0.23947107 
   25300   -678.66052    38.923078   -639.73745    1180.8707   -3699.3276    9.5222275   0.23074253 
   25400   -676.11734    43.693875   -632.42346    1325.6099    2571.2896    9.5152928   0.24087899 
   25500   -676.10624     45.39839   -630.70785    1377.3225    9896.1146    9.5935908   0.21569483 
   25600   -678.38762    41.057181   -637.33044    1245.6164    9794.9046    9.6440214   0.21987436 
   25700    -676.3092    41.467811   -634.84139    1258.0743   -1893.6293    9.4849404   0.23208453 
   25800   -668.20719    39.633084    -628.5741    1202.4113    6397.0459    9.4299768   0.26557726 
   25900   -678.19255     42.61613   -635.57642    1292.9127   -6521.6295    9.4537441   0.24735571 
   26000   -677.13234    41.320787   -635.81155    1253.6138     2156.191    9.5410236   0.23995648 
   26100   -677.73173    47.317652   -630.41408    1435.5502    5952.4209    9.5633787    0.2475851 
   26200   -668.91401    44.793385   -624.12063    1358.9675    3553.0731    9.4067957   0.38594611 
   26300   -672.16209    41.757039   -630.40505    1266.8491   -5804.5415    9.3716551   0.30112945 
   26400   -671.00286    39.355116   -631.64774    1193.9782   -4691.0437    9.3499032   0.31393949 
   26500    -672.8189    39.056932   -633.76197    1184.9317   -2510.7791    9.4226579   0.29987279 
   26600   -675.82405     39.65682   -636.16723    1203.1314    2303.0458    9.5284731   0.27016594 
   26700   -683.61473    41.454319   -642.16041     1257.665    5127.2515    9.6813425   0.18474518 
   26800   -680.94926    40.839655   -640.10961     1239.017   -1011.8529    9.5700477   0.23499879 
   26900   -676.20847    40.667498   -635.54097    1233.7939   -5738.3669    9.4188558    0.2438611 
   27000   -674.08009      39.9583   -634.12179    1212.2779   -1610.5451    9.4305316   0.25408307 
   27100   -676.90836    44.084575   -632.82379    1337.4632   -7516.1458    9.4272591    0.2523133 
   27200   -671.13558    47.143968   -623.99161    1430.2808    5901.7113    9.4552833   0.30423161 
   27300   -675.95415    46.760975   -629.19318    1418.6614    1878.6985    9.4898221   0.25136965 
   27400   -676.98492    43.354391   -633.63053    1315.3104   -4968.8269    9.4322002   0.25366157 
   27500   -672.94656    37.339053   -635.60751    1132.8137    2316.1722    9.4840211   0.25313143 
   27600    -679.3409     39.20352   -640.13738    1189.3789    6109.0425    9.6194566    0.2230929 
   27700   -676.68675    43.814839   -632.87191    1329.2798    3814.3707    9.5362221   0.23196732 
   27800   -676.59147    44.179664    -632.4118    1340.3481   -3840.7752    9.4625255   0.24236857 
   27900   -678.31385    41.773762   -636.54009    1267.3564   -6364.7208    9.4727111   0.25087102 
   28000   -676.20768    36.016707   -640.19098    1092.6956   -2838.3766    9.4714965   0.27698091 
   28100   -671.95788    40.722004   -631.23588    1235.4476    1089.2297     9.433069   0.30818982 
   28200   -675.22274    45.261661   -629.96108    1373.1743    9384.2783    9.5772444   0.21668965 
   28300   -677.93471    42.104108    -635.8306    1277.3787    12714.102    9.6749558   0.21606855 
   28400   -677.28964    41.159629   -636.13001    1248.7245   -4018.8978    9.4845047    0.2290517 
   28500   -672.21432    44.095952   -628.11837    1337.8083   -3306.7049    9.3804744   0.26927706 
   28600   -675.15916    41.352978   -633.80618    1254.5904    4578.2726    9.5391417    0.2661101 
   28700   -675.30325    38.804595   -636.49866    1177.2761    6527.6109    9.5691236   0.25387591 
   28800   -675.25145     46.07857   -629.17288    1397.9581   -9060.2249    9.3557151   0.28312063 
   28900   -675.97065    44.380792   -631.58986      1346.45   -2577.2178    9.4429737   0.29315817 
   29000   -679.13406    41.241641   -637.89242    1251.2126   -6106.3412    9.4870671    0.2434653 
   29100   -678.53093     44.38253    -634.1484    1346.5027   -1620.1252    9.5067221   0.24901984 
   29200   -676.11944    45.787504   -630.33193    1389.1276    5711.9337    9.5547532   0.26335521 
   29300   -679.17767    42.372875    -636.8048    1285.5327    3015.2011    9.5842996   0.22241659 
   29400   -678.10289    41.495099    -636.6078    1258.9022   -6519.3363    9.4529872   0.23604028 
   29500   -671.63113    41.532881   -630.09825    1260.0484   -5986.3024    9.3594137   0.30267569 
   29600   -677.45754    43.425178   -634.03236     1317.458    5445.6604    9.5861067   0.22178363 
   29700    -678.7076     41.33639   -637.37121    1254.0872    12591.408    9.6943543   0.19987318 
   29800   -674.78939    42.437765   -632.35162    1287.5013   -588.82264    9.4656867   0.28998039 
   29900   -672.23163    41.263375   -630.96826     1251.872     -2332.05    9.3931232   0.29709595 
   30000   -678.85945    39.912938   -638.94652    1210.9017   -6630.1603    9.4699121     0.244238 
   30100   -678.27218    42.784091   -635.48809    1298.0084   -4210.9008    9.4932402   0.24393995 
   30200   -673.88687    42.505622   -631.38125      1289.56    -1481.082    9.4341213   0.29178069 
   30300   -670.35728    42.278596   -628.07869    1282.6724    4500.6463     9.435693   0.28979517 
   30400   -675.79061    41.786762   -634.00385    1267.7508   -3113.6953    9.4658156   0.26354236 
   30500    -680.9827    43.609965   -637.37273    1323.0642    2709.5066    9.6206657   0.23307334 
   30600   -677.06357      42.6729   -634.39067     1294.635    2668.6128    9.5429859   0.21645594 
   30700   -675.28631     42.17872   -633.10759    1279.6423    -988.1463    9.4812442   0.24662578 
   30800   -679.25861    38.743602   -640.51501    1175.4257    3345.8335    9.6025662   0.22716219 
   30900   -679.36836    39.304675   -640.06369    1192.4478   -5346.9886    9.4944694    0.2472647 
   31000   -676.82017    41.691329   -635.12885    1264.8555   -4879.6164    9.4513821   0.24606834 
   31100    -676.2404    41.744157   -634.49624    1266.4582     387.5726    9.4981777    0.2510106 
   31200   -674.28987    40.899854   -633.39002    1240.8433    7128.6294    9.5398697   0.26178909 
   31300   -673.20367    47.432504   -625.77116    1439.0346    1827.1913    9.4465198   0.27444186 
   31400    -674.1959    43.436129   -630.75977    1317.7903    4119.4272    9.4960009   0.26515632 
   31500   -677.06089    41.603909   -635.45698    1262.2033   -2455.6857    9.4684484   0.28984428 
   31600   -676.37695    42.825825   -633.55113    1299.2745   -3226.4483    9.4532104   0.25556318 
   31700   -670.00348    43.542812   -626.46067    1321.0269    5988.1187    9.4470114   0.29032186 
   31800   -677.04586    43.099237   -633.94663    1307.5694    6069.6863    9.5687405   0.21751936 
   31900   -677.65973    41.661688   -635.99804    1263.9562    10238.444     9.642268   0.22871444 
   32000    -676.4325    43.111559   -633.32094    1307.9433   -546.97142    9.4906566   0.25804482 
   32100   -671.68352    43.049074   -628.63444    1306.0476   -498.19843    9.3838492    0.2931074 
   32200   -670.50982     46.12296   -624.38685    1399.3049    4248.0436    9.4275249   0.25799708 
   32300   -680.57069    46.787221   -633.78347    1419.4576    4729.8182    9.6083072   0.21385136 
   32400    -676.9822    42.916911   -634.06529    1302.0379    10803.092    9.6260298   0.21305852 
   32500   -677.35081    43.907563   -633.44325    1332.0929    1857.1857    9.5168211   0.23054997 
   32600   -676.40402    41.683296   -634.72072    1264.6118   -5878.5464      9.42797   0.28659819 
   32700    -679.5146    37.507558   -642.00705    1137.9259   -4131.4732    9.5268119    0.2488386 
   32800   -674.62331    40.229979   -634.39334    1220.5202   -4672.1259    9.4104532   0.28124484 
   32900   -676.43846    43.520748   -632.91771    1320.3575    507.14627     9.509377   0.24968413 
   33000   -675.67751    44.405646   -631.27187     1347.204    10449.037     9.602197   0.23760534 
   33100   -670.47957    41.195071    -629.2845    1249.7998    3981.6943    9.4522947   0.30559556 
   33200   -678.21175    40.271055    -637.9407    1221.7664   -2740.5797    9.5178617   0.25106669 
   33300   -674.16917    39.349278   -634.81989     1193.801    295.16428    9.4766447   0.28485941 
   33400   -673.87247    39.509518   -634.36295    1198.6625    -6384.639    9.3857214   0.29893213 
   33500   -679.19938    41.005237   -638.19414    1244.0405    4014.3358    9.5928303   0.23276492 
   33600    -683.1741     38.46953   -644.70457    1167.1107    2913.7922    9.6638782    0.2085037 
   33700   -679.01557     41.40977    -637.6058    1256.3134   -3102.9699    9.5154712   0.22093457 
   33800   -679.17119    44.760777   -634.41042    1357.9782   -6386.8009     9.480097   0.24761213 
   33900   -677.72918    44.665177     -633.064    1355.0778    785.01071    9.5400242    0.2439725 
   34000   -678.25904    37.605996   -640.65305    1140.9123    11764.086    9.6786009   0.20478211 
   34100   -679.94554    40.048962   -639.89658    1215.0284   -336.56936    9.5546458   0.24237062 
   34200   -676.06464    41.904714   -634.15992    1271.3293   -5954.6486    9.4365981   0.28583268 
   34300   -672.39904    40.159528   -632.23951    1218.3829     826.2698    9.4444862   0.28499263 
   34400   -672.45467      42.0888   -630.36587    1276.9142    1911.3233    9.4472239   0.27907373 
   34500   -679.80603    41.041802   -638.76422    1245.1498   -9773.7682    9.4527993   0.21533401 
   34600   -675.75942     40.33588   -635.42354    1223.7331   -7920.6183    9.4013232   0.28182432 
   34700   -676.70224      44.7612   -631.94104     1357.991    4197.8902    9.5546642   0.25360464 
   34800   -680.64244    45.636774   -635.00567    1384.5547    7386.4986    9.6549939    0.2093112 
   34900   -678.21509    37.787332   -640.42776    1146.4138     722.1407    9.5500509    0.2482477 
   35000   -674.40535    40.258525   -634.14683    1221.3863   -6459.4393    9.4046913   0.26294299 
   35100   -677.13639    43.771097    -633.3653    1327.9527   -1751.6157    9.4879219   0.24828596 
   35200   -678.65042    38.656766   -639.99366    1172.7912    9960.4659    9.6593745    0.2107598 
   35300   -680.64011    42.029537   -638.61058    1275.1163    274.40585    9.5685449    0.2034915 
   35400    -675.8071    42.845296    -632.9618    1299.8652    5740.3785    9.5370735   0.23804752 
   35500   -679.88647    45.340006   -634.54647    1375.5512    993.82711    9.5681171   0.23610493 
   35600   -679.22575    39.697995   -639.52775    1204.3806   -771.52735    9.5508742   0.26842801 
   35700   -672.43686    40.653315   -631.78355    1233.3636   -14142.304    9.2825764   0.32317602 
   35800    -674.5904    41.434667   -633.15573    1257.0687   -6018.3365    9.4000326   0.31240534 
   35900   -675.74717    41.566264    -634.1809    1261.0612    1347.6533    9.4988471   0.25640908 
   36000   -684.86242    44.030728   -640.83169    1335.8295   -6504.3923    9.5697442   0.19783542 
   36100   -673.75305    39.042589   -634.71046    1184.4965    5621.3167    9.5347782   0.26314743 
   36200   -676.46138    43.947214   -632.51416    1333.2959    -3366.527    9.4689984    0.2478465 
   36300   -678.86838    39.985024   -638.88336    1213.0887   -6742.4515    9.4797605   0.24792845 
   36400   -676.32559    40.905552   -635.42004    1241.0162    7531.1013     9.580129   0.27212658 
   36500   -676.14624    45.499185   -630.64705    1380.3805    3594.2828    9.5300909   0.24904899 
   36600    -673.8422    39.987195   -633.85501    1213.1545    4524.6408    9.5124321   0.26513627 
   36700   -678.24414    41.565919   -636.67822    1261.0507   -8620.1497    9.4309898   0.26485261 
   36800   -680.71845     38.54753   -642.17092    1169.4771   -7928.8691    9.5124453   0.21688582 
   36900   -673.04481    39.514056   -633.53076    1198.8002    3755.0438    9.4870347   0.31880271 
   37000   -675.12337    41.722596   -633.40077    1265.8041     5627.763    9.5369967   0.26090382 
   37100   -678.02145    41.257257   -636.76419    1251.6864    3001.3173    9.5512926   0.21915365 
   37200   -681.16176    41.233349   -639.92841    1250.9611   -8775.1569    9.4921118   0.20517802 
   37300   -671.38306    39.600378   -631.78268    1201.4191    -305.3831    9.3915063   0.28337896 
   37400   -675.60102    41.895724    -633.7053    1271.0566   -1720.6134     9.460155   0.27137993 
   37500   -675.95652     37.44565   -638.51087    1136.0477    -3592.292    9.4594366   0.26908321 
   37600   -674.70267    41.856137   -632.84653    1269.8556   -1278.8213    9.4451735   0.29510414 
   37700   -676.96677    48.262817   -628.70396    1464.2251   -7707.4705     9.411188   0.28593608 
   37800   -673.78749    40.996368   -632.79112    1243.7714    11926.649     9.586845   0.24536059 
   37900   -676.94292    40.913611   -636.02931    1241.2607    3749.6254    9.5616902   0.22278009 
   38000   -681.42923    37.720425    -643.7088     1144.384   -1252.4279    9.5865142   0.19600562 
   38100   -680.89408    41.366256   -639.52782    1254.9933   -2393.6541    9.5568673   0.21344817 
   38200   -676.30315      40.8846   -635.41855    1240.3805    7775.1158    9.5803843   0.26447066 
   38300   -675.65331    42.753766   -632.89955    1297.0883   -307.36639    9.4723296   0.25677557 
   38400   -675.80125     40.79023   -635.01102    1237.5175   -7181.3103    9.3971114   0.26670862 
   38500   -680.19754    37.051751   -643.14579    1124.0973    2765.5991    9.6031528   0.21282559 
   38600   -681.03218    43.726231   -637.30595    1326.5916    970.50938    9.5835153   0.24641098 
   38700   -678.68858    44.452409   -634.23617    1348.6228   -4545.4597    9.4763927   0.24648211 
   38800   -676.48614    43.365308   -633.12083    1315.6417   -7014.7824    9.4241137   0.24906842 
   38900   -676.22584    42.487767   -633.73808    1289.0183     1328.352    9.5194317   0.26313639 
   39000   -668.99236    46.169959   -622.82241    1400.7308   -7302.5628    9.2640093   0.35723337 
   39100   -671.42684    43.165943   -628.26089    1309.5932    9379.0517    9.5208792   0.26545438 
   39200   -674.99968    43.908542   -631.09114    1332.1226   -3531.6776    9.4208248   0.28645045 
   39300    -676.4126    42.247977   -634.16463    1281.7434   -3272.3584    9.4548305   0.27130036 
   39400   -679.51124    41.135395   -638.37585    1247.9893    1092.6831    9.5524146   0.23692295 
   39500   -680.50986    39.820413   -640.68945    1208.0946   -1375.2165    9.5658714   0.21855446 
   39600   -672.70763    40.070274   -632.63735     1215.675    3673.3402    9.4871129   0.28182078 
   39700   -674.38356    41.324098   -633.05946    1253.7143    4103.1208    9.5112968     0.287351 
   39800   -675.72909    40.431271   -635.29782    1226.6272   -10349.341    9.3776422   0.27548699 
   39900   -681.97299     39.60862   -642.36437    1201.6691   -8476.4936    9.5049594   0.22648263 
   40000   -674.26696    38.818233   -635.44873    1177.6899    6777.4919    9.5360811   0.23853127 
   40100   -674.64182    41.629889   -633.01193    1262.9915   -5411.0293       9.4158   0.26912013 
   40200   -675.84038    43.275582    -632.5648    1312.9195    5340.8214    9.5443149   0.26187588 
   40300   -681.21157    40.341575      -640.87    1223.9059      14294.8    9.7610452    0.1873692 
   40400     -680.527    42.334377   -638.19262    1284.3647   -2022.6057    9.5619921    0.2238215 
   40500   -677.31821     44.36681    -632.9514    1346.0258   -6991.3099    9.4387648   0.27381337 
   40600   -675.68825    42.773092   -632.91516    1297.6747   -1761.6505     9.469071   0.29410306 
   40700   -680.25858    39.945764   -640.31281    1211.8976   -823.94774    9.5757264   0.21915945 
   40800   -681.02226    44.422979   -636.59928    1347.7299   -2323.4543    9.5350031    0.2349738 
   40900   -675.88734    42.285574   -633.60176    1282.8841    6217.2128    9.5561833   0.22635769 
   41000   -677.98707    40.518607   -637.46847    1229.2768   -1433.0781    9.5289393   0.24138022 
   41100   -679.79991    36.440472   -643.35944     1105.552   -9200.9512    9.4901497   0.23803952 
   41200   -678.23387    42.541154   -635.69272     1290.638   -7000.1424    9.4496595   0.23519951 
   41300     -678.431    43.191318   -635.23968    1310.3631    8519.0666    9.6217032    0.2275914 
   41400   -674.30776    39.602117   -634.70564    1201.4718   -1305.4813    9.4686349   0.27488798 
   41500   -669.60394      42.4324   -627.17154    1287.3386    -1982.549     9.350273   0.33194457 
   41600    -669.7272    39.847662   -629.87953    1208.9213   -2326.3071    9.3622414   0.31682429 
   41700   -676.22956     41.36673   -634.86283    1255.0076   -976.58139    9.4695958   0.24967373 
   41800   -676.89821    38.820397   -638.07782    1177.7555   -1584.2182     9.503431   0.22409237 
   41900    -673.9612    39.672011   -634.28919    1203.5923    5414.1652    9.5161392   0.27333957 
   42000   -673.07005    41.461234   -631.60882    1257.8748    11989.931    9.5854586    0.2786341 
   42100   -675.48884    43.461391   -632.02745    1318.5567   -7834.1767     9.397148   0.27389181 
   42200   -680.56087    42.487492   -638.07337      1289.01   -13888.457    9.4011394     0.249686 
   42300   -677.82625    40.842988   -636.98327     1239.118   -437.78648    9.5149003    0.2464125 
   42400     -673.647    42.200504    -631.4465    1280.3032     3870.534    9.5024961   0.26199119 
   42500   -676.05173    42.498729     -633.553    1289.3509    2101.0917    9.5290745   0.22284071 
   42600   -679.66193    39.763639   -639.89829    1206.3722    2184.6373    9.5904664    0.2083998 
   42700   -675.33642    40.202042   -635.13438    1219.6727     3034.688    9.5183259   0.27036841 
   42800   -673.50221    42.600204   -630.90201    1292.4295    1329.3505    9.4619109   0.28247349 
   42900    -677.7117    40.459541   -637.25216    1227.4848   -626.36278    9.5197259   0.25025047 
   43000   -680.36803    43.833447   -636.53458    1329.8443   -9032.6183    9.4568718   0.23237767 
   43100   -676.01176    42.051101   -633.96066    1275.7705    4902.6109    9.5425799   0.27987652 
   43200    -676.9164    47.907466   -629.00893    1453.4443   -1152.9715    9.4792369   0.25880368 
   43300   -678.36362    41.320775   -637.04284    1253.6134     954.3084    9.5541061   0.21957902 
   43400   -677.50365    40.232414   -637.27123    1220.5941    5164.3042    9.5874243   0.21653517 
   43500   -677.16713    43.921294   -633.24584    1332.5095   -2883.4029    9.4800574   0.25744171 
   43600   -675.37787     44.75632   -630.62155     1357.843   -10561.063    9.3588888   0.28748506 
   43700   -679.07297    41.426018   -637.64695    1256.8064    1053.1514    9.5625134   0.25793897 
   43800   -681.79997     44.82165   -636.97832     1359.825    3055.4156    9.6282789   0.20516919 
   43900   -676.48152    44.810587   -631.67093    1359.4894    3088.6787    9.5360758   0.24318465 
   44000   -672.80028    39.571668   -633.22861     1200.548    7813.7869    9.5146915   0.26916257 
   44100    -679.1056    39.122328   -639.98327    1186.9157   -9931.6087    9.4456847   0.24259905 
   44200    -676.8522    42.953941   -633.89826    1303.1614   -7008.1693    9.4192533   0.25765095 
   44300   -676.42803    43.111841   -633.31619    1307.9518    2773.4079    9.5202456   0.24727331 
   44400   -680.42382    39.880032   -640.54379    1209.9033    7475.7937    9.6484051   0.19163285 
   44500   -674.86066     39.28186    -635.5788    1191.7557    -2523.319    9.4458511   0.23933085 
   44600   -672.75981    39.727113   -633.03269     1205.264   -4781.3448     9.379392   0.29093905 
   44700   -676.78345    41.927937   -634.85552    1272.0339   -1263.1447    9.4847696   0.26554831 
   44800   -680.78164    40.758786   -640.02286    1236.5635    1839.2812     9.604927   0.20798419 
   44900   -676.83916    42.433875   -634.40528    1287.3833    6134.7331    9.5711951   0.24677704 
   45000   -674.31592    43.438367   -630.87755    1317.8582      301.074    9.4514038   0.25765641 
   45100   -678.32032    40.792745   -637.52757    1237.5938    -7617.981    9.4461859   0.24853129 
   45200   -674.58652    40.614251   -633.97227    1232.1785    3431.1424    9.5246423   0.25596075 
   45300   -669.95534    42.392197   -627.56314    1286.1188    6007.9986    9.4555296   0.29911435 
   45400   -678.68878    44.229239   -634.45954    1341.8521    492.87807    9.5452121   0.23878637 
   45500   -679.90755    43.768673   -636.13888    1327.8792   -2535.4267    9.5261662     0.208954 
   45600   -679.64373    44.307367   -635.33637    1344.2224    -7562.396    9.4699428   0.24756331 
   45700   -670.64627    43.407711   -627.23856    1316.9281    3850.6438    9.4273036   0.32110994 
   45800   -672.14182     40.35333   -631.78849    1224.2625    -1494.206    9.4181657   0.28711379 
   45900   -675.74867    39.804191   -635.94448    1207.6024   -4272.1762    9.4262293   0.28436384 
   46000   -673.94495    41.132765   -632.81219    1247.9095   -5123.8512    9.4069985   0.25760216 
   46100   -676.41976    38.743185   -637.67657     1175.413    4189.3749    9.5486444   0.22987366 
   46200   -680.35788    41.161393   -639.19649     1248.778   -2305.6015    9.5309516   0.21162265 
   46300   -674.32444    40.753593   -633.57085     1236.406    2904.7529    9.5055943   0.27546922 
   46400   -674.89829    42.937994    -631.9603    1302.6776    432.38866    9.4977876   0.24149255 
   46500   -681.97694     43.21759   -638.75935    1311.1601    7312.2255    9.6896407   0.20460649 
   46600   -677.12009    42.237425   -634.88267    1281.4233    824.95668    9.5197489   0.23486787 
   46700   -670.78951    40.276847   -630.51267    1221.9421   -5612.5754    9.3467766   0.32215652 
   46800   -675.64459    39.856667   -635.78792    1209.1945   -2299.6287    9.4645845   0.25956532 
   46900   -680.10864    40.762545   -639.34609    1236.6775     1480.049    9.5756663   0.22142839 
   47000    -676.4098    44.405189   -632.00461    1347.1902    3809.1293    9.5435045   0.25353538 
   47100   -676.84701    43.093532   -633.75347    1307.3964    2297.6661    9.5213385   0.22653058 
   47200   -680.21345    41.169038   -639.04441      1249.01    1989.5838    9.5933592    0.2270824 
   47300   -676.13486    44.272332   -631.86252    1343.1595   -1731.4014    9.4671623   0.23938551 
   47400   -674.12387    39.865734   -634.25813    1209.4696    1174.8284    9.4851036   0.25839782 
   47500   -681.64057    45.141062   -636.49951    1369.5155    2373.9743    9.6008689   0.20547003 
   47600   -680.02389     40.97435   -639.04954    1243.1034    16147.855    9.7594114   0.19945351 
   47700   -672.81476    41.732047   -631.08272    1266.0908   -3173.6036    9.3984468   0.29086241 
   47800   -675.02678    41.523985   -633.50279    1259.7785   -8436.9785    9.3865096   0.26005827 
   47900   -675.15179    37.663599   -637.48819    1142.6599   -984.74367    9.4720066    0.2539867 
   48000   -675.79758    43.668266   -632.12931     1324.833   -1331.8114    9.4749701   0.27678854 
   48100   -671.36858    41.529961   -629.83862    1259.9598     14305.45    9.5745738   0.25196976 
   48200   -679.05485    43.656164   -635.39869    1324.4658    2715.8123     9.567713   0.24883197 
   48300   -676.24498    43.328687   -632.91629    1314.5306    1150.4053    9.4914525   0.24835423 
   48400   -669.31316    41.620389   -627.69277    1262.7033   -4032.2056    9.3400209    0.3071627 
   48500   -676.69168     40.23399   -636.45769    1220.6419    941.69949    9.5199264    0.2502133 
   48600   -679.70045    44.806331   -634.89412    1359.3602    5817.2342    9.6098603   0.20120059 
   48700   -677.76049     43.86331   -633.89718    1330.7503    488.04832    9.5314379    0.2257922 
   48800   -675.58515    43.558451    -632.0267    1321.5013   -7596.5143    9.3950459   0.29590498 
   48900   -671.55313    44.222032    -627.3311    1341.6335   -2589.1758    9.3784158   0.28229519 
   49000   -673.44852    40.184873   -633.26365    1219.1518    4749.7659     9.506773   0.25598613 
   49100   -678.40503    42.121585   -636.28345    1277.9089     1504.479    9.5360838   0.23715574 
   49200   -677.41788    43.197414   -634.22046     1310.548     -197.258    9.5271981   0.23128182 
   49300   -672.55648    45.571581    -626.9849    1382.5768    299.01981     9.425271   0.30309417 
   49400    -675.3645    42.740013   -632.62448    1296.6711   -1398.9205    9.4626872   0.23229526 
   49500   -676.87516    38.408441   -638.46672    1165.2574    3504.1366    9.5654808    0.2327774 
   49600   -679.72447     46.07409   -633.65038    1397.8222   -1209.6115    9.5214168   0.23171022 
   49700   -674.66455    44.738129   -629.92642    1357.2911   -6719.3066    9.4040326    0.2824361 
   49800   -678.48376    41.743221   -636.74054    1266.4299    2602.7619    9.5649904   0.23611012 
   49900   -681.66831    44.220836   -637.44747    1341.5972    1520.2564     9.605734   0.21824856 
   50000   -674.32832    45.043536   -629.28478    1366.5567    2553.6471    9.5007207   0.24181242 
   50100   -675.81046    43.648253   -632.16221    1324.2258    72.675409    9.4856674    0.2727371 
   50200   -681.10299    42.401625   -638.70136    1286.4049    -1050.753    9.5644902   0.23710155 
   50300   -677.83894    41.684292   -636.15465     1264.642   -3884.7473    9.4848604   0.24523305 
   50400   -675.86178    43.624174   -632.23761    1323.4953   -6717.5476    9.4107456   0.26005951 
   50500   -675.87427    39.409633   -636.46464    1195.6321     7381.049    9.5722522   0.27065514 
   50600    -677.2261    44.033565   -633.19253    1335.9156   -6721.9536    9.4331948   0.27421887 
   50700    -675.0083    44.103933   -630.90437    1338.0505   -1182.8952    9.4516921   0.28917523 
   50800   -675.77394    40.320211   -635.45373    1223.2578    3696.6662    9.5229064   0.25404975 
   50900   -677.59939    38.288215   -639.31118    1161.6099   -3501.5742    9.4891745   0.25693443 
   51000   -676.67616    43.058592   -633.61757    1306.3363   -11196.128    9.3805768   0.25395637 
   51100   -675.80762    43.856833   -631.95079    1330.5538    -5555.698    9.4309934   0.26842794 
   51200   -677.51115    42.401014   -635.11013    1286.3864    9209.5897    9.6191653   0.24365727 
   51300   -678.64755    42.986737   -635.66082    1304.1563    -1096.885    9.5409165    0.2237796 
   51400   -682.82573    39.742514   -643.08322    1205.7313    -3150.269    9.5871002   0.19910021 
   51500   -680.51436    40.142984   -640.37138     1217.881   -432.89496    9.5705699   0.19656523 
   51600    -679.0499    43.493109   -635.55679    1319.5189    205.72867    9.5398528   0.24684299 
   51700   -676.19598    43.973982     -632.222     1334.108    5458.9461    9.5493016    0.2495709 
   51800   -676.38075    40.646042   -635.73471     1233.143    7547.9214    9.5769901   0.22752925 
   51900   -680.06443     40.20388   -639.86055    1219.7284   -1711.9276    9.5513707    0.2261702 
   52000   -678.97213    45.152842   -633.81929    1369.8729   -3155.0507    9.5076053   0.23602504 
   52100   -675.66383    41.416376   -634.24746    1256.5138    6062.0793    9.5587914   0.27456105 
   52200   -679.77822    39.919543   -639.85868     1211.102   -5895.8879    9.4873241   0.23317049 
   52300    -677.7081    36.896749   -640.81135    1119.3948   -1741.4034    9.5125099   0.22889758 
   52400   -677.28479    41.845179   -635.43961    1269.5231    385.59872    9.5205794   0.22887233 
   52500   -677.21924    43.219404   -633.99984    1311.2152    759.22964    9.5244364   0.25244548 
   52600   -673.12959    42.636478   -630.49312      1293.53    1408.0714    9.4602877   0.29748693 
   52700   -666.65508    41.388544   -625.26654    1255.6695    226.40875    9.3109804    0.3338104 
   52800   -675.13583    41.912423   -633.22341    1271.5632   -10535.456    9.3477718   0.25803359 
   52900   -676.72054    42.763194   -633.95735    1297.3744     1813.888    9.5164325   0.24351975 
   53000   -680.29752    43.058817    -637.2387    1306.3432    8631.8957    9.6736989   0.23332827 
   53100    -680.7012    38.759318   -641.94188    1175.9025    6795.0218    9.6710372   0.20250513 
   53200   -676.74559    42.310607   -634.43498    1283.6435   -8180.9032    9.4106382   0.25716373 
   53300   -676.24534    42.558159   -633.68718    1291.1539   -2346.0323    9.4578729   0.25582957 
   53400   -675.27198     38.72238    -636.5496    1174.7818   -1692.0517    9.4581129   0.24551401 
   53500   -680.27941    38.212745   -642.06667    1159.3202    2344.0603    9.6031394   0.21052564 
   53600   -675.10374    40.252271   -634.85147    1221.1966    3085.3691     9.502574   0.25103881 
   53700   -673.98094    42.490659   -631.49028     1289.106   -2374.5916    9.4126108   0.28259031 
   53800   -680.80141    42.470173   -638.33123    1288.4845   -14102.275    9.4205013    0.2542913 
   53900   -675.22331    38.785919   -636.43739    1176.7095      3807.68    9.5183131   0.25711255 
   54000   -676.36629      44.4763   -631.88999    1349.3476    3499.6081    9.5267039   0.24971232 
   54100   -680.02758    43.576199   -636.45138    1322.0398    3627.6809    9.5886152   0.22010143 
   54200    -681.4543    40.794616   -640.65969    1237.6505    1742.8333    9.6012482   0.22488693 
   54300   -675.91951    42.221526   -633.69798    1280.9409   -4324.2172    9.4347834   0.26497335 
   54400   -674.41506    41.667014   -632.74805    1264.1178    67.676264     9.452017    0.2663861 
   54500   -679.56662     41.03723   -638.52939    1245.0111   -5726.9487    9.4900267   0.25712993 
   54600   -678.38486    39.294634   -639.09023    1192.1432    6571.5266    9.6294317   0.22695774 
   54700   -674.95627    42.492632   -632.46364    1289.1659   -1379.7028    9.4693793   0.26526717 
   54800   -675.74885    44.421334   -631.32751      1347.68   -4026.9064    9.4407425   0.25860826 
   54900   -680.20596    40.669786   -639.53618    1233.8634    2323.9342    9.5959857   0.20302902 
   55000   -678.33318    40.209712   -638.12347    1219.9054    1391.5415    9.5567267   0.24415895 
   55100   -677.02632    43.698301   -633.32802    1325.7442   -5859.9658    9.4643766   0.25557264 
   55200    -674.7417    39.061412   -635.68029    1185.0676    1262.7577    9.4966293   0.28045494 
   55300   -671.44202    43.388264   -628.05376    1316.3381   -776.38934    9.3972452    0.2833182 
   55400   -676.51881    43.114149   -633.40466    1308.0218   -541.96646    9.4916135   0.23351908 
   55500   -675.20633    38.433883   -636.77244    1166.0293    3535.9255    9.5351335   0.24209297 
   55600   -672.98851    41.115035   -631.87348    1247.3716    1037.2659    9.4650893   0.29239731 
   55700   -674.76747    44.745629   -630.02184    1357.5186    6384.9206    9.5415553   0.26844365 
   55800   -676.77537    39.635363      -637.14    1202.4804    7574.6147    9.6067024   0.24357147 
   55900   -673.75052    39.402743   -634.34778    1195.4231   -11326.991    9.3463186   0.33922221 
   56000   -672.17684    42.613687   -629.56316    1292.8385   -9054.2072    9.3292397   0.34060623 
   56100   -676.13182    41.405124   -634.72669    1256.1725   -1193.2165    9.4779957   0.27283661 
   56200   -680.75601    41.748614   -639.00739    1266.5935    350.41024    9.5723265   0.22165462 
   56300   -676.35456    44.523996   -631.83056    1350.7946   -7271.6515    9.4192363   0.25165153 
   56400   -673.78672    42.027508   -631.75921    1275.0547   -3277.5637    9.4231207   0.30965745 
   56500   -680.30901    44.987769   -635.32124    1364.8648   -1259.8283    9.5501697   0.21220297 
   56600   -680.74633    40.258358   -640.48797    1221.3812    8142.1386    9.6623222    0.2207186 
   56700   -675.51658    40.965023   -634.55156    1242.8204    6320.3876    9.5772438   0.23798905 
   56800   -677.69052    42.806639   -634.88388    1298.6924    127.15162    9.5189505   0.23350408 
   56900   -676.25538    39.796128   -636.45925    1207.3578   -181.19146    9.4996602   0.23478023 
   57000   -680.38004    36.051085   -644.32895    1093.7386   -11971.974    9.4516104   0.22488634 
   57100    -680.8454    40.384226   -640.46118    1225.1999   -13649.019    9.4323991   0.25626923 
   57200   -676.87606    41.149895   -635.72617    1248.4292    8559.0671    9.5942099   0.25347886 
   57300   -675.82363     41.98193    -633.8417    1273.6719    2548.6614    9.5304678   0.26719396 
   57400   -673.68764    43.563879   -630.12376     1321.666    5643.2526    9.4963207   0.27891524 
   57500   -677.79627    39.759171    -638.0371    1206.2366   -6188.7673    9.4686248   0.24670651 
   57600   -677.45496    39.281068    -638.1739    1191.7316   -6904.4917    9.4557365   0.25578641 
   57700   -677.12433    43.206075   -633.91825    1310.8107    1914.0639    9.5221371   0.24334784 
   57800   -671.96209    41.911564   -630.05053    1271.5371    5239.3426      9.49236   0.26675939 
   57900   -670.28862    42.195468   -628.09315    1280.1504   -3809.3921    9.3501933   0.29941424 
   58000   -678.09463    40.848175   -637.24645    1239.2754     3487.535    9.5789394   0.22660486 
   58100   -676.63722    40.724185   -635.91304    1235.5137     3939.095    9.5558776   0.21801102 
   58200   -679.66105    45.492855    -634.1682    1380.1884   -6143.0066    9.4775466   0.25262371 
   58300   -671.68416    41.734063   -629.95009     1266.152     4545.993    9.4560555   0.30595799 
   58400   -669.12516    44.553846   -624.57131    1351.7002   -3218.1111    9.3355021   0.33468393 
   58500   -679.68366    45.711135   -633.97253    1386.8107   -7329.5388    9.4588917   0.24782657 
   58600   -675.14651     40.56854   -634.57797    1230.7917   -14004.849    9.3174345   0.32314572 
   58700   -674.55109    39.978875   -634.57222    1212.9021   -1683.9634    9.4511055   0.27536418 
   58800   -679.42509    42.359728   -637.06536    1285.1338   -765.83116    9.5461711   0.22722195 
   58900   -681.95612    40.440046   -641.51607    1226.8934    9799.8748    9.7056699   0.21078329 
   59000    -680.2458    41.481864   -638.76393    1258.5007    4749.1685    9.6272591   0.21416935 
   59100   -676.14806    41.647692   -634.50036    1263.5316    -6091.573    9.4199774   0.24153193 
   59200   -678.54897    43.887628   -634.66134    1331.4881   -5322.7893    9.4615244   0.23813122 
   59300     -677.005    40.766098   -636.23891    1236.7853    5716.6441    9.5781882   0.23305223 
   59400   -679.96076    36.550407   -643.41036    1108.8873    9389.8189    9.6902127   0.19757157 
   59500    -680.3504    42.118079   -638.23232    1277.8025   -2592.0913    9.5475293   0.21159153 
   59600   -677.50192    42.837975   -634.66395    1299.6431    3762.8607    9.5504298    0.2197823 
   59700   -674.74372    41.816067   -632.92766    1268.6399    5607.8128    9.5412273   0.23831874 
   59800   -669.19983    42.072987   -627.12684    1276.4345   -8533.5288    9.2499952   0.32621963 
   59900   -668.93184    40.431618   -628.50022    1226.6377    -11281.62    9.2274695   0.35924035 
   60000   -674.57454    41.585153   -632.98938    1261.6343   -6435.8302    9.3969919   0.29696864 
   60100   -676.28043    40.183068   -636.09736     1219.097    251.05065     9.506883   0.24605108 
   60200   -679.45881    40.742634   -638.71618    1236.0735   -8613.4226    9.4649966     0.251315 
   60300   -673.28821    42.178294   -631.10992    1279.6293   -1060.3151     9.422363   0.26983352 
   60400    -671.9745    42.049108   -629.92539      1275.71    9887.2751     9.537596   0.23509129 
   60500   -678.41252    41.290664   -637.12186    1252.6999    412.39324    9.5411209   0.22429483 
   60600   -673.87727     39.36776   -634.50951    1194.3617   -7600.4418    9.3699227   0.31624716 
   60700   -671.35734    41.330253   -630.02708     1253.901   -7349.9161    9.3247601   0.29105759 
   60800   -678.58795    42.280494   -636.30745    1282.7299   -5763.6629    9.4772061   0.24757265 
   60900   -679.78225    44.037587   -635.74466    1336.0376    2777.6588    9.5627088    0.2334579 
   61000   -674.51621    45.142185   -629.37403    1369.5496   -3484.2024    9.4101334   0.26688813 
   61100   -676.33942    40.483162   -635.85626    1228.2015   -9652.3358    9.3804094   0.24981196 
   61200   -677.52591    41.937545   -635.58836    1272.3254   -1279.5949    9.5113727   0.21410357 
   61300   -679.13369     43.59425   -635.53944    1322.5874    4160.7597    9.5899763   0.21115088 
   61400   -672.05747    45.515613   -626.54185    1380.8788    4005.0966    9.4604587   0.30362669 
   61500   -673.61934    44.053046    -629.5663    1336.5067      5384.09    9.5015719   0.26791309 
   61600   -678.07313    44.064041   -634.00909    1336.8402   -3534.7549     9.488792   0.24400898 
   61700   -678.05289    41.343896   -636.70899    1254.3149   -453.73274     9.523847     0.230713 
   61800   -678.90782    39.581451   -639.32637    1200.8448    6948.0514    9.6190511   0.23961149 
   61900   -675.16957    44.362157   -630.80741    1345.8846    1717.2785    9.5025503   0.27606604 
   62000   -673.81515    41.769573   -632.04558    1267.2293    753.42891    9.4776477    0.2478916 
   62100   -676.85852    41.169742   -635.68877    1249.0313    -6462.413    9.4303043   0.26865049 
   62200   -674.09304    38.723004   -635.37003    1174.8008    5279.1988    9.5191909   0.25269956 
   62300   -671.98946    44.236719   -627.75274     1342.079   -1937.2286    9.4011768   0.26431649 
   62400   -675.32287    41.535398   -633.78747    1260.1248   -58.278786    9.4864111   0.24729459 
   62500   -675.06067    38.830616   -636.23006    1178.0656    5055.2674    9.5446786   0.25109982 
   62600   -674.03933    42.303437   -631.73589     1283.426    3034.8227    9.4790328   0.26795675 
   62700   -669.71883     41.72704   -627.99179    1265.9389   -7256.5234    9.3150798   0.30138863 
   62800   -678.26376    41.745996   -636.51777     1266.514   -4206.5292    9.4890783   0.23749513 
   62900   -676.50715    41.784894   -634.72226    1267.6941    7869.2656    9.5861717   0.23796034 
   63000    -673.7601    43.035152   -630.72495    1305.6252   -8955.1062    9.3546129   0.28321815 
   63100   -671.10874    44.304962   -626.80378    1344.1494    3201.2764    9.4359219   0.27344707 
   63200   -677.93201    44.933419   -632.99859    1363.2159    5170.7867    9.5760194   0.26856627 
   63300   -678.75059    45.852557   -632.89803    1391.1013    3108.5905     9.563593   0.23369748 
   63400   -676.43686    39.895962    -636.5409    1210.3866    5991.2249    9.5698728   0.27265264 
   63500   -679.60963    36.782952   -642.82667    1115.9424   -7050.5874    9.5081141   0.23070419 
   63600   -679.65972    40.279009   -639.38071    1222.0077   -10705.283    9.4360596    0.2226752 
   63700   -679.77832    44.059065   -635.71926    1336.6893    2369.7865    9.5945052   0.20285894 
   63800   -678.28343    44.160569   -634.12286    1339.7687    13258.489    9.6726867   0.19774358 
   63900   -677.31438    45.326055   -631.98833    1375.1279   -5925.7487    9.4498934   0.26448552 
   64000   -668.93945    43.796958   -625.14249    1328.7373    -1346.995    9.3512155   0.31457714 
   64100   -675.71975    43.039213   -632.68053    1305.7484   -119.81732    9.4851043    0.2516951 
   64200   -676.27325    40.009807   -636.26344    1213.8405    1745.6748    9.5337395   0.25979502 
   64300   -676.11767    40.335516   -635.78215    1223.7221    4153.6092    9.5588276   0.24619705 
   64400   -672.80803     44.96405   -627.84398    1364.1452   -6405.9886    9.3692314   0.29646196 
   64500   -674.80034    41.037003   -633.76334    1245.0042    3022.4551    9.5042705   0.26478877 
   64600   -676.79734    39.957853   -636.83949    1212.2643    -2674.328    9.4894762   0.25521168 
   64700   -674.69337    44.047332   -630.64604    1336.3333    12164.503    9.5987262   0.24342303 
   64800   -676.81502     48.26105   -628.55397    1464.1715    6123.5262    9.5507462   0.21673828 
   64900   -676.75178    40.639218   -636.11256     1232.936   -428.87863     9.502961   0.24010032 
   65000   -676.97505    41.107319   -635.86773    1247.1375   -9529.7807    9.4125238   0.26338128 
   65100   -671.66609    40.258361   -631.40773    1221.3813    1491.3415    9.4345855   0.28611362 
   65200   -673.34319    44.658379   -628.68481    1354.8716   -7503.3321    9.3432441   0.28905396 
   65300   -679.93768    42.106959   -637.83072    1277.4651    4621.2371    9.6012517   0.20983929 
   65400   -677.70789    41.866744   -635.84115    1270.1774    6020.8944    9.5671382   0.24236991 
   65500   -673.56367    41.328726   -632.23494    1253.8547   -6984.2651    9.3744209   0.29987756 
   65600   -671.48821    41.009099   -630.47911    1244.1576   -2275.3297    9.3911054   0.29614323 
   65700   -678.00358    38.815044   -639.18854    1177.5931    1672.2162     9.554048   0.21534871 
   65800   -675.29487    39.149849   -636.14502    1187.7506    3272.1934    9.5182455   0.24633927 
   65900   -669.31095    38.930454   -630.38049    1181.0945    1907.9864    9.4035644   0.33594393 
   66000   -672.61046    39.409548   -633.20091    1195.6295   -2889.0439    9.3875374   0.31220945 
   66100   -679.83032     40.31958   -639.51074    1223.2386    1081.7049    9.5885629   0.19835343 
   66200   -676.66049    40.266083   -636.39441    1221.6156    5123.4482    9.5625183   0.22740409 
   66300   -673.79771     41.32189   -632.47582    1253.6473   -5045.9752    9.3960914   0.29609392 
   66400   -674.61998    41.309342   -633.31064    1253.2666    -1440.688    9.4583889   0.28912561 
   66500   -679.93412    41.422131   -638.51199    1256.6884    4749.0116    9.6079617   0.24573828 
   66600   -673.79282    43.345215    -630.4476    1315.0321   -1936.9666    9.3981356   0.35348937 
   66700   -673.95989    42.606892     -631.353    1292.6324   -7811.8164    9.3722512   0.26597922 
   66800   -675.51211    41.062141   -634.44997    1245.7669   -539.47785    9.4867127   0.24004316 
   66900   -679.20487     43.33621   -635.86866    1314.7589    2029.5505    9.5741015   0.25323859 
   67000   -673.71894    45.996219   -627.72272    1395.4597   -975.17148    9.4250141   0.29199836 
   67100   -674.97704    43.197268   -631.77977    1310.5436   -2316.1394    9.4456462   0.29836312 
   67200   -679.55469    42.367357   -637.18733    1285.3653   -1640.6162    9.5369135   0.23740738 
   67300   -674.89164    41.452488   -633.43915    1257.6094   -602.98573    9.4808531   0.29077619 
   67400   -669.10978    39.987451   -629.12233    1213.1623    2354.9461    9.4087874   0.32753454 
   67500    -676.2249    41.891674   -634.33322    1270.9337    4393.7117    9.5655092   0.22523887 
   67600   -677.51479    40.832113   -636.68268    1238.7881    3436.6486    9.5693023   0.25101485 
   67700   -676.81415    42.559867   -634.25428    1291.2057     5935.954     9.577786   0.23883518 
   67800   -672.46488    43.388218   -629.07666    1316.3367    4878.8714    9.4782461   0.23964674 
   67900   -675.85663    41.053435   -634.80319    1245.5027   -4827.2324    9.4166186   0.26187304 
   68000   -676.08554    39.193476   -636.89206    1189.0742   -7107.7878    9.4292929    0.2592671 
   68100   -673.39525    41.680562   -631.71468    1264.5289    -592.0651    9.4497616   0.26913236 
   68200   -672.64257    41.931106   -630.71147      1272.13    3033.7268     9.462934   0.28590031 
   68300   -678.08353    40.772329    -637.3112    1236.9744    7331.9588    9.6141614   0.25469318 
   68400   -675.10733    42.512914   -632.59442    1289.7812    3673.0896    9.5337132   0.24660263 
   68500   -675.53179    41.558806   -633.97298     1260.835   -4422.7435     9.406394   0.26417483 
   68600   -681.33879    39.904596    -641.4342    1210.6486   -5817.7244    9.5298168   0.19704027 
   68700   -679.98801     42.38218   -637.60583     1285.815   -673.30609    9.5549658   0.22141685 
   68800     -677.829    44.166604    -633.6624    1339.9518   -600.57136    9.5253925   0.24157587 
   68900   -676.31184     41.20994    -635.1019    1250.2509    8799.7373    9.6013882   0.22017358 
   69000   -680.73828    39.382589   -641.35569    1194.8116   -4347.0344    9.5437874   0.22643143 
   69100   -674.87769    40.619991    -634.2577    1232.3526   -2388.2601    9.4623484   0.28993677 
   69200   -676.50777    43.493298   -633.01448    1319.5247   -7881.6485    9.4125015   0.28431052 
   69300   -676.45175     40.62138   -635.83037    1232.3948    7490.4593    9.5910581   0.21610299 
   69400   -682.96279    42.455817   -640.50697     1288.049     3761.267    9.6545172   0.17338231 
   69500   -676.76105    42.952489   -633.80856    1303.1173   -700.17232     9.503754   0.24368501 
   69600   -676.27385    42.908828   -633.36502    1301.7927   -4903.7917     9.431983   0.26312018 
   69700   -678.91456    39.484213   -639.43035    1197.8948   -4815.5796    9.4957696   0.25826251 
   69800   -676.33396    41.322669   -635.01129    1253.6709    5465.8011     9.549968   0.22030312 
   69900   -671.58677    40.637523   -630.94925    1232.8845    2193.6753    9.4521206   0.27425321 
   70000   -676.59174    40.897078   -635.69466    1240.7591   -331.79008    9.5028765   0.24903833 
   70100   -679.69906    39.434276   -640.26478    1196.3797    8214.8311    9.6582498   0.22185278 
   70200   -674.53333    41.099934    -633.4334    1246.9134    5156.3968    9.5208932   0.24746053 
   70300   -676.97599    43.399247   -633.57674    1316.6713   -196.87159    9.4834018   0.25464386 
   70400   -679.53487    41.133689   -638.40118    1247.9375   -466.73464    9.5550602   0.24495135 
   70500   -674.73676    41.659371   -633.07739     1263.886    705.85863     9.485705   0.22973946 
   70600   -671.33569    40.706535   -630.62915    1234.9783    4339.0365    9.4664897   0.29367517 
   70700   -675.15329    39.846208   -635.30708    1208.8772   -3582.2401    9.4547686   0.29443324 
   70800    -677.9056     43.06714   -634.83846    1306.5957    1072.3301    9.5266164   0.21439851 
   70900   -672.26412     46.79158   -625.47254    1419.5899   -6509.8275    9.3392254   0.30229656 
   71000   -671.34154    44.090965   -627.25058    1337.6571    6494.6231    9.4819121   0.31340785 
   71100   -677.85116    44.860664    -632.9905    1361.0086   -4836.5252    9.4679398     0.242728 
   71200   -679.71992    42.254844   -637.46507    1281.9517    83.651812    9.5455531   0.21730583 
   71300   -676.43674    43.666442    -632.7703    1324.7776    592.62901     9.504936   0.22466961 
   71400    -675.1481    47.294962   -627.85314    1434.8618    9407.9427    9.5388942   0.27315512 
   71500   -674.40025    40.306942    -634.0933    1222.8552    7349.3951    9.5556358   0.31137299 
   71600   -675.87394    38.926035   -636.94791    1180.9604   -10208.003    9.3744686   0.29913081 
   71700   -673.26915    42.348407   -630.92075    1284.7903   -9301.5512    9.3321022   0.26012916 
   71800   -673.00806    43.575465    -629.4326    1322.0175    -1845.079    9.4002027   0.24832354 
   71900   -678.55651    40.754307    -637.8022    1236.4276    998.38804    9.5448021   0.21982671 
   72000   -681.42877    45.415997   -636.01277    1377.8566   -10580.536    9.4719633   0.22855052 
   72100   -676.17385    44.426367   -631.74748    1347.8327   -653.62089    9.4751736   0.25651249 
   72200   -670.55715    42.559906   -627.99724    1291.2069    5915.0416    9.4473049   0.34754757 
   72300   -667.36572    46.408714     -620.957    1407.9743    3144.8026    9.3700824   0.35572145 
   72400   -674.78904    45.409005   -629.38003    1377.6445    4201.6353     9.512363    0.2633839 
   72500   -675.78419    41.860074   -633.92412     1269.975   -740.04453    9.5040854   0.28232048 
   72600   -677.12635    41.077351     -636.049    1246.2283   -9877.2374    9.4011426   0.27439878 
   72700   -677.40674    38.535399   -638.87134    1169.1091   -1584.3888    9.5109491   0.26191685 
   72800   -672.32656    42.333556     -629.993    1284.3398    7378.5596    9.5071018   0.26025173 
   72900   -674.28001    42.274794   -632.00521     1282.557   -1933.5083    9.4554081   0.27372345 
   73000   -675.56035    40.616612   -634.94374    1232.2501   -4595.8677    9.4369242   0.27762672 
   73100    -674.8941    35.672223   -639.22188    1082.2444    4720.6817    9.5399436   0.25318576 
   73200   -683.91199    45.077635   -638.83435    1367.5912    1765.4019     9.646008     0.187046 
   73300   -678.04278     46.61082   -631.43196    1414.1059     10443.67    9.6277594   0.23387118 
   73400   -677.94137    43.896634   -634.04474    1331.7613   -107.52151    9.5168005   0.24296471 
   73500   -682.50768    42.944998   -639.56268      1302.89   -10386.008    9.4863728   0.20859936 
   73600   -678.62401    41.114759   -637.50925    1247.3632   -7109.5973    9.4621736    0.2182881 
   73700   -674.73402    42.054146   -632.67987    1275.8629   -1431.0042    9.4565752   0.24690399 
   73800    -674.3286    39.359128   -634.96948    1194.0999     4710.342    9.5294396   0.27487345 
   73900   -677.77655      39.3938   -638.38275    1195.1518    1649.6413    9.5434863   0.22718782 
   74000   -683.72103    37.696355   -646.02467    1143.6537   -5690.1877    9.5821443   0.19305252 
   74100   -678.09666    38.571306   -639.52536    1170.1985   -2797.3307    9.5067412   0.23278493 
   74200   -677.45903     41.64222   -635.81681    1263.3656    5749.4056    9.5748452   0.21798662 
   74300   -675.14495    40.384408   -634.76055    1225.2054    12648.609    9.6052771    0.2457182 
   74400   -677.48008    46.032767   -631.44731    1396.5685   -8486.7838    9.4177591   0.25514021 
   74500   -666.57002     43.29623   -623.27379    1313.5459   -8162.8489    9.2142968   0.35684205 
   74600   -674.16748    43.009536   -631.15795     1304.848     619.8173    9.4522964   0.29770428 
   74700   -673.72589    40.809506   -632.91638    1238.1023    2567.5637    9.4753962   0.27065127 
   74800   -676.63084    42.209937   -634.42091    1280.5894   -2221.6752    9.4654004   0.25079085 
   74900   -682.35352    40.765826   -641.58769    1236.7771    1106.2593    9.6155544   0.21111755 
   75000   -681.51635    44.402299   -637.11405    1347.1025    1200.9162    9.5931468   0.22184883 
   75100   -673.74118     40.43435   -633.30683    1226.7206    1726.3721    9.4625565   0.27440323 
   75200   -674.03457    38.964404   -635.07016    1182.1245   -3912.0314    9.4327228   0.26435629 
   75300   -679.60974    38.120376   -641.48936    1156.5179   -9841.5414    9.4683343    0.2563105 
   75400    -677.3341    43.182429   -634.15167    1310.0934    2161.2881     9.531173   0.23847065 
   75500   -674.73613    43.975064   -630.76107    1334.1408    4305.3817    9.5143605   0.31184055 
   75600   -678.01118    44.936387   -633.07479     1363.306   -2724.6408    9.4731433   0.26312579 
   75700   -679.28617    39.584556   -639.70162     1200.939   -3439.9321     9.514431   0.20310751 
   75800   -675.31618     41.01082   -634.30536    1244.2098   -2983.5437    9.4627187   0.25244079 
   75900   -674.38853    42.717884   -631.67065    1295.9997   -415.23922    9.4688789   0.27943734 
   76000   -678.93863    41.722271   -637.21636    1265.7942      4630.08    9.5924994   0.23667633 
   76100   -675.59524    37.049682   -638.54556    1124.0346   -3604.7808    9.4515971   0.25468988 
   76200   -672.70624    40.462207   -632.24403    1227.5657    1783.0775    9.4306355   0.30932965 
   76300   -675.07607    42.284353   -632.79172     1282.847    3210.9334    9.4904448   0.26356778 
   76400   -681.78411    44.081017    -637.7031    1337.3552   -7444.8578    9.5038652   0.19945406 
   76500   -678.35559    37.120793    -641.2348     1126.192   -11311.274    9.4376537   0.27065532 
   76600   -674.13033    41.167931    -632.9624    1248.9764   -2857.0707    9.4211603    0.3069538 
   76700   -676.47682    43.808476   -632.66834    1329.0867    2405.8291    9.5263194   0.26684685 
   76800   -678.75554    41.276598   -637.47894    1252.2732    1553.7534    9.5693244   0.21931266 
   76900   -682.16988    40.617675   -641.55221    1232.2824     4313.862    9.6399186   0.21280576 
   77000   -676.57387    42.914853   -633.65902    1301.9755    2771.9713    9.5221238    0.2528927 
   77100    -676.2568    40.951084   -635.30572    1242.3976   -3178.5458    9.4572028   0.23572086 
[...]
  481400   -680.94395    43.648542   -637.29541    1324.2346   -4079.1799    9.5241355   0.22549935 
  481500    -675.7241    45.079298    -630.6448    1367.6417    5191.5983    9.5343298   0.23116749 
  481600   -675.61373    42.671941   -632.94179    1294.6059    1948.1257    9.5014636   0.24107876 
  481700   -679.37066    40.282288   -639.08838    1222.1072   -7709.2535    9.4683551   0.23990185 
  481800   -676.24111    42.154466   -634.08665    1278.9064   -7144.9564    9.4103581   0.27880629 
  481900   -673.58395    44.460134   -629.12382    1348.8571    1466.4375    9.4493674    0.2812584 
  482000   -675.80384    41.881232   -633.92261    1270.6169     10349.35    9.6125271   0.26403156 
  482100   -679.89418    42.512897   -637.38128    1289.7807    10056.305    9.6749876   0.21182645 
  482200   -674.95127    41.987801   -632.96347      1273.85    3355.1187    9.4978288   0.24655384 
  482300   -672.28567    41.427837   -630.85783    1256.8616   -4863.1104    9.3578146   0.28362103 
  482400   -680.27003     42.20949   -638.06054    1280.5758   -5631.3958    9.5020391   0.22036681 
  482500   -683.46408    45.216456   -638.24762    1371.8028   -3875.2035    9.5811779   0.20883394 
  482600   -674.05368    43.689119   -630.36456    1325.4656    3667.4647      9.50428   0.27456403 
  482700   -676.39324    42.155975   -634.23727    1278.9522    5343.8855    9.5577664   0.24070366 
  482800   -679.28581    41.720727   -637.56509    1265.7474   -1774.8627    9.5262524   0.21077302 
  482900   -673.39694    42.766759   -630.63019    1297.4825   -1781.3214    9.4271867    0.3017565 
  483000   -672.36571    40.919827   -631.44588    1241.4493   -479.51464    9.4422359   0.31951422 
  483100   -675.25564     42.07087   -633.18477    1276.3702    3622.8287    9.5130404   0.28969586 
  483200   -676.49517    44.426049   -632.06912     1347.823     4287.399    9.5421811   0.25679272 
  483300   -682.82202    41.063062   -641.75896    1245.7948    6082.4808    9.6834191   0.18951193 
  483400   -679.44708    40.752806   -638.69428    1236.3821   -7194.4837    9.4847913   0.21339554 
  483500   -676.63792    41.628274   -635.00964    1262.9425   -2624.7574    9.4864549   0.25403401 
  483600    -673.4102    41.727212   -631.68299    1265.9441    1577.7577    9.4720235   0.26574624 
  483700   -675.40764    46.130367   -629.27727    1399.5296    704.36101    9.4790328   0.24967586 
  483800   -679.38094    41.836486   -637.54445    1269.2594    7073.4003    9.6268106   0.21274635 
  483900   -675.74656    38.967136   -636.77942    1182.2074   -6088.4897    9.4290332    0.2590775 
  484000   -672.05182    39.356772   -632.69505    1194.0284   -2543.1663    9.3789081   0.30439819 
  484100   -672.89374    43.258908   -629.63483    1312.4136   -4591.1068    9.3716432   0.29545442 
  484200   -677.02591    40.085807   -636.94011    1216.1463      7636.79     9.609582   0.21071672 
  484300   -680.60643    45.612719   -634.99372    1383.8249    353.43261    9.5737282   0.24490329 
  484400   -676.50935    44.751601   -631.75774    1357.6998     2803.282    9.5268788   0.25738183 
  484500   -678.89767    40.052202   -638.84547    1215.1267     742.0577    9.5506677   0.22793848 
  484600   -680.44219    42.000904   -638.44128    1274.2476   -6416.2221    9.4912925   0.22613202 
  484700   -673.69472     40.92999   -632.76474    1241.7576   -3616.5511    9.4102665   0.26400657 
  484800   -676.94444    43.731207   -633.21323    1326.7425   -82.677676    9.5004439   0.24420869 
  484900   -682.24043    42.891234   -639.34919    1301.2589    7658.4526    9.6859576   0.20987362 
  485000   -674.91586    41.417498   -633.49836    1256.5479    1958.7125    9.4986049    0.2447527 
  485100   -677.88935    44.466583   -633.42276    1349.0528    -8272.386    9.4343684   0.24446509 
  485200   -680.14931    42.458813    -637.6905    1288.1399    1957.9815    9.5841804   0.20364636 
  485300    -682.5147    43.302643   -639.21206    1313.7405     3508.683    9.6491734   0.21299183 
  485400    -671.0807     40.54702   -630.53367    1230.1388    2416.5905    9.4318984   0.32204272 
  485500   -674.33461    41.885533   -632.44908    1270.7474   -2917.3558    9.4349497   0.29349839 
  485600   -676.52566    39.972924   -636.55274    1212.7216    2941.6513    9.5510589   0.24242476 
  485700   -676.19593      39.5546   -636.64133    1200.0302     1230.851    9.5307507   0.23397845 
  485800   -671.46855    43.700264   -627.76829    1325.8038    3644.9694    9.4433984   0.30139686 
  485900   -674.55143    43.447945   -631.10348    1318.1488    2639.8682    9.4920136   0.29880096 
  486000   -679.67086    43.601747   -636.06911    1322.8149    4761.9572    9.6115769   0.20402113 
  486100   -680.08205     41.56309   -638.51896    1260.9649   -10733.464    9.4590862   0.24750714 
  486200   -674.48034    41.579788   -632.90055    1261.4715   -7627.4126    9.3684099   0.32950115 
  486300   -673.72515    43.460089   -630.26506    1318.5172   -662.72108    9.4249714   0.29925926 
  486400   -677.90182     40.64571   -637.25611    1233.1329    11030.551    9.6398716   0.22072191 
  486500   -680.79603    43.913503   -636.88253    1332.2731   -731.89648    9.5691791   0.21109812 
  486600   -673.87253    41.651239   -632.22129    1263.6392    506.22478    9.4657259   0.26098548 
  486700   -671.01582    41.167491   -629.84833     1248.963   -4362.5329    9.3625343   0.29524844 
  486800     -677.697    39.850377   -637.84662    1209.0037    3449.3763    9.5797033   0.25128723 
  486900   -681.73583    44.800859   -636.93498    1359.1942    4452.5793    9.6516893   0.19818729 
  487000   -674.90015    41.838679   -633.06147    1269.3259    1454.4061    9.4947147   0.25453778 
  487100   -674.52642    45.594937   -628.93149    1383.2854     925.1165    9.4652892   0.26268921 
  487200   -678.00255    42.057214   -635.94534     1275.956   -7120.5991    9.4497388   0.27736569 
  487300   -673.97423    37.659992   -636.31423    1142.5505    4485.7635    9.5188553   0.27170531 
  487400   -673.17004    43.880474   -629.28957    1331.2711   -2274.7242    9.3993927   0.30302342 
  487500   -676.03766    46.664111   -629.37355    1415.7226    -9408.401     9.388745   0.26312735 
  487600   -681.46713    45.144622   -636.32251    1369.6235   -3484.8354     9.539659   0.21596962 
  487700   -679.21947    44.448516   -634.77096    1348.5046    5817.4797    9.6039157   0.19997563 
  487800    -674.8109    43.390901      -631.42    1316.4181    692.78489    9.4906789   0.25956204 
  487900   -668.12717    43.162423   -624.96475    1309.4864   -1747.3241    9.3325651   0.34001696 
  488000    -677.5945    44.864435   -632.73006     1361.123    2139.2729    9.5435092   0.21911003 
  488100   -679.38346    43.457889   -635.92557    1318.4504   -1336.5742    9.5297823   0.22857382 
  488200   -675.74392    42.059865   -633.68406    1276.0364   -1009.4053    9.4613082    0.2542078 
  488300   -675.17149    44.048217   -631.12328    1336.3601    2117.9049    9.4897539   0.27574187 
  488400   -682.34615    42.395332   -639.95082     1286.214   -568.46428     9.614252   0.19669846 
  488500   -678.44124    41.511824   -636.92942    1259.4096   -5726.9942     9.478151   0.25720219 
  488600   -675.05364     41.58322   -633.47042    1261.5757   -11651.203    9.3416024   0.26748383 
  488700   -674.23133      39.2595   -634.97183    1191.0773   -7748.2594    9.4042257    0.2851064 
  488800   -687.44962     45.26308   -642.18654    1373.2173    23.977036    9.6846181    0.1737413 
  488900   -679.59493    41.532746   -638.06218    1260.0443    8087.3775    9.6549621   0.21045323 
  489000   -678.48812    42.741342   -635.74678    1296.7114    1713.0897    9.5461396   0.23837748 
  489100   -672.63859    40.604828   -632.03376    1231.8926    7389.1604    9.5273502   0.26346446 
  489200   -673.18741    40.628446   -632.55896    1232.6092    1404.2247    9.4709928   0.28400984 
  489300   -680.21189    40.732571   -639.47932    1235.7682   -10365.049    9.4487806   0.23526213 
  489400   -676.05907    42.274641   -633.78443    1282.5524    1604.4629    9.5128193   0.27405028 
  489500   -673.21232    41.979423    -631.2329    1273.5959    3382.0254    9.4880235   0.29072149 
  489600   -677.90524    40.824773   -637.08047    1238.5655   -1848.6918    9.5221046   0.25364493 
  489700   -681.83061    40.657071   -641.17354    1233.4776     1050.916    9.6117538   0.22095757 
  489800   -676.86501    43.806888   -633.05812    1329.0386   -715.35264    9.4916398    0.2678106 
  489900   -675.64998    42.755665   -632.89432     1297.146    666.14825    9.5043511   0.26335709 
  490000   -677.58628    39.676661   -637.90962    1203.7334    2063.8077    9.5485262   0.22641708 
  490100   -679.16378     39.12397   -640.03981    1186.9655   -5976.1087    9.4816258   0.23211991 
  490200   -675.10329    42.605006   -632.49828    1292.5752    5338.1558    9.5204935   0.25723686 
  490300   -677.10111    43.928847   -633.17226    1332.7386    3620.3651     9.546699   0.23947868 
  490400   -679.08686    39.688668   -639.39819    1204.0976    1053.4264    9.5582112   0.22224873 
  490500   -677.29201    39.165903    -638.1261    1188.2377   -13181.404    9.3767895   0.26962024 
  490600   -673.95362    39.893898   -634.05972     1210.324   -3183.4016    9.4287461   0.30253704 
  490700   -672.46777    40.153274    -632.3145    1218.1931    3354.0478     9.482883   0.26826638 
  490800   -678.64216    42.620791   -636.02137    1293.0541    -2507.124    9.5057116   0.25362503 
  490900   -682.71947    42.444618   -640.27485    1287.7092   -6653.4846    9.5403223   0.21824867 
  491000   -673.58686    41.083674   -632.50319    1246.4201    7962.7966    9.5318115   0.25130207 
  491100    -676.0479     43.29733   -632.75057    1313.5793   -2060.1833    9.4606356   0.27968803 
  491200   -677.34475     38.70434   -638.64041    1174.2345   -2458.6906    9.5130951   0.25202539 
  491300   -681.28089    43.724462   -637.55643    1326.5379    -8906.876     9.489936    0.2262097 
  491400   -675.94632    43.479758   -632.46656    1319.1139    8108.6827    9.5591346   0.25576875 
  491500   -674.51215     41.01908   -633.49307    1244.4605    11351.743     9.596045   0.24456668 
  491600   -679.97358    40.195834   -639.77775    1219.4843    -3042.609    9.5386183    0.2325579 
  491700   -673.72816    40.399336   -633.32882    1225.6583   -4795.1587    9.4077126   0.25698732 
  491800   -674.50448    43.491323   -631.01316    1319.4648    4025.2532    9.5068325    0.2835476 
  491900   -683.12557    43.973001   -639.15257    1334.0782   -3254.5178    9.5656453   0.23165971 
  492000   -675.36535    38.450521   -636.91483     1166.534   -3715.5644    9.4587154   0.24685488 
  492100   -673.84402    43.075271   -630.76875    1306.8424   -787.38889    9.4499608   0.27192986 
  492200   -673.61463    43.242829    -630.3718    1311.9258    909.13242    9.4555088   0.28266945 
  492300   -672.10081    44.492671   -627.60814    1349.8442     7528.181    9.4887537   0.25062122 
  492400   -676.45652      41.7231   -634.73342    1265.8194    144.73151    9.5117352   0.23762706 
  492500   -676.70154    40.740945    -635.9606    1236.0222   -7931.0323    9.4110227   0.29290222 
  492600   -673.17108    43.522155   -629.64892    1320.4002   -6833.8452    9.3755721    0.3053964 
  492700   -678.40828    42.191941   -636.21633    1280.0434   -123.90971    9.5207557   0.23428767 
  492800   -678.53583    41.786035    -636.7498    1267.7288    11548.227    9.6659195   0.19116325 
  492900   -676.12919    45.333298   -630.79589    1375.3477   -5613.5044    9.4211734   0.24301026 
  493000   -673.32315    41.191851   -632.13129    1249.7021   -3560.1774    9.3876564   0.31074842 
  493100   -676.00126    39.591373   -636.40989    1201.1458   -3222.7026    9.4692819   0.29669295 
  493200   -678.12939    38.455294   -639.67409    1166.6788    4099.5072    9.5778204   0.24473548 
  493300   -685.75921    39.190559   -646.56865    1188.9857    -6575.329    9.5898052   0.18825194 
  493400   -677.38277    37.850482   -639.53229    1148.3297   -4850.2856    9.4756811   0.24037936 
  493500   -678.65718    42.519522   -636.13766    1289.9817    843.24816    9.5485765   0.21256117 
  493600   -675.94409    42.699263   -633.24482    1295.4348     9558.092    9.6127677   0.23380025 
  493700   -674.58487    43.032617   -631.55225    1305.5483    2377.9077    9.4872779   0.28564168 
  493800   -673.63103    41.788343   -631.84269    1267.7988   -4859.2499    9.4086628   0.28624212 
  493900   -677.54801    39.777302   -637.77071    1206.7867    3660.5342     9.568372   0.20946177 
  494000   -676.78598    42.772897   -634.01308    1297.6687    391.53891    9.4944154   0.24527706 
  494100   -674.41026    45.510597   -628.89967    1380.7267   -7897.3646    9.3719353   0.27126965 
  494200     -676.374    40.896875   -635.47712    1240.7529    12547.256    9.6430114   0.23776272 
  494300   -681.37041    44.194029   -637.17638    1340.7839   -1576.5151    9.5569885   0.22048973 
  494400   -673.98232    42.633762   -631.34856    1293.4476   -6280.3186    9.3903407   0.25644788 
  494500   -672.94298    39.901035   -633.04195    1210.5405   -2506.7284    9.4048909   0.26869645 
  494600   -681.89067    41.702609   -640.18806    1265.1977    3913.8104    9.6357175   0.19046113 
  494700   -675.76695    40.241415   -635.52554    1220.8672    6656.6211    9.5571738   0.23690572 
  494800   -675.71479    43.539234   -632.17556    1320.9183   -1958.2942    9.4485979   0.25308211 
  494900   -677.64694    39.717195   -637.92974    1204.9631   -1745.6574    9.5037763   0.26990667 
  495000   -676.68736    41.407222   -635.28014    1256.2361   -7499.8271    9.4252005   0.24805771 
  495100   -673.51019    45.078101   -628.43209    1367.6053    -224.6789    9.4270398   0.30369271 
  495200   -674.35921    40.763305   -633.59591    1236.7006    13664.052    9.6121543   0.22707946 
  495300   -676.52445    39.388132   -637.13632    1194.9798    2134.7005    9.5352735     0.244834 
  495400   -673.14377    41.557233   -631.58653    1260.7872   -11235.216    9.3285959   0.28786743 
  495500   -673.14673    43.990433    -629.1563     1334.607    5859.6735    9.5024556   0.24623183 
  495600   -678.95306    44.093254    -634.8598    1337.7265    2067.3333    9.5708331   0.21837973 
  495700   -677.82646    41.610884   -636.21557    1262.4149    7536.9781    9.6198614   0.23521842 
  495800   -672.78007    40.875093   -631.90497    1240.0921   -1163.9811    9.4267517   0.27655332 
  495900   -673.04732    45.066893   -627.98043    1367.2653   -936.40751    9.4045292   0.26753664 
  496000    -676.4482    42.727003    -633.7212    1296.2764    -1992.813    9.4846662   0.25220955 
  496100   -678.87584    41.870074   -637.00577    1270.2784    3723.8741     9.588485   0.24170228 
  496200   -678.84882    38.591838   -640.25698    1170.8214    9.5560599    9.5509633   0.24422277 
  496300   -682.31884    38.914796   -643.40405    1180.6195   -3005.7235    9.5618447   0.20625547 
  496400   -674.84107    39.628585   -635.21248    1202.2748    -5097.771    9.4078061   0.27563427 
  496500   -674.13555    39.510737   -634.62481    1198.6995   -3421.6704    9.4259474   0.30401031 
  496600   -676.19836    41.591246   -634.60711    1261.8191    406.90859    9.5124377   0.25308914 
  496700   -679.54571    40.696855   -638.84886    1234.6846   -11560.508    9.4371045   0.24134857 
  496800   -679.21113    36.378282   -642.83285    1103.6652   -3532.5283     9.530955   0.23706081 
  496900   -671.75791    37.851077   -633.90683    1148.3477    8268.5239    9.5375483   0.27008729 
  497000   -677.16703    44.478677   -632.68836    1349.4197   -3773.2028     9.472779   0.25792859 
  497100   -679.25874    43.826636   -635.43211    1329.6377    -2883.274    9.5089525   0.23174356 
  497200   -681.16442    40.638143   -640.52628    1232.9034    9017.9698    9.7020545   0.20873065 
  497300   -676.27798    42.656592   -633.62138    1294.1402    4524.6761    9.5602949   0.24908664 
  497400   -675.68383    42.603594   -633.08024    1292.5323   -3726.1411    9.4356535   0.25150053 
  497500   -676.67977     39.13528   -637.54449    1187.3086   -3711.8043     9.475014   0.24357422 
  497600   -676.95783    43.529979   -633.42785    1320.6376    1223.5549     9.502056   0.24158727 
  497700   -671.91968    42.478737   -629.44094    1288.7443    3199.6909    9.4601523   0.28714115 
  497800    -676.4062    42.542062   -633.86414    1290.6656    3577.3926    9.5444392   0.23679329 
  497900   -679.15476    39.957559    -639.1972    1212.2554    1656.1272    9.5688807   0.23781998 
  498000   -673.74404    41.441437   -632.30261    1257.2742   -4690.5616     9.406243   0.29002041 
  498100   -672.04145    42.909458     -629.132    1301.8118    516.48028    9.4374174   0.28611276 
  498200   -676.82527    41.536277   -635.28899    1260.1515    5224.5448    9.5458136   0.23657809 
  498300   -678.28983    42.521546   -635.76828    1290.0431    8464.3647    9.6168052   0.21148628 
  498400    -673.3633    43.131197    -630.2321    1308.5391     5923.571    9.5177661    0.2722322 
  498500   -671.53333    43.934673   -627.59866    1332.9154   -5836.1822    9.3367505   0.32450508 
  498600   -673.14929    39.575356   -633.57394    1200.6599   -9805.3867     9.324508   0.30847923 
  498700   -675.16281    37.391731   -637.77108    1134.4118   -4989.2606    9.4166934   0.28441246 
  498800   -676.19071     45.24696   -630.94375    1372.7283   -4992.5567    9.4211937   0.30556913 
  498900   -672.89197    43.232468   -629.65951    1311.6115   -4753.6662     9.385968   0.31550057 
  499000   -676.89757    39.822901   -637.07467    1208.1701   -2870.1084    9.4818784   0.25369493 
  499100   -678.14903    42.047645   -636.10138    1275.6656    1123.3644    9.5373348   0.23859876 
  499200   -672.05152    42.895067   -629.15645    1301.3752    7209.8301    9.5053525   0.26839383 
  499300   -673.40539    43.710113   -629.69528    1326.1025    6259.7037    9.5026603   0.26959122 
  499400   -679.30984    43.294834   -636.01501    1313.5036    12917.489    9.6925637   0.20712176 
  499500   -678.89434    44.292545   -634.60179    1343.7727   -15.615667     9.541168   0.21446862 
  499600   -675.09523    44.705206   -630.39002    1356.2923   -2738.1315    9.4242252   0.26658435 
  499700   -676.99156     41.36165   -635.62991    1254.8535   -13732.284    9.3716638   0.28354066 
  499800   -679.07388    41.209418   -637.86446     1250.235   -5460.5029    9.4909709   0.27807039 
  499900   -676.21198    41.740906   -634.47108    1266.3596    1860.1846    9.5090366     0.266812 
  500000    -675.5118    43.337559   -632.17424    1314.7998    800.34859    9.4828616   0.27126058 
Loop time of 349.6 on 1 procs for 500000 steps with 256 atoms

Performance: 617.849 ns/day, 0.039 hours/ns, 1430.207 timesteps/s
100.0% CPU use with 1 MPI tasks x no OpenMP threads

MPI task timing breakdown:
Section |  min time  |  avg time  |  max time  |%varavg| %total
---------------------------------------------------------------
Pair    | 209.54     | 209.54     | 209.54     |   0.0 | 59.94
Neigh   | 13.994     | 13.994     | 13.994     |   0.0 |  4.00
Comm    | 3.8205     | 3.8205     | 3.8205     |   0.0 |  1.09
Output  | 0.14984    | 0.14984    | 0.14984    |   0.0 |  0.04
Modify  | 121.31     | 121.31     | 121.31     |   0.0 | 34.70
Other   |            | 0.792      |            |       |  0.23

Nlocal:    256 ave 256 max 256 min
Histogram: 1 0 0 0 0 0 0 0 0 0
Nghost:    1431 ave 1431 max 1431 min
Histogram: 1 0 0 0 0 0 0 0 0 0
Neighs:    11529 ave 11529 max 11529 min
Histogram: 1 0 0 0 0 0 0 0 0 0

Total # of neighbors = 11529
Ave neighs/atom = 45.0352
Neighbor list builds = 25557
Dangerous builds = 0
    
Total wall time: 0:05:49
