LAMMPS (3 Mar 2020)

    # ---------- Initialize simulation ---------------------
    units metal
    atom_style atomic
    dimension  3
    boundary   p p p
    read_data /home/modeler/RemLabs/Lab4/ProblemEC1_v2_size_4/temp_1210/lammps.data
  orthogonal box = (0 0 0) to (16.36 16.36 16.36)
  1 by 1 by 1 MPI processor grid
  reading atoms ...
  256 atoms
  read_data CPU = 0.00113195 secs

    pair_style eam
    pair_coeff * * /usr/share/lammps-stable/potentials/Ag_u3.eam
Reading potential file /usr/share/lammps-stable/potentials/Ag_u3.eam with DATE: 2007-06-11

    velocity  all create 1210 87287 dist gaussian

    # ---------- Describe computed properties------------------
    compute msdall all msd
    thermo_style custom step pe ke etotal temp press density c_msdall[4]
    thermo 100

    # ---------- Specify ensemble  ---------------------
    #fix  1 all nve
    #fix  1 all nvt temp 1210 1210 0.25
    fix 1 all npt temp 1210 1210 0.25 tchain 2 iso 1.0 1.0 1.0 pchain 2

    # --------- Compute RDF ---------------
    compute rdfall all rdf 100 1 1
    fix 2 all ave/time 1 125000 125000 c_rdfall[*] file /home/modeler/RemLabs/Lab4/ProblemEC1_v2_size_4/temp_1210/lammps.rdf mode vector

    # --------- Run -------------
    timestep 0.005
    run 500000
Neighbor list info ...
  update every 1 steps, delay 10 steps, check yes
  max neighbors/atom: 2000, page size: 100000
  master list distance cutoff = 7.55
  ghost atom cutoff = 7.55
  binsize = 3.775, bins = 5 5 5
  2 neighbor lists, perpetual/occasional/extra = 1 1 0
  (1) pair eam, perpetual
      attributes: half, newton on
      pair build: half/bin/atomonly/newton
      stencil: half/bin/3d/newton
      bin: standard
  (2) compute rdf, occasional, copy from (1)
      attributes: half, newton on
      pair build: copy
      stencil: none
      bin: none
Per MPI rank memory allocation (min/avg/max) = 3.744 | 3.744 | 3.744 Mbytes
Step PotEng KinEng TotEng Temp Press Density c_msdall[4] 
       0       -729.6    39.883218   -689.71678         1210    9728.7444    10.472245            0 
     100   -707.52455    21.361417   -686.16313    648.07496   -6816.2471    10.004276   0.06547996 
     200   -703.73637    21.466976    -682.2694    651.27746   -5546.5378    9.9562105  0.088784597 
     300   -703.77833    25.102006   -678.67632    761.55909     4151.612    10.048812  0.081839916 
     400   -702.21927    26.929656   -675.28961     817.0074   -542.42919    9.9708771  0.090055349 
     500   -698.95982    27.006914    -671.9529    819.35129   -1667.3952      9.90606   0.10308541 
     600   -697.56535    28.955406   -668.60994    878.46575     165.5401    9.8994202   0.11745277 
     700   -694.88487    29.521299   -665.36357    895.63414    5681.9466    9.9126899    0.1186472 
     800   -693.28394     31.19023   -662.09371    946.26715    4172.7191    9.8609717   0.13106841 
     900    -691.8005    33.063782   -658.73672     1003.108   -10386.218    9.6850246   0.15241829 
    1000   -689.89497    34.397967     -655.497    1043.5853   -6547.0734    9.6812291   0.16372818 
    1100   -687.41953    35.262842   -652.15669    1069.8244    4352.7499    9.7565236   0.15021036 
    1200   -685.24268    36.370553   -648.87213    1103.4308     6106.445    9.7375555   0.17392819 
    1300   -680.12655    34.290241   -645.83631     1040.317     8049.399    9.6774525   0.21349822 
    1400    -680.5742     37.84464   -642.72956    1148.1525   -10864.268    9.4778771    0.2204526 
    1500   -676.21357    35.705517   -640.50806    1083.2545   -4041.0475    9.4770627   0.27175565 
    1600   -680.23921    42.931811    -637.3074      1302.49   -1817.5554    9.5417271   0.20698738 
    1700    -681.8521    39.113005    -642.7391    1186.6329    4604.0225    9.6486457   0.21041787 
    1800   -684.11193    41.642809   -642.46912    1263.3835   -726.90238    9.6199415   0.20236412 
    1900   -678.86231    42.708182   -636.15413    1295.7054   -2974.6506    9.5103358   0.22022428 
    2000   -680.03763    39.047527   -640.99011    1184.6463    1217.9475    9.5799655   0.23058215 
    2100    -678.5681    35.795244   -642.77286    1085.9767   -1562.3747    9.5453522    0.2429623 
    2200   -673.96781    39.238598   -634.72921    1190.4432    2203.6323    9.4953726   0.24852052 
    2300   -676.23156    38.657324   -637.57424    1172.8081    1973.9898    9.5349023   0.24920205 
    2400   -681.30767     39.55538   -641.75229    1200.0539   -4753.4534    9.5275706   0.22008122 
    2500   -677.63706    39.710694   -637.92637    1204.7659    8510.6835    9.6177961   0.23115696 
    2600   -676.63815    43.053005   -633.58515    1306.1668    8078.4087     9.589105   0.24402154 
    2700    -679.8471    39.636487   -640.21062    1202.5145   -1241.4999    9.5511808   0.23353222 
    2800   -679.27955    36.305955   -642.97359     1101.471   -3103.2121    9.5250872   0.19523018 
    2900   -684.49743    38.038236    -646.4592    1154.0259   -4559.8389     9.597811   0.16869361 
    3000   -675.97391    38.824548   -637.14936    1177.8815    6634.1005    9.5818147   0.23431275 
    3100   -678.86159    39.835803   -639.02579    1208.5615   -3073.2826     9.503146    0.2415904 
    3200   -677.52347    37.737643   -639.78583    1144.9063    4667.4668    9.5712503   0.21921222 
    3300   -679.62839    36.230182   -643.39821    1099.1721   -342.51529    9.5624382   0.21696007 
    3400   -685.49379    37.741301   -647.75248    1145.0173   -6146.4225    9.6015529   0.20132432 
    3500   -680.95634    40.608884   -640.34745    1232.0157   -3105.1064    9.5415299   0.23967484 
    3600   -677.89467    38.721891   -639.17278     1174.767   -7.9849508    9.5155681   0.26539717 
    3700    -678.4877    38.703159   -639.78454    1174.1987   -1407.5052    9.5335517    0.2340418 
    3800   -686.73298    39.583488   -647.14949    1200.9066   -2450.9509    9.6624185   0.16730838 
    3900   -680.42816    38.221016   -642.20714    1159.5712   -2258.2119    9.5540657    0.2243435 
    4000   -678.11605     38.71289   -639.40316    1174.4939   -2480.6396    9.5098131    0.2414267 
    4100   -677.00964    38.959522   -638.05012    1181.9764    8518.3172    9.6089421   0.24270801 
    4200   -674.88239    44.289509   -630.59289    1343.6806    2989.9297    9.4896227    0.2525869 
    4300   -676.39479    40.563533   -635.83126    1230.6398   -2077.1219    9.4750309   0.25709335 
    4400   -678.55214    38.903594   -639.64854    1180.2796   -3304.4185    9.4984835    0.2636918 
    4500   -679.61641    39.255387   -640.36103    1190.9525    1059.5227    9.5702818   0.28664369 
    4600   -677.07471       40.775   -636.29971    1237.0554   -10277.265    9.4013912   0.26612468 
    4700   -670.43777    38.047607   -632.39016    1154.3102   -7796.7757    9.3239122   0.30439062 
    4800   -681.70657    40.958131   -640.74844    1242.6113    6616.5628    9.6600691   0.18994479 
    4900   -680.66213    40.406495   -640.25563    1225.8755    1376.0294    9.5833145   0.21094524 
    5000   -678.26735    38.818024   -639.44932    1177.6835    1861.2695    9.5538776   0.23878235 
    5100   -677.00818    43.580213   -633.42796    1322.1616    231.62201    9.5040864   0.25811766 
    5200   -676.85802    45.101153   -631.75687    1368.3047    3012.1176    9.5395846   0.23130942 
    5300   -680.30477     41.58462   -638.72015    1261.6181   -9012.4356    9.4748989   0.23657576 
    5400   -680.08452    41.375323    -638.7092    1255.2683    7713.7165    9.6486613   0.20319814 
    5500   -682.68902    42.561015     -640.128    1291.2406    4253.3876    9.6620503   0.20540681 
    5600   -682.76129    36.522672   -646.23862    1108.0458    2739.4396    9.6512846   0.20708567 
    5700   -678.89264    38.853986   -640.03866    1178.7746   -1955.0564    9.5287791   0.27406295 
    5800   -680.08432    41.945248   -638.13907    1272.5591   -551.00506    9.5492155   0.25641242 
    5900   -677.63432     36.78315   -640.85117    1115.9484    399.84019    9.5191352   0.23756556 
    6000   -681.80095       36.423   -645.37795    1105.0219   -10241.151    9.5055254    0.2244617 
    6100   -683.45316    39.347397   -644.10576     1193.744    10777.518     9.756154   0.18737479 
    6200   -680.40223    41.319364   -639.08287    1253.5706     2603.977    9.5955792   0.23375558 
    6300    -680.1089    39.539038   -640.56987    1199.5581   -5604.9672    9.5012805   0.24175699 
    6400   -679.64152    36.931119    -642.7104    1120.4375    -8450.583    9.4698992   0.23065223 
    6500   -676.14762    41.649429    -634.4982    1263.5843    4360.9589    9.5224706    0.2094525 
    6600   -677.39498    38.926678    -638.4683    1180.9799    6175.7869    9.5874476   0.22634059 
    6700   -682.14438    39.638103   -642.50627    1202.5636   -6279.7363    9.5382305   0.20556416 
    6800   -681.29713    40.936353   -640.36078    1241.9506    67.849695    9.5737934    0.2027437 
    6900   -678.63723    43.225565   -635.41167     1311.402   -1562.2867    9.5197465   0.21879651 
    7000   -679.57438    38.444322   -641.13006     1166.346     1817.739    9.5874137    0.2096905 
    7100   -684.14349    40.241837   -643.90165      1220.88   -52.046781    9.6263533   0.19435393 
    7200   -677.18959    40.495266   -636.69433    1228.5687   -650.65823    9.4953487    0.2566934 
    7300   -676.20989    39.626691    -636.5832    1202.2173   -12022.374    9.3790251   0.24620632 
    7400   -681.59992    39.228032   -642.37189    1190.1226   -9245.7568    9.4997565   0.21493328 
    7500   -681.76761    43.162714   -638.60489    1309.4953    7026.7338    9.6648106   0.20159078 
    7600   -676.35573    41.875194   -634.48053    1270.4337    9183.1721    9.6178276   0.22695928 
    7700   -682.67979    41.298379   -641.38142     1252.934   -557.23589    9.5909405   0.22889812 
    7800   -679.55846    39.664638   -639.89383    1203.3686    394.80965    9.5697521    0.2175871 
    7900   -677.91828    43.730497   -634.18779     1326.721   -5769.5084    9.4508099   0.24678095 
    8000   -680.05909    38.329323   -641.72977     1162.857    2829.9297    9.6130793   0.20363915 
    8100   -679.63449    38.211289    -641.4232    1159.2761    -272.2717    9.5666945   0.21078187 
    8200   -677.99337    41.408356   -636.58502    1256.2705   -1731.9408    9.5259345   0.24836515 
    8300   -678.01396    41.206298   -636.80766    1250.1404    7946.7076    9.6151651   0.23741837 
    8400    -682.8974    39.208859   -643.68854    1189.5409    3808.5395    9.6666416   0.21568367 
    8500   -678.16327    37.734631   -640.42863    1144.8149   -4620.1603    9.4908014   0.24624025 
    8600   -677.70407    38.968917   -638.73515    1182.2614   -7966.3272    9.4385585   0.24240878 
    8700   -680.21902    35.440863   -644.77816    1075.2253    6341.1363    9.6608231    0.2039146 
    8800    -683.3079    40.391727   -642.91617    1225.4274     4691.439    9.6802628   0.18033248 
    8900    -678.1742    40.105996   -638.06821    1216.7588   -2604.9488    9.5068594    0.2405912 
    9000    -681.8551    40.125235   -641.72987    1217.3424     -5205.19    9.5340506   0.21950231 
    9100   -684.25945    39.706119   -644.55333    1204.6271    3766.9344    9.6713425   0.18618729 
    9200   -676.29507     38.90438   -637.39068    1180.3035    3481.4716    9.5444725   0.23185823 
    9300   -679.30033    39.317251   -639.98308    1192.8294   -8644.0011    9.4583929   0.27083687 
    9400   -680.63688    38.144459   -642.49242    1157.2485   -1562.9134    9.5736684   0.22615841 
    9500   -686.05372    37.436742   -648.61698    1135.7774    2034.4303     9.697809   0.16710642 
    9600   -682.02498    40.997634   -641.02735    1243.8098    615.29717    9.6153323   0.18360869 
    9700   -681.51299    41.720909   -639.79208    1265.7529   -487.86339    9.5825881     0.203543 
    9800   -678.91066    39.424075   -639.48659    1196.0703    3551.7474    9.6027321   0.21358519 
    9900   -683.19708    40.369725   -642.82736    1224.7599    1112.5478     9.632301   0.21696543 
   10000   -683.93063    37.800889   -646.12974    1146.8251   -6589.4685    9.5662514   0.19596018 
   10100   -678.64862    37.506489   -641.14213    1137.8934   -6024.0918    9.4833769   0.23101616 
   10200     -678.724    41.049575   -637.67443    1245.3856    8062.3486     9.630085   0.21978552 
   10300   -680.39576    40.384986   -640.01078    1225.2229    8363.9281    9.6763377    0.2197198 
   10400   -682.04135    37.391085   -644.65026    1134.3923   -6079.4662    9.5461676   0.21448317 
   10500   -676.75555     38.32362   -638.43193     1162.684    -2293.103    9.4700822   0.26496553 
   10600   -676.67478    39.042974   -637.63181    1184.5082     3836.975    9.5486708   0.23313654 
   10700   -683.11901    39.698788   -643.42023    1204.4047    889.17002    9.6433824   0.17743193 
   10800   -684.25131    41.317728   -642.93359     1253.521   -2924.3556    9.6121085   0.20235976 
   10900   -675.10008    39.692964   -635.40712     1204.228    2418.4002    9.5078787    0.2916229 
   11000    -679.5001    40.440576   -639.05952    1226.9094    2347.5311    9.5892552   0.24500432 
   11100   -678.04984    36.770958   -641.27888    1115.5785    3440.2115    9.5770488   0.23038162 
   11200   -674.70772    39.216101   -635.49162    1189.7606    -13514.89     9.325334   0.26989358 
   11300   -675.74095    42.825056   -632.91589    1299.2512    272.10829    9.4875623   0.24613153 
   11400   -679.97794    39.874152   -640.10379    1209.7249    11948.238    9.7081028   0.20022113 
   11500   -682.30165    41.759551    -640.5421    1266.9253   -5559.6061    9.5442216   0.20772581 
   11600   -677.88833    40.619729    -637.2686    1232.3447   -4911.1265    9.4605208   0.26690876 
   11700   -677.51724    44.222388   -633.29485    1341.6442   -1098.0033    9.5035908   0.23075243 
   11800   -678.02086     39.32865   -638.69221    1193.1752    451.43517    9.5481838   0.22898034 
   11900   -678.87064    39.360876   -639.50976    1194.1529    467.28323    9.5575151   0.24817181 
   12000   -677.75097    42.491242   -635.25972    1289.1237   -5176.3919    9.4670331   0.28094224 
   12100    -680.1728    38.021697   -642.15111    1153.5241   -2747.6798    9.5449071   0.22348247 
   12200   -680.61507    38.506134   -642.10893    1168.2212    1778.8407     9.612079   0.21432952 
   12300   -679.30131    39.475476   -639.82584    1197.6297    1602.0766    9.5676211   0.24526994 
   12400   -674.66781    38.560673   -636.10713    1169.8759    2167.2093    9.5026961   0.22384405 
   12500   -682.42748    39.168146   -643.25933    1188.3057    1676.5481    9.6249437    0.2097257 
   12600   -681.16704    39.929418   -641.23762    1211.4016    9571.5299    9.6908113   0.19363936 
   12700   -674.06244    37.588689   -636.47375    1140.3873    5349.5737    9.5261668   0.27438802 
   12800   -675.57964    38.065748   -637.51389    1154.8606   -5985.7269    9.4210745   0.31128172 
   12900   -682.91964    38.027037   -644.89261    1153.6861   -7712.9514    9.5402743    0.2115666 
   13000   -681.05635    41.214118   -639.84224    1250.3776    3235.6353     9.622169   0.20622198 
   13100   -678.73421    41.157836   -637.57637    1248.6701    4433.2884    9.5865028   0.22548946 
   13200   -685.49159    40.727012   -644.76458    1235.5995   -5026.0276    9.6033671   0.20743593 
   13300   -679.20153    36.223391   -642.97814    1098.9661   -6917.3335    9.4759354   0.24044649 
   13400   -676.79945    38.308256   -638.49119    1162.2179   -4820.1959    9.4599176   0.24429685 
   13500   -679.76274    40.603357   -639.15938     1231.848    9041.3681    9.6724371   0.21755978 
   13600   -683.93395     39.22918   -644.70477    1190.1574    2123.9831    9.6548788   0.17099172 
   13700   -682.38655    38.935151    -643.4514     1181.237     3741.942    9.6524433   0.20479577 
   13800   -679.46668    41.459731   -638.00695    1257.8292   -1213.7803    9.5472373   0.23812198 
   13900   -678.73693    38.661742   -640.07519    1172.9422   -4126.4365    9.5027671   0.24085674 
   14000   -683.84369    38.297299   -645.54639    1161.8855   -5476.8661    9.5748838    0.2054123 
   14100   -686.20943    44.841836    -641.3676    1360.4374    3005.3121    9.6870839   0.18608903 
   14200   -678.55633    39.831613   -638.72471    1208.4344    6449.3044    9.6243716   0.22778495 
   14300   -677.40878    36.050979    -641.3578    1093.7353    70.839592    9.5279277   0.24256436 
   14400   -684.91574    38.674519   -646.24122    1173.3298   -1849.2545    9.6429477   0.19862198 
   14500   -686.26216    42.038074   -644.22409    1275.3753    3625.9345     9.725224   0.18659324 
   14600   -678.82738    39.222122   -639.60525    1189.9433    407.68338    9.5507873   0.22101142 
   14700   -676.83863    36.378306   -640.46032     1103.666   -1845.8541    9.4983348   0.23934358 
   14800    -680.8488    38.144563   -642.70423    1157.2517   -2966.2084    9.5636428    0.2338412 
   14900   -685.05328    36.407565   -648.64571    1104.5536    3804.6054    9.7047034   0.17415724 
   15000   -681.51642    39.933251   -641.58317    1211.5179    2902.5246    9.6334264   0.21819207 
   15100   -678.47875    39.855876   -638.62287    1209.1705    1738.2986    9.5661763   0.22085045 
   15200    -679.9008    39.618032   -640.28277    1201.9546   -7979.1941    9.4760186   0.22703086 
   15300   -684.71011    37.747089   -646.96302    1145.1929   -2556.8616    9.6351635   0.19291447 
   15400   -682.00901    41.404589   -640.60442    1256.1562     16879.38    9.7810675   0.17307532 
   15500   -679.89106    40.863973   -639.02708    1239.7547   -419.84469    9.5563235     0.221944 
   15600    -681.5505    40.529917   -641.02058    1229.6199    976.21768    9.6015091     0.207944 
   15700    -682.0571    37.081121   -644.97598    1124.9884    5061.3097    9.6771298   0.18785997 
   15800   -674.70155    36.629575   -638.07197    1111.2891   -1546.0022    9.4616714   0.26372936 
   15900   -676.90307    39.283517   -637.61956    1191.8059   -4769.3275    9.4696483   0.22413268 
   16000   -684.95632    42.391297   -642.56502    1286.0915   -2943.4385    9.6159474   0.17707873 
   16100    -682.5984    41.294356   -641.30405    1252.8119    4681.4886    9.6599772   0.20236081 
   16200   -675.12891    39.917105    -635.2118    1211.0281    5744.3862    9.5695998   0.24577721 
   16300   -680.72236    40.570077   -640.15228    1230.8383   -10110.128    9.4672511   0.23857243 
   16400    -681.3342    39.549528   -641.78468    1199.8763   -2153.2218    9.5693694   0.21291584 
   16500   -677.02731    42.777137   -634.25017    1297.7974   -4363.2453    9.4528097   0.22618414 
   16600   -678.78756    41.138613   -637.64895    1248.0869   -1977.4698    9.5444937   0.24425921 
   16700   -681.68029    40.453733   -641.22656    1227.3086   -2006.9188     9.555152   0.22193784 
   16800   -677.78345    36.396757   -641.38669    1104.2257    615.39143    9.5381368   0.23426788 
   16900   -681.33386    38.421191   -642.91267    1165.6442   -3963.9231    9.5550689   0.19877568 
   17000   -687.57693    36.685577   -650.89135    1112.9881    10257.279     9.804595   0.14558588 
   17100   -684.22107    38.441464    -645.7796    1166.2592    3564.0199     9.689883   0.16566009 
   17200   -681.31072    39.053564   -642.25716    1184.8295    2422.6343     9.627722   0.21014477 
   17300   -681.56251    41.714569   -639.84794    1265.5606   -8352.3642    9.5049951   0.23396527 
   17400   -676.00413     40.49886   -635.50527    1228.6777   -6394.6877    9.4138028   0.24341261 
   17500   -680.81923     41.87253    -638.9467    1270.3529   -170.96998    9.5636445   0.21424395 
   17600    -685.7304    43.441374   -642.28902    1317.9494    4898.1006    9.7171095   0.18000723 
   17700   -682.13828    42.377049   -639.76123    1285.6593     263.5643    9.5948892    0.2142829 
   17800   -678.05442    41.294565   -636.75986    1252.8183    610.15739    9.5415468   0.22912018 
   17900   -681.43995    42.177914   -639.26204    1279.6178   -1123.0321    9.5876684   0.20259422 
   18000   -682.73736    38.895922   -643.84144    1180.0469   -1285.5272    9.6083476   0.18818774 
   18100   -681.55999    40.658144   -640.90184    1233.5102     3935.658    9.6351434   0.19991403 
   18200   -679.70028    40.904012   -638.79627    1240.9695   -3347.0222    9.5191456   0.22677564 
   18300   -680.10084    37.929514   -642.17133    1150.7274   -767.75668    9.5682646    0.2124927 
   18400   -683.50275    38.693625   -644.80912    1173.9094   -3802.0593    9.5862106   0.19216778 
   18500   -678.87195    39.805421   -639.06652    1207.6397    3360.8097    9.5872278   0.22247191 
   18600    -678.0899    40.526214   -637.56369    1229.5076    7387.8385     9.626974    0.1939618 
   18700   -681.55031    37.241919    -644.3084    1129.8668     271.5218    9.6037735   0.18880693 
   18800   -678.55854    38.052409   -640.50614    1154.4559   -8460.3443     9.461517   0.22571687 
   18900   -677.11281    40.678661   -636.43415    1234.1326    276.17414    9.5107978    0.2339271 
   19000   -685.55917    43.140312   -642.41886    1308.8156    7307.5341    9.7362529    0.1858974 
   19100   -682.06051    38.697139   -643.36337    1174.0161   -4231.5475    9.5531009   0.25243321 
   19200   -677.71657    39.951062   -637.76551    1212.0583   -7444.5722    9.4273556   0.25659611 
   19300   -676.98362    39.533978   -637.44965    1199.4046    11255.195     9.640398   0.23347086 
   19400   -682.30234    37.430964   -644.87137    1135.6021    2145.7725    9.6345849   0.18409245 
   19500   -679.61549    38.603054   -641.01244    1171.1617   -2415.3133    9.5330355   0.21062632 
   19600   -679.67403    41.990554   -637.68348    1273.9336    1323.4952    9.5617438   0.20914639 
   19700   -680.87531    38.659751   -642.21555    1172.8818    3218.0088    9.6097043   0.21384593 
   19800   -681.11353    40.774242   -640.33929    1237.0324   -142.24703    9.5930532   0.23496393 
   19900   -674.69263    39.074394   -635.61823    1185.4614     3565.793    9.5047608   0.24447608 
   20000   -680.80742    41.371398   -639.43602    1255.1493   -5833.2379    9.5237217   0.21553399 
   20100   -682.45296    39.246811   -643.20615    1190.6923    12078.643    9.7355206   0.19850418 
   20200   -676.40021    38.692847   -637.70736    1173.8859    755.52004    9.5164227    0.2491749 
   20300   -675.81575    39.568553    -636.2472    1200.4535   -7062.1679     9.404294    0.2680351 
   20400   -680.87682    39.386952   -641.48987     1194.944    1389.5781    9.5974919   0.21115598 
   20500   -683.71154    40.317722   -643.39381    1223.1822     1557.731    9.6467981   0.18273111 
   20600   -677.34816    41.279759    -636.0684    1252.3691    2033.8131    9.5336939   0.22468763 
   20700    -680.7359    39.599999    -641.1359    1201.4076   -7130.8455    9.5079667   0.21334506 
   20800   -683.51173    40.647288   -642.86444    1233.1808   -4747.8654    9.5777238   0.19298536 
   20900    -677.5957    41.076335   -636.51937    1246.1975    5788.1103    9.5938397   0.22359076 
   21000   -678.89416    40.247378   -638.64679    1221.0481    268.92026    9.5457166   0.21015154 
   21100   -680.66746    37.915578   -642.75188    1150.3046   -78.098272    9.5814445   0.20356271 
   21200   -677.75807    39.509732   -638.24834     1198.669    4794.5228    9.5740839    0.2310936 
   21300    -675.9028    39.946977   -635.95583    1211.9344    -2684.829     9.456501   0.26442353 
   21400   -679.01278    37.232424   -641.78035    1129.5787    791.04591    9.5691606   0.21220602 
   21500   -685.23934    46.325633    -638.9137    1405.4537    12065.537    9.7669459   0.17242828 
   21600   -679.86906    42.152206   -637.71685    1278.8379    5471.9399    9.6319927   0.20365508 
   21700   -685.61122    40.527038   -645.08419    1229.5326   -2840.7251    9.6338238   0.21518781 
   21800   -680.89988    37.974883     -642.925    1152.1038   -7240.5469    9.5127964   0.23716547 
   21900   -678.57292    39.624154   -638.94877    1202.1404   -6161.7516    9.4830196   0.24531128 
   22000   -679.47798    40.127056   -639.35092    1217.3977    12356.303    9.7002795   0.20398798 
   22100   -684.16047     39.10751   -645.05296    1186.4661    1797.2921    9.6673335   0.18278339 
   22200   -679.04474    40.436081   -638.60866    1226.7731   -6354.8051    9.4807103   0.22543824 
   22300   -680.06575     41.31744   -638.74831    1253.5123   -2052.7471    9.5387431    0.2260383 
   22400   -679.84048    38.513224   -641.32726    1168.4363    1140.5695    9.5730954   0.24327305 
   22500   -681.56054    37.461313   -644.09923    1136.5229   -14425.198    9.4525671    0.2561524 
   22600   -685.44355     34.10879   -651.33476    1034.8121     4463.068    9.7330973   0.18241671 
   22700   -683.77543    39.152951   -644.62248    1187.8447     4159.069    9.6938275   0.18947415 
   22800   -680.74065    38.566446   -642.17421     1170.051   -5500.3514    9.5296104   0.22892793 
   22900   -680.01575    39.481431   -640.53432    1197.8104   -318.03838    9.5616967   0.24058017 
   23000   -678.30936    41.577867   -636.73149    1261.4132    2406.0541    9.5529564   0.22066453 
   23100   -672.53926    42.907907   -629.63135    1301.7648   -92.987799    9.4320923   0.27995982 
   23200   -678.64153    41.698977   -636.94255    1265.0875    555.98017    9.5570648   0.23281754 
   23300   -679.86427    39.558584   -640.30568    1200.1511    9780.8004    9.6674616   0.21376962 
   23400    -680.0348    41.388182   -638.64662    1255.6585    2029.8752    9.5790379   0.20569001 
   23500   -673.88987    40.524277   -633.36559    1229.4488   -9413.2716    9.3595456   0.28796578 
   23600   -676.74098    38.210425   -638.53055    1159.2499   -10523.802    9.4038015   0.28055134 
   23700   -680.20322      39.3845   -640.81872    1194.8696   -568.62798    9.5675042   0.21007872 
   23800   -679.08097    41.038901   -638.04207    1245.0618     7801.431    9.6368243   0.19550603 
   23900   -679.88544     39.43631   -640.44913    1196.4414    2334.5041    9.5955479   0.23904977 
   24000    -682.8195    37.406587   -645.41291    1134.8626   -3783.3916    9.5924912   0.21202125 
   24100   -677.18622     38.70063   -638.48559     1174.122   -3408.7045     9.461977    0.2550211 
   24200   -676.64956     37.27513   -639.37443    1130.8743   -3949.6409    9.4777139   0.24621905 
   24300   -682.83314    39.700399   -643.13274    1204.4535    1056.9088    9.6421037    0.1979027 
   24400   -684.56912    40.894774   -643.67435    1240.6892    2865.4243    9.6741861   0.19685736 
   24500   -677.03219    40.723983   -636.30821    1235.5076    11072.986     9.635319   0.23077402 
   24600   -679.51005    41.205827   -638.30422    1250.1261   -7312.9003    9.4935525   0.25141073 
   24700   -679.88506    36.441806   -643.44326    1105.5925    10360.519    9.6794643   0.22444302 
   24800   -682.05274    39.976729   -642.07602     1212.837    6955.0191    9.6723261   0.19722919 
   24900   -677.13145     42.02768   -635.10377    1275.0599   -6416.6113    9.4335902    0.2861637 
   25000   -677.01114    37.676538    -639.3346    1143.0525   -83.799973    9.5129852   0.21672276 
   25100    -682.9016     40.00144   -642.90016    1213.5867    2132.1983    9.6376426   0.18199885 
   25200   -679.04787    42.394788   -636.65309    1286.1975     6849.306    9.6265123    0.1984787 
   25300   -677.24359    39.591109   -637.65248    1201.1378   -2557.5607    9.4868102     0.235931 
   25400   -678.05343    35.332614   -642.72081    1071.9412   -12958.013    9.4037938   0.27464567 
   25500   -680.16653    42.329194   -637.83733    1284.2074   -2366.5623    9.5372635   0.23350088 
   25600   -680.35191    45.594795   -634.75711    1383.2811    5311.7531    9.6203198   0.21269469 
   25700   -681.21217    39.248718   -641.96345    1190.7502    3825.2399    9.6354919   0.20049874 
   25800   -680.17945    38.940303   -641.23914    1181.3933   -4939.8946    9.5045214   0.23965037 
   25900   -677.61799    42.569483    -635.0485    1291.4975   -1119.9065    9.5117811   0.24859501 
   26000   -680.10355    39.328794   -640.77475    1193.1796   -1301.7352    9.5665594   0.23054598 
   26100   -682.31234    39.464827   -642.84751    1197.3066   -2296.3199    9.5868405   0.21067075 
   26200    -677.0829    41.561227   -635.52168    1260.9084    141.03086    9.5212589    0.2454524 
   26300   -678.82943     41.43066   -637.39877    1256.9472    1955.2725    9.5598812   0.22424124 
   26400   -683.56108    40.372921   -643.18816    1224.8569    7814.4178    9.7061464   0.17502459 
   26500   -677.28613    37.870629    -639.4155    1148.9409   -3711.0903     9.477957    0.2113924 
   26600   -676.02063    38.234492   -637.78614      1159.98   -6123.0355    9.4087004   0.27380231 
   26700   -684.53658    39.844676   -644.69191    1208.8307    -5697.094    9.5895517   0.23596051 
   26800   -681.68163    40.390625     -641.291     1225.394   -744.30093    9.5855972   0.22970429 
   26900   -676.00456    39.319975   -636.68458     1192.912   -1930.3384    9.4665991   0.28001405 
   27000   -679.31276    38.027188   -641.28557    1153.6907   -3130.5924    9.5236194    0.2436099 
   27100   -682.15174    38.415035   -643.73671    1165.4574    3801.8902    9.6514828   0.21203152 
   27200   -678.72655    42.263823   -636.46272    1282.2242    4924.9257    9.6030188   0.20341193 
   27300   -679.19115    38.525694   -640.66546    1168.8147   -7098.0545    9.4927655   0.25860514 
   27400    -680.6454    37.158855   -643.48655    1127.3467   -6839.3085    9.4994686    0.2353907 
   27500   -677.52104    41.134176   -636.38687    1247.9523   -4994.7371    9.4733039    0.2306418 
   27600   -679.54794    41.590951   -637.95699    1261.8102    10206.005     9.656676   0.20221127 
   27700   -681.47864    41.266651   -640.21199    1251.9714   -1445.6052    9.5727981   0.21339593 
   27800   -677.36141    38.625648   -638.73576    1171.8471   -5660.0496    9.4565388   0.21962401 
   27900   -673.63128    41.475143   -632.15613    1258.2968    1532.0509     9.481372   0.25223988 
   28000   -681.50201    42.044791   -639.45722     1275.579    5022.2984    9.6459755   0.21185004 
   28100   -683.72321    42.850795   -640.87241    1300.0321   -4793.0728    9.5679074   0.20747793 
   28200   -679.72973    39.000847   -640.72889    1183.2301    816.76148    9.5699573   0.22723117 
   28300   -677.07872    42.583723     -634.495    1291.9295   -5744.6852    9.4408077   0.23967469 
   28400   -676.24108    40.894427   -635.34666    1240.6787   -4167.1158    9.4284171   0.25005808 
   28500   -679.63027    37.990569    -641.6397    1152.5797    2004.8679    9.5823502   0.19796571 
   28600   -677.96407    37.510395   -640.45368    1138.0119   -6661.0565    9.4640788    0.2414331 
   28700   -674.07217    38.101542   -635.97062    1155.9465    6184.9266    9.5349302   0.26528072 
   28800   -682.50925     39.71773   -642.79152    1204.9793    10012.058    9.7189264   0.18898361 
   28900   -684.65644    41.528572   -643.12787    1259.9177   -1127.3404    9.6309126     0.198607 
   29000      -678.34    40.790594   -637.54941    1237.5285    -5564.089    9.4673034   0.22981345 
   29100    -680.4489    39.107074   -641.34183    1186.4529   -1939.6103    9.5448468   0.20682756 
   29200   -682.11208    39.355575    -642.7565    1193.9921   -807.63537    9.5925058   0.19879672 
   29300   -677.48334    41.528993   -635.95435    1259.9305    2259.3581    9.5373357   0.24562995 
   29400   -679.44513    40.336001   -639.10912    1223.7368   -4282.7604    9.5068198   0.25552026 
   29500   -679.49017    35.025177   -644.46499     1062.614     1432.035    9.5775948   0.24254214 
   29600    -680.1304    41.745724   -638.38468    1266.5058    1681.8881     9.584445   0.22483371 
   29700   -679.46321    43.276756   -636.18646    1312.9551    11450.632    9.6705554   0.19408636 
   29800   -680.56866      36.9391   -643.62956    1120.6797    1243.4284     9.594721   0.21806597 
   29900   -677.97867     38.34069   -639.63798    1163.2019   -9794.1484    9.4150011   0.24926555 
   30000   -676.92907    39.164043   -637.76502    1188.1813    676.73009    9.5125892    0.2616113 
   30100   -685.91559    41.084883    -644.8307    1246.4568   -13.689027     9.674735   0.19705642 
   30200   -680.22667    39.129494   -641.09718    1187.1331     5049.881    9.6388346   0.23801137 
   30300   -679.55302    41.840865   -637.71216    1269.3922   -10680.762    9.4421993   0.28128356 
   30400    -678.7282    35.536315   -643.19189    1078.1212   -704.29997    9.5349258   0.25758892 
   30500   -681.20213    39.113687   -642.08845    1186.6535   -3559.9464    9.5320145   0.23423284 
   30600   -678.65723    42.199326   -636.45791    1280.2674    3293.7971    9.5795561   0.23058862 
   30700   -680.84125    38.795074   -642.04618    1176.9873    2861.0172    9.6153077   0.21874663 
   30800   -685.38616    43.142669   -642.24349    1308.8871   -3822.5164    9.6045645   0.17007455 
   30900   -676.82584    41.537946   -635.28789    1260.2021   -1568.1562    9.4960678   0.26590773 
   31000   -676.91169    37.274026   -639.63767    1130.8408   -2741.3219    9.4875624    0.2306226 
   31100   -680.02161    36.572586   -643.44903    1109.5602    -1903.892    9.5555845   0.22689756 
   31200   -677.47428    39.595713   -637.87857    1201.2775    2209.3881     9.536827   0.24857206 
   31300   -676.89821    39.929067   -636.96915     1211.391     3989.952    9.5503613   0.24334696 
   31400   -680.33546    37.316469   -643.01899    1132.1285    1652.6414    9.6048948   0.20326598 
   31500   -681.05072    39.819357   -641.23136    1208.0626   -654.48764    9.5604074   0.20057488 
   31600   -676.48221    42.528965   -633.95324    1290.2682    6658.8711    9.5590127   0.20977301 
   31700   -681.13264    41.517031   -639.61561    1259.5676    2730.7863    9.6231753   0.19513827 
   31800   -682.00376     40.05624   -641.94752    1215.2492    1348.0074     9.624243   0.20204737 
   31900   -675.23348    38.677316   -636.55617    1173.4147   -10404.686     9.385315   0.27872137 
   32000   -672.14545    38.274553    -633.8709    1161.1954   -142.42183    9.4242021   0.25010355 
   32100   -680.89579    40.536231   -640.35956    1229.8115    3398.1485    9.6089127   0.22282127 
   32200   -680.15567    40.235976    -639.9197    1220.7022    1790.5605    9.5989744   0.20400462 
   32300   -680.19304    36.835179   -643.35786    1117.5269    6844.0097    9.6614294   0.21585471 
   32400   -680.65381    40.120086   -640.53372    1217.1863    977.47106    9.5838658   0.22236038 
   32500   -678.80073    42.039054   -636.76168     1275.405    1031.4743    9.5595092    0.2273964 
   32600   -676.53762    38.736143   -637.80147    1175.1994    1464.1026    9.5296497   0.22799485 
   32700   -680.52965    39.602623   -640.92703    1201.4872   -869.23698    9.5479524   0.21155186 
   32800   -684.24039    39.611675   -644.62872    1201.7618    1536.9868    9.6556665   0.18938768 
   32900    -683.9962    36.407528   -647.58867    1104.5525    3009.1742    9.6843479   0.16344316 
   33000   -681.28268      40.9667   -640.31598    1242.8713   -10237.294     9.460373   0.21615581 
   33100   -678.90952    38.619841   -640.28968    1171.6709   -2670.8344    9.5259713   0.23114306 
   33200   -682.26963     41.00471   -641.26492    1244.0245    5380.4761    9.6584298   0.23055294 
   33300   -674.09276    41.586392   -632.50637    1261.6719   -2369.7452    9.4368727   0.25019543 
   33400   -676.24278     39.29511   -636.94767    1192.1576    5756.7919     9.561992   0.24980863 
   33500   -678.96128     39.79497   -639.16631    1207.3227   -908.13365    9.5413119   0.24318502 
   33600   -680.65871    35.845114   -644.81359    1087.4897   -3364.4346    9.5470419   0.20262479 
   33700   -680.12076     37.04743   -643.07333    1123.9662   -3140.9857    9.5642352   0.23113988 
   33800   -679.30719    40.856211   -638.45098    1239.5192     12271.66    9.6809798   0.22856712 
   33900   -679.49178    39.283825   -640.20796    1191.8153   -1919.9157    9.5322139   0.24768518 
   34000    -678.0495    34.842323   -643.20717    1057.0664   -2526.6296    9.5130503   0.24072614 
   34100   -676.51331    40.302868   -636.21044    1222.7316   -3660.9121    9.4721736   0.24214021 
   34200   -677.27585    40.429404   -636.84644    1226.5705    7219.2133    9.5987608   0.21961433 
   34300    -682.5072    40.314935   -642.19226    1223.0977    4178.8591    9.6473482   0.18834347 
   34400   -679.70797    37.558248   -642.14972    1139.4637    755.86537    9.5724312   0.22159561 
   34500   -675.59091    40.316011   -635.27489    1223.1303   -5736.5815    9.4132548    0.2744471 
   34600     -679.874     39.46086   -640.41314    1197.1863     3638.005    9.6160401   0.19931589 
   34700   -682.60751    40.387223   -642.22028    1225.2908    313.76812    9.6294076   0.22058748 
   34800   -680.42392    42.090029   -638.33389    1276.9515   -1804.3828    9.5592656   0.24372817 
   34900   -675.61472    42.585501   -633.02922    1291.9834    6251.9155    9.5541171   0.26085442 
   35000   -679.79393    39.180049   -640.61388    1188.6669   -2856.9178    9.5350112   0.21529379 
   35100   -681.92756    40.541653   -641.38591     1229.976   -3467.2101    9.5624122   0.18941081 
   35200   -681.14084    41.576592   -639.56425    1261.3746    4366.2246    9.6369019   0.19739569 
   35300    -676.5778    41.557719   -635.02008     1260.802    4671.6394    9.5688235   0.23918872 
   35400   -679.35898    37.909624   -641.44936     1150.124   -6633.7067    9.4812959   0.23844342 
   35500   -682.36651    40.185951   -642.18056    1219.1845     -8719.57    9.5094238   0.24578743 
   35600   -681.08482    40.757912   -640.32691     1236.537    6608.7105    9.6653881   0.21292008 
   35700   -681.14721    44.890091   -636.25712    1361.9014   -4835.8727    9.5127511   0.21349194 
   35800   -673.49727    40.508302   -632.98897    1228.9642    7554.7319    9.5442527   0.24905951 
   35900    -682.0063    41.390868   -640.61544      1255.74    1817.5466    9.6215971   0.20915906 
   36000   -679.89172    38.931991   -640.95973    1181.1411   -8222.9226    9.4840803     0.228083 
   36100     -675.047    40.473973   -634.57303    1227.9227   -7335.1863    9.4143245   0.29520173 
   36200   -676.16709    41.501616   -634.66547    1259.0999    5152.8676    9.5540186   0.24954636 
   36300   -681.16815    40.450351    -640.7178     1227.206   -125.88494    9.5969178   0.21158502 
   36400   -679.56255    39.030723   -640.53183    1184.1365    2093.9508    9.5859201   0.21555661 
   36500   -675.37738    39.603166   -635.77421    1201.5036    -4531.847    9.4397727   0.25180942 
   36600   -677.32893    37.949912   -639.37902    1151.3463    1936.4385    9.5448668   0.24525457 
   36700   -683.31372    39.811054   -643.50266    1207.8106   -5245.1313    9.5766666   0.22936685 
   36800   -677.50024    38.924528   -638.57572    1180.9147    3696.9347    9.5510564   0.24041426 
   36900   -677.99855    40.561997   -637.43656    1230.5932    299.85003    9.5320906   0.22300384 
   37000   -681.16757    36.484047   -644.68353     1106.874    1391.2305    9.6077446   0.20543309 
   37100   -678.42314    39.042666   -639.38048    1184.4989   -3848.7904    9.5051175   0.24633676 
   37200   -676.82522    38.235334   -638.58988    1160.0056    5028.0187    9.5800531   0.24103174 
   37300   -682.35814    39.407003   -642.95114    1195.5523    5352.7682    9.6672853   0.18508883 
   37400   -682.24702    38.937421    -643.3096    1181.3059   -729.87664    9.6027498   0.21739721 
   37500   -675.23217    37.285713   -637.94645    1131.1954   -89.965981    9.5019869   0.28621265 
   37600   -678.38562    39.259672   -639.12595    1191.0825   -830.22645    9.5379429   0.21691744 
   37700   -685.02029    40.856508   -644.16378    1239.5282    5162.8442    9.7121092     0.160569 
   37800    -681.1643    42.238804    -638.9255    1281.4651    5176.0447    9.6272787   0.20184899 
   37900   -675.67317    39.333698   -636.33948    1193.3284   -258.03178    9.4979566   0.23838367 
   38000   -683.06503     40.28116   -642.78387     1222.073   -690.35395    9.5949837   0.20041042 
   38100   -680.49522    36.372558   -644.12266    1103.4916   -3008.6377    9.5527783   0.24256285 
   38200   -680.00797     42.12554   -637.88243    1278.0289   -1427.0217    9.5377662   0.24677028 
   38300   -681.26007    40.695149   -640.56492    1234.6328    7018.6481    9.6676172   0.22235672 
   38400   -685.61195    41.738647    -643.8733    1266.2911    6272.7892    9.7323282   0.18040889 
   38500   -678.85202    41.961913   -636.89011    1273.0647   -3901.3822      9.49667   0.24107137 
   38600   -676.35888    39.107129   -637.25175    1186.4546   -1534.3042    9.4932059     0.242957 
   38700   -681.37493    38.625862   -642.74907    1171.8536   -7215.5919    9.4959837   0.23528009 
   38800    -680.0413    41.244349   -638.79695    1251.2948    5269.1472    9.6228769   0.23133086 
   38900   -679.75338    46.773318   -632.98006    1419.0358     391.0564    9.5575845   0.21962966 
   39000   -680.21306    40.333363    -639.8797    1223.6568   -4336.3414     9.522673   0.25407967 
   39100   -680.06467    38.847624   -641.21705    1178.5816     2371.582    9.6072914   0.20843051 
   39200    -678.8112    41.409215   -637.40199    1256.2966    5966.2789    9.6126979   0.20872856 
   39300   -678.70879    44.432713   -634.27608    1348.0252   -8338.6516    9.4483198   0.24640048 
   39400   -678.60047    38.826447   -639.77402    1177.9391   -11749.131    9.4119573   0.26152347 
   39500   -680.66887    41.378903   -639.28997     1255.377   -6920.3937    9.4877167   0.22563318 
   39600   -679.79876    39.976911   -639.82185    1212.8425    1161.3385    9.5795028   0.24149326 
   39700   -685.02455      38.1953   -646.82925     1158.791    5841.0012    9.7207569   0.18342808 
   39800   -679.37345    37.659455     -641.714    1142.5342   -3570.7954    9.5205226   0.22147071 
   39900   -678.39112    40.249983   -638.14114    1221.1272   -8350.7134    9.4349702   0.23991204 
   40000   -679.18888    40.955456   -638.23343    1242.5302    2635.2325     9.564591   0.20814328 
   40100   -683.52604    38.953261   -644.57278    1181.7865    1290.4337    9.6543839   0.17563252 
   40200    -680.6368    40.582331   -640.05447    1231.2101    3692.4756    9.6114813   0.21351454 
   40300   -680.58566    43.443846   -637.14181    1318.0244    1835.8263    9.5924892   0.21203503 
   40400    -682.9739    39.530481   -643.44342    1199.2985   -2588.5362    9.5999435   0.20168906 
   40500   -683.24853    40.775289   -642.47324    1237.0642   -4552.5113    9.5565445    0.2066287 
   40600   -677.99736    40.468927   -637.52844    1227.7696    4473.7515    9.5792168   0.21568476 
   40700   -680.76828    40.326476   -640.44181    1223.4478    14795.881    9.7542761   0.17494004 
   40800   -682.08819    37.597137   -644.49106    1140.6436    979.02065    9.6156778   0.17650121 
   40900   -678.41584    39.509736   -638.90611    1198.6691   -9179.9774    9.4480142    0.2501177 
   41000   -677.47133    41.076606   -636.39472    1246.2057    2469.8971    9.5400916   0.25376781 
   41100   -684.21299      41.0277   -643.18529     1244.722    1934.3277    9.6565395   0.18783997 
   41200   -681.95735    38.109504   -643.84784     1156.188   -1517.4719     9.604247   0.20016892 
   41300   -678.22937    41.379178   -636.85019    1255.3853    1154.1441    9.5711415   0.21229776 
   41400   -679.54441    40.065983   -639.47843    1215.5448    8986.5118    9.6755691   0.20535441 
   41500   -684.81679    40.751493    -644.0653    1236.3422   -4182.1236    9.6111576   0.19150659 
   41600   -679.60981    41.131583   -638.47823    1247.8736    5583.1388    9.6062199   0.20583004 
   41700   -679.49647     41.69954   -637.79693    1265.1046   -2049.5817    9.5221188   0.26413058 
   41800   -678.67078    38.366382    -640.3044    1163.9814    2062.0478    9.5698628   0.25913107 
   41900   -683.65497    37.417999   -646.23697    1135.2088   -11168.284    9.5119424   0.22468735 
   42000   -679.66577    38.583594   -641.08217    1170.5713   -7165.6923    9.4735256   0.24988001 
   42100   -682.08423    43.732717   -638.35151    1326.7883    2525.9467    9.6251816   0.19008241 
   42200   -680.84678    40.934795   -639.91199    1241.9034    7755.7922    9.6646943   0.22886379 
   42300   -677.42512    41.096742   -636.32838    1246.8166   -1232.3737    9.4910851   0.22168709 
   42400   -681.86705    38.737121   -643.12992    1175.2291    168.46471    9.5946423   0.20328256 
   42500   -681.78548    38.432216   -643.35326    1165.9787   -408.35673    9.5954266   0.18921825 
   42600   -681.02835    40.819126   -640.20922    1238.3941    3328.1816    9.6143951   0.20030428 
   42700   -675.34577    38.512583   -636.83318    1168.4169    2671.1097    9.5123739   0.25970421 
   42800   -673.55998    40.003139   -633.55684    1213.6382   -8551.1501    9.3551942   0.31646555 
   42900   -682.74077    40.067851   -642.67292    1215.6015    -3048.069    9.5698931   0.19513578 
   43000   -681.47389    39.886666   -641.58722    1210.1046    2338.9903     9.612632   0.19852505 
   43100   -679.27369    39.922235   -639.35145    1211.1837   -1679.9825    9.5263271   0.20137881 
   43200   -683.01881    41.176828   -641.84199    1249.2463    1787.4632    9.6311201   0.19998309 
   43300   -682.54842    37.198348   -645.35007    1128.5449    3416.0816    9.6581752   0.18997737 
   43400   -678.22417    37.942026   -640.28215     1151.107   -9783.5402    9.4253319    0.3031726 
   43500   -677.05674    40.425901   -636.63084    1226.4642    -3879.643    9.4747659   0.26556916 
   43600   -681.07372    40.627653   -640.44606    1232.5851    2343.9953    9.5962139   0.21389438 
   43700    -683.6689    38.296881   -645.37202    1161.8728   -1861.0173    9.6295894   0.18227197 
   43800   -680.24244    41.535059   -638.70738    1260.1145    22.076536    9.5757514   0.22302524 
   43900   -678.35908    40.455436   -637.90365    1227.3603   -4607.9239    9.4969508   0.21035187 
   44000   -681.57412    39.540089   -642.03403      1199.59   -7949.8966    9.5008241   0.21334187 
   44100   -685.21516    41.255501   -643.95966    1251.6331    4424.7589    9.6958479   0.17969219 
   44200   -679.07401    43.362821   -635.71119    1315.5662    634.99811    9.5544288   0.21006269 
   44300   -680.57589     42.37804   -638.19785    1285.6894   -1289.0855    9.5549747   0.22006798 
   44400    -676.7492    37.205156   -639.54405    1128.7514    31.556727    9.5190827   0.24432532 
   44500   -680.46973     41.52712   -638.94261    1259.8737    2765.5051    9.6024848   0.20992837 
   44600   -675.18206    45.563288   -629.61877    1382.3252    9574.8833    9.5791793   0.24462385 
   44700   -675.73312    42.010885   -633.72223    1274.5504    5539.4662    9.5539777   0.23231456 
   44800   -677.68015    38.586351    -639.0938    1170.6549   -3818.6781    9.4991043    0.2275332 
   44900   -680.47667    40.107412   -640.36926    1216.8017   -5984.2694    9.4933378   0.22911313 
   45000   -680.21674    40.857328   -639.35942    1239.5531    8540.1449    9.6727879   0.21652969 
   45100   -686.34043    39.895243   -646.44519    1210.3648    6516.0015     9.749587   0.15733338 
   45200   -683.79702    37.924857   -645.87216    1150.5861   -2303.0144    9.6159583   0.18892606 
   45300   -682.54799    41.427434   -641.12056    1256.8493    4063.3834    9.6373424    0.1943158 
   45400   -678.57067    38.860447   -639.71022    1178.9706    3765.9559    9.5831968       0.2151 
   45500   -675.95061    40.841983   -635.10863    1239.0876   -1083.3332    9.4886378   0.24709447 
   45600    -673.3354    39.222709   -634.11269    1189.9611    2286.7008    9.4641931   0.28272106 
   45700   -678.61242    37.954801   -640.65762    1151.4946   -12260.365    9.4103965    0.2575574 
   45800   -678.42371    39.071448   -639.35226    1185.3721    5339.3403    9.5927002   0.20885925 
   45900   -678.47294    39.974167   -638.49878    1212.7593      4489.33    9.5855448   0.21990324 
   46000   -674.91231    43.532564   -631.37975     1320.716     6090.455     9.533049   0.23208214 
   46100   -672.28041    39.744657   -632.53575    1205.7963    1503.9594    9.4490465   0.28035051 
   46200    -678.7706    40.322145   -638.44845    1223.3164   -4758.9349    9.4990361   0.22703787 
   46300   -681.41359    41.355178   -640.05841    1254.6572   -2791.1789    9.5656972   0.22710156 
   46400   -683.44511    43.076856   -640.36825    1306.8904    732.57646    9.6304816   0.19094261 
   46500   -685.53049    38.398839   -647.13166    1164.9661    6324.7426    9.7443398   0.17146142 
   46600   -682.90114    37.155561   -645.74558    1127.2468    -2726.898    9.6076719   0.20362889 
   46700   -679.62952    39.546208   -640.08331    1199.7756   -3665.3006    9.5321878   0.24633262 
   46800   -681.45441    42.259898   -639.19451    1282.1051    1324.5007    9.5983278   0.22098183 
   46900   -684.64568    41.549877   -643.09581    1260.5641   -1880.5693    9.6379759   0.19311095 
   47000   -684.08138    37.997225   -646.08416    1152.7817   -3354.5918    9.6145613   0.18021236 
   47100   -678.79549    38.640947   -640.15454    1172.3113     5362.293    9.6027732   0.22922027 
   47200   -679.52954    41.132351   -638.39719    1247.8969    4998.6762    9.6149685   0.21981813 
   47300   -683.73005     40.27695    -643.4531    1221.9453    4546.3628     9.689576   0.17532786 
   47400   -682.03121    37.089636   -644.94158    1125.2467    7248.7561    9.7016159   0.17625228 
   47500    -680.0125    41.542802   -638.46969    1260.3494   -1787.6098    9.5305298   0.24372605 
   47600   -678.68106    38.339765   -640.34129    1163.1738   -7165.9786    9.4599392   0.25152821 
   47700   -682.20844    38.239065   -643.96937    1160.1187   -3706.0617    9.5628163   0.23621959 
   47800   -686.87069    36.906259   -649.96444    1119.6833    6052.1164    9.7475633   0.19443863 
   47900   -683.14132    40.210217    -642.9311    1219.9207   -11641.675     9.498357   0.21467647 
   48000   -678.45378     37.57343   -640.88035    1139.9243    6401.8068    9.6173486   0.20895861 
   48100   -678.78475    40.663542   -638.12121    1233.6739    7428.4461    9.6199082   0.22271836 
   48200   -674.21103    40.688387   -633.52265    1234.4277    2072.2006    9.4808677    0.2422765 
   48300   -682.37555    40.588063   -641.78749     1231.384   -5341.7623    9.5303912   0.22363782 
   48400   -680.71679    39.992468   -640.72433    1213.3145   -2020.8988     9.565153   0.23487349 
   48500   -679.48949    40.989691   -638.49979    1243.5688    2684.0284     9.591439   0.25451181 
   48600   -676.57826    39.667905   -636.91035    1203.4677    10975.624    9.6235991   0.23924021 
   48700   -680.32375    36.872561   -643.45119     1118.661   -2903.0629    9.5554325   0.20484301 
   48800    -679.4565    39.871957   -639.58454    1209.6584   -3201.0507    9.5229411   0.22290567 
   48900   -678.62812    42.484166   -636.14395    1288.9091   -2762.8068    9.5226408   0.23636208 
   49000   -681.89401     39.99987   -641.89415    1213.5391    6940.8025    9.6643578   0.19665978 
   49100   -681.84496     38.00102   -643.84394    1152.8968   -96.607781    9.6018299     0.207499 
   49200   -676.14576    40.463765     -635.682     1227.613   -6555.9006    9.4326022   0.29589887 
   49300   -677.76381    40.487535   -637.27627    1228.3341    6313.8251    9.5934636   0.23977229 
   49400   -681.17281     38.28543   -642.88738    1161.5254    3069.9433    9.6251809   0.20895521 
   49500    -678.2663    39.532521   -638.73378    1199.3604     1281.241    9.5471139   0.23482183 
   49600   -678.58161      43.4865   -635.09511    1319.3185   -2375.1319    9.5154453   0.23721115 
   49700   -683.63643    41.885788   -641.75064    1270.7551    2865.2174    9.6600126   0.18398697 
   49800   -684.56336    42.760536   -641.80283    1297.2937   -815.11395    9.6194713   0.18852124 
   49900   -675.38137    41.349034   -634.03234    1254.4708   -1787.2497    9.4610715   0.25275936 
   50000   -679.03102    40.388347   -638.64267    1225.3249   -2335.8804    9.5202352   0.23577042 
   50100   -681.29836    39.647191   -641.65116    1202.8393    5458.4351    9.6441498   0.20172425 
   50200   -678.17673     39.88699   -638.28974    1210.1145    5507.4047    9.6068654   0.22826396 
   50300   -678.00435    43.644382   -634.35997    1324.1084    7.8917271    9.5172848    0.2497988 
   50400   -681.95538    39.401885    -642.5535     1195.397   -4722.6793    9.5558731   0.20758158 
   50500   -679.65981    38.838652   -640.82116    1178.3094    5135.6796    9.6179365   0.22237985 
   50600   -678.56974    41.673732   -636.89601    1264.3216    8070.4674    9.6316819   0.20682389 
   50700   -682.88433    39.560856   -643.32347      1200.22    -5395.882    9.5634938   0.19815869 
   50800   -683.02988    39.593688   -643.43619    1201.2161   -4480.0167    9.5754798   0.19426214 
   50900   -679.49915    40.147802   -639.35135    1218.0271    -1190.952    9.5319545   0.24348524 
   51000   -679.78752    41.783965   -638.00356     1267.666    697.92319    9.5548929   0.22946462 
   51100   -682.72368    39.046266   -643.67741    1184.6081    9367.3675     9.717343   0.18046184 
   51200   -680.00757    38.921016   -641.08655    1180.8082   -2783.5917    9.5352034   0.20642622 
   51300   -672.99603    35.820693   -637.17534    1086.7488   -5829.3606    9.3842356   0.28700385 
   51400    -677.6501    37.990429   -639.65968    1152.5755   -5448.4952    9.4862456   0.26737991 
   51500   -683.94799    41.097623   -642.85037    1246.8433   -3377.6429    9.5964706   0.18371258 
   51600   -684.93489    37.712124   -647.22276    1144.1321    3992.0246    9.6955247   0.17420793 
   51700   -680.80215    40.629012   -640.17314    1232.6263    -975.1527    9.5782091    0.2243299 
   51800   -677.29588    37.894606   -639.40128    1149.6683    1987.7223    9.5464374   0.22438792 
   51900   -682.06119    39.896695   -642.16449    1210.4089    292.57049    9.5983434   0.21153464 
   52000    -685.9452    36.291994   -649.65321    1101.0474   -1918.0624     9.666758   0.16970761 
   52100   -681.64849    38.346917   -643.30157    1163.3908   -1393.2329    9.5787649   0.20015175 
   52200   -678.04819    37.427462   -640.62073    1135.4959   -3394.2425    9.4864153   0.22228186 
   52300   -681.27186    42.060422   -639.21144    1276.0533   -2372.1292     9.555508     0.205976 
   52400   -687.19408     41.96737   -645.22671    1273.2302    5090.3345    9.7419183   0.16494249 
   52500   -683.51928    39.909326   -643.60995    1210.7921     4012.606    9.6771756   0.19131153 
   52600   -681.10024    42.659716   -638.44053     1294.235   -8454.8092    9.4817911   0.23115349 
   52700   -678.95456     40.02668   -638.92788    1214.3524    3515.0847       9.5933   0.20880037 
   52800   -683.07045    37.890351    -645.1801    1149.5393    2166.7253    9.6537387   0.20065391 
   52900   -681.53321    38.339293   -643.19391    1163.1595    2373.1845    9.6193069   0.21796855 
   53000    -679.2664    39.807339   -639.45906    1207.6979   -3846.2772    9.5115778   0.23746262 
   53100   -679.59083    40.108115   -639.48271    1216.8231    182.61683    9.5581454   0.25300712 
   53200   -675.81576    42.338331   -633.47743    1284.4846    8432.2775    9.5886777   0.24004103 
   53300   -675.64516     45.74546    -629.8997    1387.8521   -7821.8593    9.4000581   0.26683936 
   53400   -678.04832    40.229054   -637.81926    1220.4922   -6552.2978    9.4632254   0.23111429 
   53500   -679.85207    39.976538   -639.87553    1212.8312   -941.60466    9.5542708   0.23629125 
   53600   -680.51496    38.819938   -641.69502    1177.7416    5793.0471    9.6378186   0.20826205 
   53700   -687.26622    40.299351   -646.96686    1222.6249   -5888.6419    9.6294713   0.16296837 
   53800    -682.4353    37.483928   -644.95137     1137.209     1533.151    9.6295981    0.1764718 
   53900   -682.71244    41.595855   -641.11658     1261.959    1527.6755    9.6289038   0.20027514 
   54000   -677.73502     36.26431   -641.47071    1100.2075    4385.8653     9.576518   0.24937791 
   54100   -675.96575    39.444177   -636.52157    1196.6801   -11184.844    9.3703495    0.2705489 
   54200   -675.56028    41.803147   -633.75713    1268.2479   -742.20893    9.4835536   0.27946023 
   54300   -684.65626    43.356349   -641.29991    1315.3699    4552.5997    9.6760452   0.17937893 
   54400   -680.47763    39.435763   -641.04186    1196.4249    651.38308    9.5896481    0.2186859 
   54500   -677.06906    41.825142   -635.24392    1268.9152   -2372.4954    9.4876712   0.25107719 
   54600   -678.90575    44.054079   -634.85167     1336.538    7127.9422    9.6013341   0.21587404 
   54700   -677.65121    35.799925   -641.85128    1086.1187    4076.6701    9.5836744   0.20512684 
   54800   -678.24703    37.225252   -641.02178    1129.3611    561.21169    9.5544523   0.22444506 
   54900   -676.58041    39.879758   -636.70065     1209.895   -4197.8722    9.4572228   0.26107074 
   55000   -673.49998    41.392359   -632.10762    1255.7852    4723.0296    9.5097465   0.25875524 
   55100   -680.87064    40.443681   -640.42696    1227.0037    10474.933    9.7104548   0.18427992 
   55200   -680.70526    39.812312   -640.89295    1207.8488   -730.15586    9.5741977   0.22452321 
   55300    -679.0945     42.26653   -636.82797    1282.3063    -14291.17    9.4035556   0.25628128 
   55400   -678.14593    41.956953   -636.18898    1272.9142   -4559.5655     9.474352   0.25404165 
   55500   -682.42323    38.707026    -643.7162     1174.316    646.47234     9.621853   0.17702032 
   55600   -678.28839    38.119782   -640.16861    1156.4999   -1037.6113    9.5285776    0.2092723 
   55700   -675.13559     37.87623   -637.25936    1149.1108   -510.07927    9.4835149   0.25784428 
   55800   -679.79445    35.697143   -644.09731    1083.0005    1358.4519    9.5897138   0.21689155 
   55900   -684.09717     41.12774   -642.96943     1247.757    1528.2917    9.6554395   0.17999275 
   56000   -681.52679    43.135415   -638.39138     1308.667     10682.29    9.7088019   0.19131258 
   56100    -678.5477    41.594656   -636.95305    1261.9226    2414.1522    9.5704642   0.20854943 
   56200   -680.24991    35.036661   -645.21325    1062.9624   -3850.4029     9.550575   0.22544654 
   56300    -680.1707    36.850107   -643.32059    1117.9797   -1059.2709    9.5659848   0.24082731 
   56400   -678.76656    41.066461    -637.7001    1245.8979    3322.0108    9.5779547   0.22222032 
   56500   -680.44987    39.368196   -641.08167     1194.375   -4538.3797    9.5279813   0.21809591 
   56600   -681.20886    35.440475   -645.76838    1075.2135   -5684.7179    9.5292024   0.21512781 
   56700   -677.16017    38.846551   -638.31362     1178.549   -199.45493    9.5143714   0.25623357 
   56800   -676.74319    39.144825   -637.59837    1187.5982   -1592.4341    9.4912063   0.24335862 
   56900   -681.83967    38.532271    -643.3074    1169.0142    1823.3619    9.6121695   0.18608432 
   57000   -680.73067    37.305848   -643.42482    1131.8063    3089.6089     9.612268   0.22382623 
   57100   -680.19355    41.398705   -638.79485    1255.9777   -4830.1228    9.5090631   0.22092443 
   57200   -680.17157    37.564675    -642.6069    1139.6587   -6298.0505    9.5069944   0.21876395 
   57300   -683.49452    41.612199   -641.88232    1262.4548    239.38982    9.6290668    0.1970598 
   57400   -678.38523    44.150628    -634.2346    1339.4671    11913.345    9.6659186   0.20559726 
   57500   -679.89434    40.581292   -639.31305    1231.1786    4029.4619    9.6101215   0.19859798 
   57600   -681.73363    40.315324    -641.4183    1223.1095    -4752.586    9.5383418   0.22118606 
   57700   -677.80641    40.527308    -637.2791    1229.5408    3335.2269    9.5531875   0.23183904 
   57800   -674.70799    44.132383   -630.57561    1338.9136   -24.812329    9.4512983   0.28782351 
   57900   -677.76813    40.875677   -636.89246    1240.1098     1664.338    9.5561488   0.24897246 
   58000   -680.19949    39.724183   -640.47531    1205.1751    5207.0883    9.6297732    0.2269597 
   58100   -678.72185    41.785115   -636.93673    1267.7009     6308.704    9.6133366   0.20853362 
   58200   -680.20256    43.881651   -636.32091    1331.3068    9395.6136    9.6723868   0.22765378 
   58300   -682.39077     39.01652   -643.37425    1183.7056   -12068.619     9.494712   0.22294395 
   58400   -681.66593    41.820045   -639.84589    1268.7606   -9450.2234    9.4936948   0.24240824 
   58500   -677.89858    41.866474   -636.03211    1270.1692    6288.1172    9.5970426   0.21096974 
   58600   -684.16654    41.057302   -643.10923    1245.6201   -2427.3508    9.6203583   0.18864717 
   58700   -680.40828    38.919581    -641.4887    1180.7646     1576.616     9.599065   0.21071165 
   58800   -679.83578    43.485296   -636.35048    1319.2819    2550.4255    9.5912959     0.210878 
   58900   -681.81585    40.411635   -641.40422    1226.0314     5452.285    9.6590481   0.21351888 
   59000   -680.39096    36.394596   -643.99636    1104.1602   -3855.8976    9.5466384   0.21876269 
   59100   -677.62846    40.545837   -637.08262    1230.1029   -1199.0286    9.4957347   0.24398641 
   59200   -679.46803    39.565786   -639.90224    1200.3696    3539.0755    9.6004524   0.21656922 
   59300   -682.99651    36.995954   -646.00055    1122.4045   -1659.7346      9.62153   0.18997202 
   59400   -677.95209     38.63778   -639.31431    1172.2152    1419.6047    9.5443346   0.23503095 
   59500   -678.84376    40.030924   -638.81284    1214.4812    2420.9689    9.5864598   0.22463729 
   59600   -680.81781     36.62215   -644.19566    1111.0639    5868.7413     9.650527   0.23009531 
   59700   -679.65827    39.976635   -639.68164    1212.8342   -3669.5284    9.5279577   0.22960672 
   59800   -676.63732    40.085775   -636.55154    1216.1453    3312.5043    9.5469936   0.21626746 
   59900   -681.48749    39.550022   -641.93747    1199.8913    3843.6867    9.6377189   0.19348773 
   60000   -682.38351    40.108746   -642.27477    1216.8422    -5073.989    9.5652857   0.19696754 
   60100   -675.22352     40.78695   -634.43657     1237.418    4043.4578    9.5146118   0.25103479 
   60200   -678.35363    39.674401   -638.67923    1203.6648    4453.8151    9.5871337   0.21848031 
   60300   -682.44712    41.606375   -640.84075    1262.2781       8903.6    9.7083702    0.1971759 
   60400    -680.6328    43.273418   -637.35938    1312.8538    4543.3168    9.6288955   0.19120133 
   60500   -674.57861    41.369192   -633.20942    1255.0823   -2766.7407    9.4299312   0.25451276 
   60600   -678.02522    37.759169   -640.26605    1145.5594    -3714.818    9.5014354   0.25697829 
   60700   -679.06172    38.590579   -640.47114    1170.7832    4850.0365    9.6070823   0.21438679 
   60800   -678.65941     41.85518   -636.80423    1269.8265   -2399.5681    9.5022658   0.21958301 
   60900   -674.14155    40.326928   -633.81462    1223.4615   -2425.4025    9.4177418   0.27592435 
   61000   -678.81193    38.109407   -640.70252    1156.1851    4743.7468    9.6038674   0.22615781 
   61100   -682.94571    41.604923   -641.34079    1262.2341   -2445.3774    9.5797392   0.20969772 
   61200   -677.02189    41.831993    -635.1899    1269.1231   -1201.9985    9.5205945    0.2417205 
   61300   -680.53705    44.217409   -636.31964    1341.4932    7202.7898    9.6432428   0.21532978 
   61400    -680.1072    38.905511   -641.20169    1180.3378   -3797.2761    9.5339249   0.22250448 
   61500   -678.39309     37.25379    -641.1393    1130.2269   -2075.3206    9.5246696     0.219521 
   61600   -674.26134    41.189008   -633.07233    1249.6158    3715.4763       9.4961   0.27870299 
   61700   -677.01919    40.905528   -636.11366    1241.0154   -2057.6967     9.483024   0.25468907 
   61800   -681.94073    40.702138    -641.2386    1234.8449   -8650.8277    9.5043967   0.24659021 
   61900   -677.72694    38.491321   -639.23562    1167.7718    8769.3492    9.6186805   0.22256074 
   62000   -676.90711    43.806105   -633.10101    1329.0148   -1774.6822    9.4867443   0.25328526 
   62100    -676.9263    37.154752   -639.77155    1127.2222   -3384.1795    9.4915643   0.24907756 
   62200    -678.7682    38.146001    -640.6222    1157.2953   -5548.2427    9.4851249   0.24664926 
   62300   -679.14422    39.692309   -639.45191    1204.2081   -7278.8215    9.4764949    0.2401405 
   62400   -681.21328    36.563228   -644.65005    1109.2762    4540.1325    9.6360564   0.19112233 
   62500   -680.67712    36.317966   -644.35915    1101.8353    9697.9301    9.6903701   0.20815692 
   62600   -681.49523    41.701378   -639.79385    1265.1604   -701.09278    9.5812319    0.2205974 
   62700   -678.69918    38.407168   -640.29201    1165.2187   -2635.4205    9.5296239   0.23875911 
   62800   -681.79771    38.226833   -643.57087    1159.7476    -9625.844     9.489351   0.20875748 
   62900   -683.79475    37.556641   -646.23811     1139.415    1345.0629    9.6507449   0.19982929 
   63000   -682.04136    42.461598   -639.57977    1288.2244    4839.3196    9.6561167   0.20973322 
   63100   -680.53103    41.291998   -639.23904    1252.7404    1387.2686     9.592663   0.22262236 
   63200   -677.28981       39.068   -638.22181    1185.2675   -2427.5255    9.4851476   0.22479287 
   63300   -673.57393    42.238239   -631.33569     1281.448   -10495.593    9.3133623   0.26816704 
   63400   -679.10968    39.873322   -639.23636    1209.6998     508.2287     9.565302   0.24506417 
   63500    -676.7319    36.646954   -640.08494    1111.8164    5435.5653      9.57741   0.28038259 
   63600   -677.43095    40.152953     -637.278    1218.1834   -4970.0047    9.4683833   0.26696855 
   63700   -681.30844    36.593001   -644.71544    1110.1795    -1029.904    9.5907931   0.23664957 
   63800   -682.22499    39.790713   -642.43428    1207.1936    -3288.962    9.5589985   0.19987009 
   63900   -678.78141    40.208835   -638.57258    1219.8788    9053.0637     9.633389    0.1936783 
   64000   -682.20345    40.141542   -642.06191    1217.8372    4636.5841    9.6573897    0.1926553 
   64100   -684.31275    38.763625   -645.54913    1176.0332   -3925.3547    9.5990021    0.2005293 
   64200    -677.5285    38.080578   -639.44792    1155.3105   -7975.3574    9.4465083   0.28314886 
   64300   -680.45396    42.760674   -637.69328    1297.2979   -4287.4912    9.5219992    0.2384245 
   64400   -682.55744    38.120229   -644.43721    1156.5134      5231.63    9.6880556   0.19579179 
   64500   -680.09774    39.747865   -640.34987    1205.8936    5909.0196    9.6402276   0.19285536 
   64600    -678.6313    40.529401    -638.1019    1229.6043   -3271.7346    9.5043795   0.22642907 
   64700   -684.38808    40.032882    -644.3552    1214.5406   -3751.8804      9.60013   0.19509905 
   64800   -682.17139    38.710723   -643.46066    1174.4282    699.64122     9.617042   0.19663278 
   64900   -681.44236    42.252969   -639.18939    1281.8949     2912.458    9.6303824    0.1909519 
   65000    -680.5645    38.632314   -641.93219    1172.0494    4346.9739    9.6228422   0.19605016 
   65100   -682.15323    35.571137    -646.5821    1079.1776    7219.7235    9.6921561   0.20075452 
   65200   -679.76083    41.494264   -638.26656    1258.8768   -7783.6658    9.4736399   0.24264431 
   65300   -677.82483    38.912419   -638.91241    1180.5474    217.67978    9.5353816   0.25997787 
   65400   -679.83881    38.156886   -641.68192    1157.6256    1382.5672     9.582662   0.22105811 
   65500   -685.58952    39.331716    -646.2578    1193.2682   -7929.3712    9.5886723   0.19866114 
   65600   -680.50807    40.811918   -639.69615    1238.1754    7506.2247    9.6543779   0.20125744 
   65700   -679.60563     41.91519   -637.69044    1271.6471   -7557.8949    9.4675375   0.26566985 
   65800   -677.84974    37.397987   -640.45175    1134.6017   -2103.7371    9.5193687   0.24936638 
   65900   -684.04238    38.727507   -645.31487    1174.9374    2057.9834    9.6709524   0.19623075 
   66000   -680.31969    42.176239   -638.14345     1279.567    5415.4803    9.6126673   0.21247604 
   66100   -676.64644    38.474821   -638.17162    1167.2712    916.91957    9.5277319   0.23790945 
   66200   -678.17267    34.494018   -643.67865    1046.4994    1790.6178    9.5651919   0.22790776 
   66300   -679.13013    41.565585   -637.56454    1261.0406   -5428.3719     9.483923    0.2327763 
   66400   -677.55601     39.52206   -638.03395     1199.043     7819.465     9.623788   0.21234958 
   66500   -683.83782    42.172622    -641.6652    1279.4573    9999.8853    9.7367618   0.18269708 
   66600   -680.71316    42.357073   -638.35609    1285.0533   -4328.0438    9.5289194   0.21989364 
   66700   -673.67829    39.666876   -634.01141    1203.4365   -4576.8794    9.4142163   0.26894196 
   66800   -681.01895    38.717456    -642.3015    1174.6324    7593.4202    9.6660694   0.18904414 
   66900   -680.10026    38.725089   -641.37517     1174.864    8274.4213    9.6426436   0.18856581 
   67000   -676.16565    39.030811   -637.13484    1184.1392   -4826.1705    9.4526425   0.21975495 
   67100   -678.91113    36.189146   -642.72198    1097.9271   -919.65056     9.543051   0.22788154 
   67200   -682.82605    39.648089   -643.17796    1202.8665   -208.47748    9.6106467   0.19498751 
   67300   -678.03074    40.071382   -637.95936    1215.7086    2424.4588    9.5694508   0.25406503 
   67400   -678.36101    42.825965   -635.53505    1299.2788   -6686.4118    9.4410695   0.27777608 
   67500   -682.33866    38.842165    -643.4965    1178.4159    185.82349    9.6085075   0.20637626 
   67600   -682.49681    40.787765   -641.70904    1237.4427    7919.8152    9.7063574   0.17831112 
   67700   -677.75094    39.182259   -638.56869    1188.7339    1625.0454    9.5467048   0.23405391 
   67800   -675.47721    41.910777   -633.56643    1271.5133   -645.13249    9.4714163   0.25742064 
   67900   -681.11809    39.562392    -641.5557    1200.2666   -1678.7096     9.557295   0.20519911 
   68000   -679.93988    39.309823   -640.63006     1192.604    1108.7075    9.5889988   0.21668679 
   68100   -678.88046    43.472975   -635.40749    1318.9081     14699.68    9.6894256   0.20034014 
   68200   -681.73182    44.633781   -637.09804    1354.1253   -722.15522    9.5741178   0.20190498 
   68300   -681.13679    38.291019   -642.84577     1161.695    -8330.303    9.5014504   0.21038099 
   68400    -680.6574     41.53264   -639.12476    1260.0411    1948.8709    9.5995002   0.19444731 
   68500   -678.36612    41.315806   -637.05031    1253.4627    8824.1353    9.6331271   0.23524754 
   68600   -683.36189    38.749497   -644.61239    1175.6045    955.77795    9.6405315   0.21544331 
   68700   -683.62926    39.483847   -644.14542    1197.8836     519.3194    9.6332656   0.20004976 
   68800   -679.05235    39.648337   -639.40401    1202.8741   -1466.0079    9.5270893   0.24309524 
   68900   -679.15164    43.063049   -636.08859    1306.4715    3499.1694     9.598095   0.20005541 
   69000   -681.45834    39.364533   -642.09381    1194.2638    15360.386    9.7704687   0.19107364 
   69100   -680.43313    37.856266   -642.57687    1148.5052   -3941.9741    9.5446701   0.22852546 
   69200   -675.72008    39.264856   -636.45523    1191.2398   -2605.8375    9.4635756   0.25244961 
   69300   -680.91786    41.058897   -639.85896    1245.6684   -2595.2301    9.5437007   0.20900576 
   69400   -684.00003    39.376918   -644.62311    1194.6396   -4105.2051    9.6032251   0.19645773 
   69500   -680.06479    39.775675   -640.28912    1206.7373   -3165.6062    9.5318493   0.23496464 
   69600   -676.82754    38.859296   -637.96825    1178.9357   -7703.5708    9.4244045   0.25672144 
   69700   -680.33375    39.502834   -640.83092    1198.4597    6515.0916    9.6299276   0.20694686 
   69800   -682.18941    36.422261   -645.76715    1104.9995    8173.1978    9.6871556   0.19949609 
   69900   -678.53365    39.770722   -638.76293     1206.587   -10237.537    9.4364164   0.23757822 
   70000   -678.00654    39.542285   -638.46425    1199.6566   -4463.5133    9.4786956   0.24552483 
   70100   -679.28345    37.458459   -641.82499    1136.4363    2392.9614    9.6051266   0.21765533 
   70200   -682.56012    37.757238   -644.80288    1145.5008   -685.23307    9.6055586   0.23101065 
   70300   -679.19681    40.317896   -638.87891    1223.1875   -3245.3026    9.5255015   0.22472931 
   70400   -679.82383    40.813369   -639.01046    1238.2195     1945.419    9.5936995   0.21797291 
   70500   -682.51817    37.486105   -645.03207     1137.275    957.41378    9.6346966   0.20141309 
   70600   -681.03447    41.731869    -639.3026    1266.0855    -362.1629    9.5821557    0.2150802 
   70700   -678.01387    40.622759   -637.39111    1232.4366    3517.4125    9.5695937    0.2335168 
   70800   -682.47141    41.143964   -641.32744    1248.2493    3177.6898    9.6332997    0.2211058 
   70900   -683.04697    41.328202   -641.71877    1253.8388   -4295.6562    9.5672571    0.2065005 
   71000   -677.94433    44.204977   -633.73935     1341.116   -6021.3987    9.4551033   0.27239807 
   71100   -677.69785       38.213   -639.48485     1159.328    10093.703    9.6361385   0.22057302 
   71200   -680.19678    38.533074   -641.66371    1169.0386    148.14911    9.5657094   0.22175723 
   71300   -678.18304    40.859823   -637.32322    1239.6288   -7678.8307    9.4457671   0.25349288 
   71400   -676.14732     43.11889   -633.02843    1308.1657   -156.95359    9.4872601   0.25871836 
   71500   -680.65015    39.738878   -640.91127    1205.6209    8615.7845    9.6821897   0.18787328 
   71600   -681.75461    41.028342   -640.72626    1244.7414   -4111.9118    9.5499228   0.20160784 
   71700   -679.63649    40.990142   -638.64635    1243.5825   -2054.2012     9.537844   0.21071484 
   71800   -674.30287    43.924266    -630.3786    1332.5997   -9590.4227    9.3485364   0.26895102 
   71900   -675.80579    39.503697    -636.3021    1198.4859   -1670.8479    9.4790135   0.24850618 
   72000   -678.51218    38.401127   -640.11105    1165.0355    2064.2313    9.5663807   0.24868058 
   72100    -681.2456    41.719182   -639.52642    1265.7005    2036.7229    9.6160798   0.19825593 
   72200   -682.14873    36.476831    -645.6719    1106.6551    5370.4491    9.6804534   0.18454342 
   72300   -679.81916    38.446876   -641.37228    1166.4234   -3067.9624    9.5502071   0.20125558 
   72400    -680.7081    42.547481   -638.16062    1290.8299   -1210.0601    9.5662162   0.20936635 
   72500   -680.28401      39.2719   -641.01211    1191.4535    5380.0356    9.6293206   0.20729968 
   72600   -683.96013    36.816968   -647.14316    1116.9744   -756.89401    9.6326091   0.19311741 
   72700   -680.45237    36.579251   -643.87312    1109.7624   -1349.1911    9.5684191   0.22102824 
   72800   -679.36596     39.20038   -640.16558    1189.2837    319.84805    9.5670566    0.2378889 
   72900   -682.45487     41.65148   -640.80339    1263.6466    1239.8325    9.6170419    0.2336413 
   73000   -677.59647    40.536289   -637.06018    1229.8133    4424.7466    9.5781652   0.22542093 
   73100   -672.52821    38.663042   -633.86517    1172.9816    659.71415    9.4399436    0.3029642 
   73200   -680.09193    37.155085   -642.93684    1127.2323   -7249.7266    9.4919013   0.20831431 
   73300   -680.30345    38.185364   -642.11808    1158.4895   -10694.602     9.447654   0.21477482 
   73400   -677.68638    40.931542   -636.75484    1241.8047    2569.7464    9.5480521   0.25760429 
   73500   -678.73683    41.369436    -637.3674    1255.0897    1297.9801    9.5472256   0.23072989 
   73600   -679.23714    36.777869   -642.45927    1115.7881    397.76787    9.5446862   0.24293274 
   73700   -678.10413    40.908518   -637.19561    1241.1061   -6212.6623     9.453345   0.24212512 
   73800   -676.93665    39.063406   -637.87325    1185.1281    3093.3945    9.5415362   0.24171175 
   73900    -683.9832    39.606688   -644.37652    1201.6105    1598.1104    9.6419929    0.1884907 
   74000   -678.92464    38.791141   -640.13349     1176.868    358.18062    9.5475668   0.23196718 
   74100   -675.65423     39.57681   -636.07741     1200.704   -12727.239    9.3513752    0.2639646 
   74200   -683.35314    41.245066   -642.10808    1251.3165   -5341.3891     9.571711   0.21281071 
   74300   -682.48779    40.461221   -642.02657    1227.5358    14114.435    9.7610498   0.18384149 
   74400   -678.23787    41.739348   -636.49852    1266.3123   -582.43429    9.5326334    0.2362285 
   74500   -679.57343    40.231641   -639.34179    1220.5707   -6175.1897    9.5012483   0.23575567 
   74600   -681.21191    39.101736   -642.11018    1186.2909   -3430.8093    9.5566127   0.18800089 
   74700   -679.58362    43.315826    -636.2678    1314.1404    7496.7198    9.6279222    0.2054618 
   74800   -680.31275    44.103952    -636.2088    1338.0511   -1955.2065    9.5452748   0.20368547 
   74900   -682.62129    41.589661   -641.03163    1261.7711    2996.4612    9.6411848   0.19167584 
   75000   -681.12664    41.317545    -639.8091    1253.5155     2514.433    9.6058705   0.21762408 
   75100   -678.54874    44.093295   -634.45545    1337.7277    1508.8988    9.5483539   0.23885986 
   75200   -682.43583    39.802498   -642.63333    1207.5511    3737.1167    9.6582886   0.20379359 
   75300   -677.43913    35.481341   -641.95779    1076.4533   -3524.8901    9.4981745   0.25347263 
   75400   -679.13379    41.015117   -638.11867    1244.3402   -7724.9315    9.4717374   0.24319899 
   75500   -682.81823    42.761335   -640.05689     1297.318    8061.0601    9.6966738   0.19322068 
   75600   -685.96577    40.636009   -645.32976    1232.8386    13451.285    9.8157839   0.14744244 
   75700    -682.3082    42.434858   -639.87334    1287.4131    -7376.326    9.5133515   0.21217939 
   75800   -679.54824    41.413899   -638.13434    1256.4387     873.2934    9.5712436   0.23536073 
   75900   -680.25214       38.476   -641.77614     1167.307   -1643.6695    9.5475393   0.22218022 
   76000   -682.64725    36.166406   -646.48085    1097.2372   -2628.5827    9.5951998   0.20081664 
   76100   -678.15891    39.124324   -639.03458    1186.9763   -3885.2438    9.4904178   0.24910769 
   76200     -678.378    39.419937   -638.95807    1195.9447     6427.516    9.5979973   0.24714678 
   76300   -681.15906    36.911026   -644.24803    1119.8279    6409.3041     9.663527   0.19340289 
   76400    -683.3737    38.242278   -645.13142    1160.2162   -2025.8571    9.6088814   0.17156258 
   76500   -681.20485    43.002424   -638.20243    1304.6323    6954.8848    9.6611378   0.18432681 
   76600     -683.559    43.197531   -640.36147    1310.5515    3259.1383    9.6537363   0.18892179 
   76700   -679.51024    36.478912   -643.03133    1106.7182   -4864.9833     9.503336   0.23175826 
   76800   -674.95725    39.116937   -635.84031    1186.7521   -8494.9835    9.3806287   0.30457385 
   76900   -681.63404    44.405968   -637.22808    1347.2138   -5779.5499    9.4997552   0.22733859 
   77000   -682.02916    39.519154   -642.51001    1198.9548    5332.1046     9.656956   0.19483733 
   77100   -678.05905    39.997409   -638.06164    1213.4644   -2517.1013    9.4896324   0.25654935 
[...]
  481400   -677.16835    39.201982   -637.96636    1189.3323   -471.45019    9.5126203   0.23353177 
  481500   -679.96686    37.391612   -642.57525    1134.4082    5995.0722    9.6399109   0.20735179 
  481600   -683.04838    38.621443   -644.42694    1171.7196    4952.2343    9.6797469   0.19357555 
  481700   -679.33985    41.726124   -637.61372    1265.9111   -4365.3345    9.4909488   0.26911902 
  481800   -678.00646     39.77466    -638.2318    1206.7065   -286.93615    9.5243559   0.25602024 
  481900   -680.31437    34.421641   -645.89273    1044.3035    5185.4987    9.6442369   0.20221975 
  482000   -683.39054    41.263319   -642.12722    1251.8703    -6434.969    9.5558034   0.19635745 
  482100   -678.88568    39.309628   -639.57605    1192.5981    7014.1077    9.6297941   0.18713624 
  482200   -681.48063    39.082199   -642.39843    1185.6982   -1715.1064    9.5639502   0.21612003 
  482300   -687.12325    38.033888   -649.08937     1153.894    930.86363     9.701273   0.17770835 
  482400   -678.79638    36.632946   -642.16344    1111.3914    2646.4418    9.5860274   0.23812149 
  482500   -678.40614    37.950894   -640.45525    1151.3761    -7971.248    9.4490581   0.27240931 
  482600   -677.95193    38.581347   -639.37058    1170.5031   -6867.2743    9.4510744   0.27132737 
  482700   -678.14443    37.147868   -640.99656    1127.0134    3639.5169    9.5962229   0.23321595 
  482800   -685.39236    38.075229   -647.31713    1155.1482    6710.7011    9.7465488   0.16541269 
  482900    -679.9191     38.30692   -641.61218    1162.1774    1345.9874    9.5716107   0.19622138 
  483000   -677.66207     37.64985   -640.01222    1142.2428   -2054.1989    9.5070193   0.24281448 
  483100   -677.30941    39.334012   -637.97539    1193.3379   -2332.2836    9.4939504   0.24910702 
  483200    -673.1812    43.662966   -629.51823    1324.6722     4385.681    9.5014946   0.26576449 
  483300   -677.45166    41.206614   -636.24505    1250.1499    11197.607    9.6567853   0.21677841 
  483400   -680.40395    39.657078   -640.74687    1203.1392    1829.4363    9.5966077   0.20722774 
  483500   -680.01059    37.751345   -642.25924     1145.322    3195.0288    9.6020273   0.21940508 
  483600   -676.65304    41.484903   -635.16813    1258.5928   -7165.2479    9.4307933   0.26768874 
  483700   -678.20854    42.671084   -635.53745    1294.5799   -4791.7294    9.4751221   0.24656229 
  483800   -681.01145    40.049351    -640.9621    1215.0403   0.36096033     9.567569   0.21803533 
  483900   -681.61461    41.191639   -640.42297    1249.6956    781.87035    9.6007833   0.20732346 
  484000   -676.42772    43.515469   -632.91225    1320.1973    14153.898    9.6637521   0.22676431 
  484100   -677.17573    40.098949   -637.07678     1216.545    -3020.613    9.4815016   0.25511634 
  484200   -681.75045    39.524872   -642.22558    1199.1283   -4618.8824    9.5355349   0.21153849 
  484300   -682.80931    38.762404   -644.04691    1175.9961    44.644805    9.6152018   0.19435883 
  484400   -678.37985    42.514392   -635.86546    1289.8261   -1794.0487    9.5011722    0.2363923 
  484500    -676.9271    37.946014   -638.98108     1151.228    5869.6633    9.5822577   0.25291538 
  484600   -679.74027    37.624776   -642.11549    1141.4821   -2288.3598    9.5453746   0.21348007 
  484700   -681.86811    36.888801   -644.97931    1119.1536    3922.0972    9.6441747   0.22121572 
  484800   -674.33677    38.142283   -636.19449    1157.1825   -10313.359    9.3392748   0.28027917 
  484900   -677.99841    39.175628   -638.82279    1188.5327   -2404.9177     9.498624   0.26318515 
  485000   -679.48531    39.062121   -640.42319    1185.0891    5816.6932    9.6157466    0.2224724 
  485100   -679.90664    39.065135   -640.84151    1185.1805    4963.4642    9.6165282   0.23529901 
  485200   -676.15083    43.335757   -632.81507    1314.7451   -3899.0132    9.4259382   0.27246249 
  485300   -676.02302    38.170966   -637.85205    1158.0527   -5662.5125    9.4424628   0.26883162 
  485400   -679.55031    38.028049   -641.52227    1153.7168   -4492.9592      9.51736   0.23282566 
  485500   -680.67007    37.557617   -643.11246    1139.4446    9810.7873    9.7005166   0.19123374 
  485600    -683.5264    36.909252   -646.61715    1119.7741    1849.7101    9.6642506   0.19152091 
  485700   -685.73561    35.080759   -650.65485    1064.3002   -5004.6137    9.6195584   0.18513657 
  485800   -681.06928    37.115297   -643.95398    1126.0252    988.51132    9.5982859   0.21598752 
  485900   -680.07757     38.18561   -641.89196     1158.497    678.47796    9.5803926   0.22886842 
  486000   -679.74279    41.273963   -638.46882    1252.1932   -574.84208    9.5563374   0.23397248 
  486100   -679.06435    40.095674   -638.96868    1216.4456   -9288.5103      9.45664   0.27770318 
  486200   -683.12556    36.513807   -646.61175    1107.7769    220.57298    9.6353019    0.2142519 
  486300   -682.13355     41.04932   -641.08423    1245.3779    4791.1553    9.6546331   0.18022796 
  486400   -680.40026     41.76574   -638.63452     1267.113   -1769.1524    9.5569446   0.20914625 
  486500    -680.9026    41.067012   -639.83559    1245.9146   -513.86373    9.5736894   0.21248821 
  486600   -685.64134     38.87169   -646.76965    1179.3117   -4928.4149    9.6100715   0.21065315 
  486700   -678.27226     37.15552   -641.11674    1127.2455    4997.3053    9.5872888   0.27423597 
  486800   -675.59408    37.585485   -638.00859    1140.2901    788.76891    9.4856909   0.28910801 
  486900   -677.44564    36.964303   -640.48134    1121.4443   -9153.7198    9.4324987   0.28278632 
  487000   -682.50339     38.89723   -643.60616    1180.0865   -5107.9032    9.5535019   0.21299389 
  487100   -678.35652    39.919596   -638.43692    1211.1036    5283.7786    9.6032764   0.21814907 
  487200   -678.98233    44.300643   -634.68169    1344.0184   -5339.1564    9.4807463   0.23893565 
  487300   -678.18485    37.124567   -641.06029    1126.3065    2671.7154    9.5710047   0.22017832 
  487400   -680.87765    39.430227   -641.44742    1196.2569   -9225.4128    9.4806417   0.22475244 
  487500   -675.17164    41.232428   -633.93922    1250.9331     6047.389    9.5405924   0.23597236 
  487600   -679.59257    42.432919   -637.15965    1287.3543    12124.762    9.6757412   0.22760278 
  487700   -683.17944    40.051059   -643.12838    1215.0921   -8498.0958    9.5357781   0.21632889 
  487800   -678.43453    39.755042   -638.67949    1206.1113   -7909.4106    9.4579171   0.24310429 
  487900   -674.49045    37.480105   -637.01035     1137.093   -1326.3633    9.4755225   0.25327641 
  488000   -681.68694    38.172332   -643.51461    1158.0942    7742.6018    9.6773539   0.18580937 
  488100   -679.87545    38.149175   -641.72628    1157.3916    703.84337     9.598685   0.23334479 
  488200   -679.11296    41.127732   -637.98523    1247.7568    -56.70382    9.5510336    0.2442795 
  488300   -681.01469    39.233574   -641.78112    1190.2907   -3463.3302    9.5499015   0.22820378 
  488400   -684.01108    38.810717   -645.20036    1177.4619    4876.3797    9.6983096   0.18454627 
  488500    -680.3734    42.563861   -637.80954    1291.3269    247.36384    9.5763686   0.23100395 
  488600   -680.18946    41.716227   -638.47323    1265.6109   -1385.3273    9.5507932   0.25273473 
  488700   -676.43872    36.526914    -639.9118    1108.1745   -2036.7232    9.4952495   0.26037388 
  488800    -682.5396    37.812293   -644.72731    1147.1711   -614.60486    9.6042577   0.20782829 
  488900    -684.1792    36.528464   -647.65073    1108.2215    2025.0765    9.6678138   0.17655621 
  489000   -680.51517    39.760113   -640.75506    1206.2652   -1123.8968    9.5567604   0.20465125 
  489100   -681.12727    41.260537   -639.86673    1251.7859   -744.11404    9.5714253   0.21353213 
  489200    -681.0129    40.026832   -640.98607     1214.357   -4359.5902    9.5353068   0.23388081 
  489300   -676.95821    44.575537   -632.38268    1352.3583     3182.135    9.5350666   0.25851918 
  489400   -676.78697    39.761714   -637.02526    1206.3137    4719.6696    9.5550945   0.24733753 
  489500   -679.38779    40.633575   -638.75421    1232.7648   -8453.9486    9.4584103   0.24129889 
  489600   -682.73205     40.45951   -642.27254    1227.4839    4250.0347    9.6577727   0.19245498 
  489700   -684.65228    38.594875    -646.0574    1170.9135    8739.8641    9.7461831   0.17341745 
  489800   -680.52514     41.21952   -639.30562    1250.5415   -2839.4108    9.5466124   0.20192712 
  489900   -677.90221    37.540129   -640.36208     1138.914   -6147.4636    9.4676087   0.24229487 
  490000   -679.82951    40.785535   -639.04397     1237.375    -12380.41    9.4302738   0.25609978 
  490100   -675.26415    43.846765   -631.41738    1330.2484    7470.5274    9.5611799   0.27703432 
  490200   -680.19251    42.643151   -637.54936    1293.7324    6567.4747    9.6340359   0.24862852 
  490300    -679.1541    38.621993   -640.53211    1171.7362    886.54951    9.5719784   0.22257802 
  490400   -683.09882    38.605579   -644.49324    1171.2383   -3989.5809    9.5828835    0.2002083 
  490500   -686.49917    37.871688   -648.62748     1148.973    2115.3366    9.7039454   0.17682463 
  490600   -682.83263    41.920729    -640.9119    1271.8152    1446.0416    9.6318279   0.20598044 
  490700   -680.64808    40.614082   -640.03399    1232.1734   -1189.8274    9.5540816   0.22508705 
  490800   -676.07231    40.571004   -635.50131    1230.8665   -4632.1129    9.4306307   0.27938953 
  490900   -677.03763    40.501027    -636.5366    1228.7435   -751.33574    9.4900797    0.2474231 
  491000   -678.71504    37.415034       -641.3    1135.1188    5479.1833    9.6166422   0.23653811 
  491100   -679.43908    39.657053   -639.78203    1203.1385    5891.3854    9.6345711   0.21067791 
  491200   -677.26944    40.412797   -636.85665    1226.0667    3574.5109    9.5608096   0.23322622 
  491300   -674.93388    41.477556   -633.45632      1258.37    621.34509     9.475134    0.2515574 
  491400   -678.70106    39.066438   -639.63462    1185.2201    2225.0807    9.5737633   0.21706867 
  491500   -680.89805    40.028537   -640.86951    1214.4088    152.60816    9.5868317   0.22683179 
  491600   -677.73591    42.379939   -635.35597     1285.747   -2122.0102    9.5031351   0.25377491 
  491700   -675.44564    41.765177   -633.68046     1267.096   -1353.9364    9.4697799   0.25853952 
  491800   -680.37892    40.231528   -640.14739    1220.5672    7332.8468    9.6544576   0.24505697 
  491900   -680.89944    41.543282   -639.35616     1260.364    1670.8464    9.6034464   0.22042131 
  492000   -679.73889    38.578092    -641.1608    1170.4043   -9810.7244    9.4551536   0.28117411 
  492100   -671.95553    38.566131    -633.3894    1170.0415    2390.4312    9.4279944   0.31295093 
  492200   -676.65915    40.933778   -635.72538    1241.8725   -9695.1772    9.4000442   0.27907065 
  492300   -681.58395    40.564032   -641.01992    1230.6549   -5.2981545    9.5847297   0.24869426 
  492400   -678.90481    38.576015   -640.32879    1170.3413    3576.2061    9.5843486   0.20678145 
  492500   -682.08812    36.711698   -645.37642    1113.7806    5926.1491    9.6696567   0.18696927 
  492600   -684.22724    37.663461   -646.56378    1142.6557    241.46788    9.6340955   0.19125404 
  492700   -680.08252    38.376262   -641.70626    1164.2811   -5158.1312    9.5033334   0.24517597 
  492800   -679.33235    40.060222   -639.27213    1215.3701   -359.82346    9.5597609   0.21025862 
  492900   -681.34341    40.714947   -640.62846    1235.2335    4089.2389    9.6397595   0.19150178 
  493000   -677.36248    43.650232   -633.71225    1324.2858    11212.134     9.640301   0.20670304 
  493100   -674.23034    38.832239    -635.3981    1178.1148    -5556.789    9.4054194   0.26326996 
  493200    -678.0719    37.146236   -640.92566    1126.9639   -3884.2592    9.4941164   0.25907441 
  493300   -677.41253     37.95244   -639.46009    1151.4229    4720.1772    9.5819047   0.22513655 
  493400   -681.51834    39.362528   -642.15581     1194.203   -9957.7144    9.4853572   0.21161994 
  493500   -684.30749    36.810446   -647.49705    1116.7765   -4933.5235    9.6001165   0.19693462 
  493600   -680.88728    40.011816   -640.87547    1213.9015    2901.2019    9.6091981   0.20320478 
  493700   -679.31013    39.898317   -639.41181    1210.4581    6324.4952    9.6282235   0.20264456 
  493800   -685.12199    41.817864   -643.30412    1268.6944    57.838697    9.6471857   0.18062021 
  493900   -687.19228    39.920407   -647.27188    1211.1283   -2939.2678    9.6652896   0.16671907 
  494000   -678.72461    39.297521   -639.42709    1192.2308   -528.30777    9.5509385   0.20785954 
  494100   -679.95654    38.973923   -640.98262    1182.4133   -3233.3747    9.5296324   0.21781544 
  494200   -681.31555    40.203655    -641.1119    1219.7216    5353.3152    9.6500236   0.19792109 
  494300   -674.17745    41.218561   -632.95889    1250.5124    4325.7871    9.5059411   0.31782941 
  494400   -677.03885     40.53412   -636.50473    1229.7474   -5578.4018     9.439694    0.2657291 
  494500   -678.29749     39.15861   -639.13888    1188.0164   -7956.9138    9.4495328   0.25678559 
  494600   -680.83142    38.791017   -642.04041    1176.8642    5059.7105    9.6417609   0.20293595 
  494700   -684.91358    40.961724   -643.95186    1242.7204    391.91206    9.6782957   0.17677716 
  494800   -677.42178     41.39971   -636.02207    1256.0082    4568.6443    9.5694786   0.24467524 
  494900   -680.25241    40.974998   -639.27741    1243.1231   -2141.4813    9.5624662    0.2287281 
  495000   -681.40595    37.350972   -644.05498    1133.1753   -789.18916    9.5956129   0.20633321 
  495100   -676.85141    38.226789   -638.62462    1159.7463   -1655.3495    9.4982315    0.2572087 
  495200   -676.59249    39.748104   -636.84439    1205.9008    3086.1623    9.5365199   0.27134564 
  495300   -683.71393    40.402659   -643.31127    1225.7591    3773.8777    9.6785802   0.19580326 
  495400   -678.13869    35.746293    -642.3924    1084.4916    4910.5646    9.6037367    0.2133333 
  495500   -677.32194    41.574836    -635.7471    1261.3213   -7870.4265    9.4185501   0.28812187 
  495600    -674.1532    36.765382   -637.38781    1115.4093    6864.2677    9.5486314    0.2646011 
  495700   -681.39954    36.835339    -644.5642    1117.5317   -3914.5167     9.552276   0.22319704 
  495800   -679.43995    38.998119   -640.44183    1183.1474    -854.1531    9.5436884   0.23131742 
  495900   -677.50882    39.461886   -638.04693    1197.2174    8028.8775    9.6065684   0.22349518 
  496000   -682.71049    37.809208   -644.90129    1147.0775   -1681.1243    9.5962039   0.18628967 
  496100   -678.79438    37.070402   -641.72398    1124.6632   -3683.4296    9.5105565   0.22440113 
  496200    -678.0688    41.268453   -636.80034    1252.0261   -2406.6675    9.5046082   0.21746403 
  496300   -680.05984    39.628218   -640.43162    1202.2637    8294.2674    9.6699653   0.22137814 
  496400   -683.56696    39.463073   -644.10389    1197.2534     6636.457    9.7219125   0.19001589 
  496500   -683.18967     36.67473   -646.51494    1112.6591    3522.4041    9.6733577   0.21257024 
  496600   -680.41139     41.47236   -638.93903    1258.2123    3159.2699    9.6024252   0.21676276 
  496700   -679.26478    39.281251   -639.98353    1191.7372   -3440.4317    9.5297664   0.24227112 
  496800   -682.64175    44.139471   -638.50228    1339.1287    3555.7908    9.6235355   0.21649367 
  496900   -678.21245    42.660457     -635.552    1294.2575    2147.5142    9.5449237   0.21714438 
  497000   -674.16594    41.953225   -632.21272    1272.8011   -1851.9917    9.4197101   0.25547666 
  497100   -675.10006    36.922764    -638.1773    1120.1841   -1289.5745    9.4718798   0.25463937 
  497200   -676.37575     35.82762   -640.54813    1086.9589   -3596.5861    9.4804798   0.25691632 
  497300   -676.94442     36.42391   -640.52051    1105.0495    6060.0308    9.5926958   0.23772412 
  497400   -674.93104    42.812905   -632.11814    1298.8825    6535.9373    9.5533281   0.26795726 
  497500   -677.46455    39.727303   -637.73724    1205.2698   -585.76407     9.521937   0.23223463 
  497600    -682.0104    40.244463   -641.76594    1220.9597   -2901.6358    9.5805738    0.2035264 
  497700   -681.29573    42.452417   -638.84332    1287.9458    6242.0739    9.6557247   0.20134337 
  497800   -675.35429    42.531007   -632.82329    1290.3301   -6.9526272     9.473595   0.25973626 
  497900   -678.13176    38.138773   -639.99299     1157.076   -6587.7217    9.4600189   0.25021244 
  498000    -680.4633    39.523085   -640.94022    1199.0741   -362.31768    9.5778733   0.23200103 
  498100   -685.85673     45.28209   -640.57464    1373.7941    -4709.335    9.5974178    0.1919819 
  498200   -686.54692    38.686067   -647.86085    1173.6802    4262.2103    9.7278888   0.16341402 
  498300   -684.51316    40.578059    -643.9351    1231.0805    2972.5301    9.6829959   0.17935771 
  498400   -679.54121    39.278541   -640.26267     1191.655   -272.31394    9.5544349   0.21797849 
  498500   -677.48342    38.495184   -638.98824     1167.889   -5812.3037     9.465422   0.22464874 
  498600   -680.15584    38.453298   -641.70255    1166.6183   -7115.2034     9.503566   0.22447325 
  498700   -684.78791    39.460433   -645.32748    1197.1733    7724.5243    9.7428416   0.18237007 
  498800   -682.31984    41.704708   -640.61513    1265.2614    8308.0429    9.6891381   0.17810572 
  498900   -680.76233    41.032598   -639.72973    1244.8706   -851.16966    9.5744816    0.2040659 
  499000   -679.93265    40.405908   -639.52674    1225.8577   -109.79641    9.5710608    0.2059534 
  499100   -675.62679    43.660635   -631.96615    1324.6014    5467.7776    9.5447204   0.23611985 
  499200   -680.16843    41.280172   -638.88825    1252.3816    -5.266764     9.572064   0.21467204 
  499300    -679.9236    38.559311   -641.36429    1169.8346   -8232.7775    9.4805852   0.24894231 
  499400   -677.62726    39.922296   -637.70497    1211.1856    3360.3247    9.5619121   0.24817733 
  499500   -674.60109    41.953192    -632.6479    1272.8001   -234.51525     9.460915   0.27177656 
  499600   -680.32647    39.708705   -640.61777    1204.7055   -5287.2396    9.5106023   0.23787996 
  499700   -680.64727    39.506433   -641.14084    1198.5689    -4434.449    9.5338859   0.23765529 
  499800   -679.01518    43.720876    -635.2943    1326.4291   -2239.6791     9.510833   0.22456699 
  499900   -678.55331    44.794784   -633.75852    1359.0099   -1296.1339    9.5154903    0.2287757 
  500000   -678.61849    38.747894    -639.8706    1175.5559   -1498.7698    9.5208925   0.23930598 
Loop time of 353.076 on 1 procs for 500000 steps with 256 atoms

Performance: 611.766 ns/day, 0.039 hours/ns, 1416.124 timesteps/s
100.0% CPU use with 1 MPI tasks x no OpenMP threads

MPI task timing breakdown:
Section |  min time  |  avg time  |  max time  |%varavg| %total
---------------------------------------------------------------
Pair    | 211.7      | 211.7      | 211.7      |   0.0 | 59.96
Neigh   | 13.516     | 13.516     | 13.516     |   0.0 |  3.83
Comm    | 3.855      | 3.855      | 3.855      |   0.0 |  1.09
Output  | 0.15162    | 0.15162    | 0.15162    |   0.0 |  0.04
Modify  | 123.03     | 123.03     | 123.03     |   0.0 | 34.85
Other   |            | 0.8156     |            |       |  0.23

Nlocal:    256 ave 256 max 256 min
Histogram: 1 0 0 0 0 0 0 0 0 0
Nghost:    1431 ave 1431 max 1431 min
Histogram: 1 0 0 0 0 0 0 0 0 0
Neighs:    11594 ave 11594 max 11594 min
Histogram: 1 0 0 0 0 0 0 0 0 0

Total # of neighbors = 11594
Ave neighs/atom = 45.2891
Neighbor list builds = 24611
Dangerous builds = 0
    
Total wall time: 0:05:53
