Header of the LAMMPS data file 

8 atoms 
2 atom types

0.0 5.427  xlo xhi
0.0 5.427  ylo yhi
0.0 5.427  zlo zhi

Masses 

1  28.085
2  6.939

Atoms # atomic 

1 1 0.00000 0.00000 0.00000 
2 1 0.00000 2.71350 2.71350 
3 1 2.71350 2.71350 0.00000 
4 1 2.71350 0.00000 2.71350 
5 1 4.07025 1.35675 4.07025 
6 1 1.35675 1.35675 1.35675 
7 1 1.35675 4.07025 4.07025 
8 1 4.07025 4.07025 1.35675 
