LAMMPS (3 Mar 2020)
Reading data file ...
  orthogonal box = (0 0 0) to (28.63 28.63 28.63)
  1 by 1 by 1 MPI processor grid
  reading atoms ...
  1372 atoms
  read_data CPU = 0.00187545 secs
Reading potential file /usr/share/lammps-stable/potentials/Ag_u3.eam with DATE: 2007-06-11
Neighbor list info ...
  update every 1 steps, delay 10 steps, check yes
  max neighbors/atom: 2000, page size: 100000
  master list distance cutoff = 7.55
  ghost atom cutoff = 7.55
  binsize = 3.775, bins = 8 8 8
  2 neighbor lists, perpetual/occasional/extra = 1 1 0
  (1) pair eam, perpetual
      attributes: half, newton on
      pair build: half/bin/atomonly/newton
      stencil: half/bin/3d/newton
      bin: standard
  (2) compute rdf, occasional, copy from (1)
      attributes: half, newton on
      pair build: copy
      stencil: none
      bin: none
Setting up Verlet run ...
  Unit style    : metal
  Current step  : 0
  Time step     : 0.001
Per MPI rank memory allocation (min/avg/max) = 3.83 | 3.83 | 3.83 Mbytes
Step PotEng KinEng TotEng Temp Press Density c_msdall[4] 
       0      -3910.2    345.57053   -3564.6295         1950    15728.603    10.472245            0 
     100   -3699.1193    191.63692   -3507.4824    1081.3769    64941.864    10.472245   0.11563073 
     200   -3655.5886    274.56644   -3381.0221    1549.3351     79899.62    10.472245   0.14899036 
     300   -3585.2056    339.51539   -3245.6902    1915.8318    100885.55    10.472245   0.19186141 
     400    -3532.034    362.00201    -3170.032    2042.7202    115368.39    10.472245   0.22959307 
     500   -3541.2568    341.95301   -3199.3038    1929.5869    111558.81    10.472245   0.23972931 
     600   -3576.4092    344.05393   -3232.3553     1941.442     103206.6    10.472245   0.22290713 
     700   -3565.5009    345.25914   -3220.2417    1948.2429    106083.31    10.472245   0.21525011 
     800   -3550.0184    344.66971   -3205.3487    1944.9168    109908.68    10.472245   0.21220219 
     900   -3556.7042    327.54533   -3229.1589    1848.2866    107597.27    10.472245    0.2161099 
    1000   -3551.3723    351.65511   -3199.7172    1984.3343    109751.09    10.472245   0.20439502 
    1100   -3562.1599    349.34666   -3212.8133    1971.3081    107174.82    10.472245   0.18930296 
    1200   -3568.7228    340.93747   -3227.7854    1923.8563     105749.8    10.472245   0.17809646 
    1300   -3558.9219    345.58499   -3213.3369    1950.0816    108211.91    10.472245   0.18447211 
    1400   -3547.5348    337.29872   -3210.2361    1903.3235    110484.52    10.472245   0.19948086 
    1500   -3554.8517    350.67063   -3204.1811     1978.779    108972.23    10.472245   0.19881094 
    1600   -3567.9952    344.65118    -3223.344    1944.8122     105573.8    10.472245   0.19834198 
    1700   -3565.2188    344.08606   -3221.1328    1941.6234    105759.48    10.472245   0.20308437 
    1800   -3551.9629    343.82166   -3208.1412    1940.1314    108701.36    10.472245   0.21236824 
    1900   -3561.8412    359.05112   -3202.7901    2026.0688    107674.13    10.472245   0.20752724 
    2000   -3565.4174    349.64161   -3215.7758    1972.9724    106309.75    10.472245   0.19169316 
    2100   -3571.7624    337.68174   -3234.0807    1905.4847    103984.11    10.472245   0.17956459 
    2200   -3563.5058    345.15411   -3218.3517    1947.6502    106695.12    10.472245   0.17695447 
    2300    -3563.007    342.72787   -3220.2791    1933.9593    106768.43    10.472245   0.17896847 
    2400   -3563.8696    347.44239   -3216.4272    1960.5626    107144.65    10.472245   0.18576909 
    2500   -3552.2008    342.92498   -3209.2758    1935.0715    109828.47    10.472245   0.19634506 
    2600   -3562.4119    350.73538   -3211.6765    1979.1444    107984.89    10.472245   0.19874405 
    2700   -3571.8757    340.88346   -3230.9923    1923.5516    104789.76    10.472245   0.19853525 
    2800   -3559.2679    340.36519   -3218.9027     1920.627     107312.7    10.472245   0.20626326 
    2900   -3546.2234    336.37477   -3209.8486    1898.1098    110321.83    10.472245   0.21884674 
    3000   -3545.1492    352.91405   -3192.2351    1991.4383    111674.81    10.472245   0.21634472 
    3100    -3560.986    348.41303    -3212.573    1966.0397    107628.62    10.472245   0.20323785 
    3200   -3556.7837    338.11223   -3218.6715     1907.914    107714.49    10.472245   0.20128309 
    3300   -3552.7995    361.46827   -3191.3312    2039.7084    110451.28    10.472245   0.20054047 
    3400   -3547.8303    341.71844   -3206.1119    1928.2633    110315.32    10.472245   0.20648913 
    3500   -3548.8421    342.11312    -3206.729    1930.4903    110640.97    10.472245   0.20294787 
    3600   -3552.3956    366.60733   -3185.7883    2068.7073    111080.48    10.472245   0.18935285 
    3700   -3571.6624    357.74529   -3213.9171    2018.7002    104653.02    10.472245   0.18128861 
    3800   -3568.5112    343.33763   -3225.1735    1937.4001    105343.13    10.472245   0.18236476 
    3900   -3557.4238    355.83989   -3201.5839    2007.9484    108534.47    10.472245   0.18940927 
    4000   -3546.4578    333.27552   -3213.1823    1880.6211    109857.94    10.472245   0.20523636 
    4100   -3557.5836    348.68931   -3208.8943    1967.5988    108296.43    10.472245    0.1974692 
    4200   -3556.8706    338.56062     -3218.31    1910.4442    107985.35    10.472245   0.18343315 
    4300   -3573.1201    339.00663   -3234.1135    1912.9609    104400.12    10.472245   0.16530462 
    4400   -3561.7482    343.31937   -3218.4288     1937.297    106940.71    10.472245   0.16320573 
    4500     -3561.59    345.27746   -3216.3126    1948.3462    107699.36    10.472245   0.17570693 
    4600   -3557.2179    348.77362   -3208.4442    1968.0745    109063.82    10.472245   0.18305309 
    4700   -3554.8651    348.28831   -3206.5768     1965.336    109034.06    10.472245   0.19023221 
    4800   -3563.4078    348.37549   -3215.0323    1965.8279    106707.29    10.472245   0.19156122 
    4900   -3567.0606    339.30567   -3227.7549    1914.6483     105495.3    10.472245   0.18889217 
    5000   -3559.1385    349.95811   -3209.1804    1974.7584    108072.23    10.472245   0.18466657 
    5100   -3559.1795     343.9869   -3215.1926    1941.0638    107260.65    10.472245   0.18569658 
    5200   -3573.5611    345.97219   -3227.5889    1952.2665    104236.99    10.472245      0.17751 
    5300   -3564.5569    346.58034   -3217.9765    1955.6982       106293    10.472245   0.18046702 
    5400   -3556.4723    337.12686   -3219.3455    1902.3537    107773.15    10.472245   0.18510918 
    5500   -3558.8483    353.42668   -3205.4216     1994.331    108053.13    10.472245   0.18700077 
    5600   -3558.1769    338.42519   -3219.7517      1909.68    107285.72    10.472245     0.187282 
    5700   -3565.2822    350.55136   -3214.7309     1978.106    106510.14    10.472245   0.18356609 
    5800   -3574.4868    346.35508   -3228.1317    1954.4271     103940.2    10.472245   0.18451694 
    5900   -3570.6811    351.15501   -3219.5261    1981.5123    105107.54    10.472245   0.19220803 
    6000   -3550.9737    340.09108   -3210.8827    1919.0803    110089.59    10.472245   0.20662601 
    6100    -3543.292     357.0992   -3186.1928    2015.0545    111875.68    10.472245   0.21244502 
    6200   -3552.8048    348.30043   -3204.5043    1965.4044    109427.32    10.472245   0.20505714 
    6300   -3561.5748    351.97816   -3209.5967    1986.1572    107706.31    10.472245   0.18876516 
    6400   -3571.3012     336.6303   -3234.6709    1899.5517    104073.72    10.472245   0.17297472 
    6500   -3585.0586    356.45056   -3228.6081    2011.3943    101856.27    10.472245   0.16563377 
    6600   -3551.9368    341.21803   -3210.7188    1925.4395    109526.24    10.472245   0.18844524 
    6700   -3556.6236    349.11263    -3207.511    1969.9875    109369.48    10.472245    0.1933381 
    6800   -3569.0429    344.86522   -3224.1777      1946.02    105680.15    10.472245   0.18806787 
    6900   -3566.4175    338.48914   -3227.9284    1910.0408    105611.52    10.472245    0.1906146 
    7000   -3563.1033    352.45296   -3210.6503    1988.8365    107249.97    10.472245   0.19803255 
    7100   -3553.8674    341.99295   -3211.8745    1929.8122     109082.7    10.472245   0.20781739 
    7200   -3550.4129    349.27755   -3201.1354    1970.9181    110040.47    10.472245   0.20579155 
    7300   -3566.3129    351.61795    -3214.695    1984.1246    106589.76    10.472245   0.19716911 
    7400   -3573.2104    332.59585   -3240.6145    1876.7859    103073.28    10.472245   0.19376125 
    7500   -3568.4923    332.98188   -3235.5104    1878.9642    105493.77    10.472245   0.19730455 
    7600    -3559.019    349.87428   -3209.1447    1974.2853    108577.94    10.472245   0.19978262 
    7700   -3559.2351    361.82039   -3197.4148    2041.6954    109146.18    10.472245   0.19524811 
    7800   -3566.4266     345.6722   -3220.7544    1950.5737    105286.72    10.472245   0.19303385 
    7900   -3557.7171    336.65532   -3221.0618    1899.6929    107511.99    10.472245   0.19918626 
    8000   -3546.6522    349.92383   -3196.7284    1974.5649    111372.07    10.472245   0.21014073 
    8100   -3553.9417    345.35753   -3208.5842     1948.798    109469.25    10.472245   0.21508393 
    8200    -3557.314     338.9189   -3218.3951    1912.4658    108558.83    10.472245   0.21816446 
    8300   -3554.7407    346.88144   -3207.8593    1957.3972    108894.13    10.472245   0.21170773 
    8400   -3562.1477     340.7698   -3221.3779    1922.9102    106341.48    10.472245   0.20080114 
    8500   -3575.2084    350.57498   -3224.6334    1978.2393    104370.95    10.472245   0.18554084 
    8600   -3570.7652    336.22374   -3234.5415    1897.2575     104594.6    10.472245    0.1851694 
    8700   -3561.6378     352.2338    -3209.404    1987.5997    107137.99    10.472245   0.18969204 
    8800   -3563.9751    358.91903   -3205.0561    2025.3234    107084.18    10.472245   0.19266517 
    8900   -3572.8614    348.09196   -3224.7695     1964.228     105152.8    10.472245   0.19231854 
    9000   -3557.3761    337.17956   -3220.1966    1902.6511    107649.84    10.472245    0.1957065 
    9100   -3553.1179    352.29416   -3200.8237    1987.9404    110052.69    10.472245   0.20365832 
    9200   -3564.8026    340.35093   -3224.4517    1920.5466    105916.56    10.472245    0.1981298 
    9300   -3575.9313    341.44294   -3234.4884    1926.7087    103286.63    10.472245   0.18619753 
    9400    -3557.948    347.55354   -3210.3944    1961.1898    107776.97    10.472245   0.18640836 
    9500    -3566.354    343.47313   -3222.8808    1938.1647    105813.86    10.472245   0.19184176 
    9600   -3561.4076    344.37755   -3217.0301    1943.2682    106837.76    10.472245   0.19551968 
    9700   -3560.0421       346.82   -3213.2221    1957.0505    107140.43    10.472245   0.19612519 
    9800   -3557.9245      347.519   -3210.4055    1960.9949       108252    10.472245   0.19280394 
    9900   -3559.9101    334.15889   -3225.7513    1885.6059    107357.85    10.472245   0.20025798 
   10000   -3553.3934    354.65346     -3198.74    2001.2535    109233.73    10.472245   0.20085681 
Loop time of 38.2661 on 1 procs for 10000 steps with 1372 atoms

Performance: 22.579 ns/day, 1.063 hours/ns, 261.328 timesteps/s
100.0% CPU use with 1 MPI tasks x no OpenMP threads

MPI task timing breakdown:
Section |  min time  |  avg time  |  max time  |%varavg| %total
---------------------------------------------------------------
Pair    | 23.979     | 23.979     | 23.979     |   0.0 | 62.66
Neigh   | 0.43249    | 0.43249    | 0.43249    |   0.0 |  1.13
Comm    | 0.18328    | 0.18328    | 0.18328    |   0.0 |  0.48
Output  | 0.0049387  | 0.0049387  | 0.0049387  |   0.0 |  0.01
Modify  | 13.591     | 13.591     | 13.591     |   0.0 | 35.52
Other   |            | 0.07537    |            |       |  0.20

Nlocal:    1372 ave 1372 max 1372 min
Histogram: 1 0 0 0 0 0 0 0 0 0
Nghost:    3265 ave 3265 max 3265 min
Histogram: 1 0 0 0 0 0 0 0 0 0
Neighs:    70635 ave 70635 max 70635 min
Histogram: 1 0 0 0 0 0 0 0 0 0

Total # of neighbors = 70635
Ave neighs/atom = 51.4832
Neighbor list builds = 141
Dangerous builds = 0
Total wall time: 0:00:38
