LAMMPS (3 Mar 2020)

    # ---------- Initialize simulation ---------------------
    units metal
    atom_style atomic
    dimension  3
    boundary   p p p
    read_data /home/modeler/RemLabs/Lab4/Problem2A_v1_size_3/temp_2200/lammps.data
  orthogonal box = (0 0 0) to (12.27 12.27 12.27)
  1 by 1 by 1 MPI processor grid
  reading atoms ...
  108 atoms
  read_data CPU = 0.000879418 secs

    pair_style eam
    pair_coeff * * /usr/share/lammps-stable/potentials/Ag_u3.eam
Reading potential file /usr/share/lammps-stable/potentials/Ag_u3.eam with DATE: 2007-06-11

    velocity  all create 2200 87287 dist gaussian

    # ---------- Describe computed properties------------------
    compute msdall all msd
    thermo_style custom step pe ke etotal temp press density c_msdall[4]
    thermo 100

    # ---------- Specify ensemble  ---------------------
    #fix  1 all nve
    fix  1 all nvt temp 2200 2200 0.25

    # --------- Compute RDF ---------------
    compute rdfall all rdf 100 1 1
    fix 2 all ave/time 1 125000 125000 c_rdfall[*] file /home/modeler/RemLabs/Lab4/Problem2A_v1_size_3/temp_2200/lammps.rdf mode vector

    # --------- Run -------------
    timestep 0.005
    run 500000
Neighbor list info ...
  update every 1 steps, delay 10 steps, check yes
  max neighbors/atom: 2000, page size: 100000
  master list distance cutoff = 7.55
  ghost atom cutoff = 7.55
  binsize = 3.775, bins = 4 4 4
  2 neighbor lists, perpetual/occasional/extra = 1 1 0
  (1) pair eam, perpetual
      attributes: half, newton on
      pair build: half/bin/atomonly/newton
      stencil: half/bin/3d/newton
      bin: standard
  (2) compute rdf, occasional, copy from (1)
      attributes: half, newton on
      pair build: copy
      stencil: none
      bin: none
Per MPI rank memory allocation (min/avg/max) = 3.723 | 3.723 | 3.723 Mbytes
Step PotEng KinEng TotEng Temp Press Density c_msdall[4] 
       0       -307.8    30.427838   -277.37216         2200    17593.615    10.472245            0 
     100   -288.29726    22.209657   -266.08761    1605.8074    80280.896    10.472245    0.1075408 
     200   -277.31318      28.2912   -249.02198    2045.5163       117429    10.472245   0.14716074 
     300   -274.56987    34.359006   -240.21087    2484.2321    129779.24    10.472245   0.24190688 
     400   -276.63618    28.830555   -247.80562    2084.5129    119774.65    10.472245   0.20939288 
     500   -276.36266    27.646283   -248.71638    1998.8874    120970.23    10.472245     0.171652 
     600    -275.0503    32.918393   -242.13191    2380.0726    127916.44    10.472245   0.21256002 
     700   -278.29186    32.514625   -245.77723    2350.8793    116698.99    10.472245    0.1779951 
     800   -277.29345    27.988058   -249.30539    2023.5985    118694.34    10.472245   0.20409378 
     900   -277.02344    33.955865   -243.06757    2455.0842       120542    10.472245   0.20213556 
    1000   -281.11288    30.420348   -250.69253    2199.4585    107449.59    10.472245   0.16768268 
    1100   -274.62339    25.773798   -248.84959    1863.5026    126517.51    10.472245   0.23475821 
    1200   -276.42866    33.012765    -243.4159    2386.8959    121264.02    10.472245   0.15634858 
    1300   -277.43484     28.41089   -249.02395    2054.1702    119434.75    10.472245   0.18303411 
    1400    -274.3671    30.372743   -243.99436    2196.0165    128302.35    10.472245   0.22343463 
    1500   -270.90385    28.189902   -242.71395    2038.1923    136847.31    10.472245   0.22419956 
    1600   -279.86827    31.205689   -248.66258    2256.2403    111861.32    10.472245   0.18570279 
    1700   -276.41738    32.508241   -243.90914    2350.4178    123537.44    10.472245   0.19049294 
    1800   -272.43826    32.537345   -239.90092     2352.522    134061.69    10.472245   0.20952914 
    1900   -275.73108    28.330639   -247.40044    2048.3679    121073.21    10.472245    0.1882045 
    2000   -276.69342    28.124547   -248.56887    2033.4669    121116.35    10.472245   0.17162797 
    2100   -275.50789    35.656501   -239.85139    2578.0439    129876.46    10.472245   0.22527538 
    2200   -277.77153    30.803736    -246.9678    2227.1782    118066.61    10.472245   0.19189001 
    2300   -277.95832    31.101474   -246.85684    2248.7054    116949.32    10.472245   0.16987915 
    2400   -275.91327    35.620062   -240.29321    2575.4092    122707.05    10.472245   0.20511172 
    2500   -277.71893    32.711754   -245.00717    2365.1322    117364.18    10.472245   0.16999109 
    2600   -279.95893    32.019358   -247.93957    2315.0704    111180.44    10.472245   0.15421008 
    2700   -273.04572    29.562305   -243.48342    2137.4201    134077.88    10.472245   0.21628204 
    2800   -276.64947    36.948632   -239.70084    2671.4678     124234.9    10.472245   0.22158933 
    2900   -279.49737    30.353974    -249.1434    2194.6594    112579.46    10.472245   0.16830332 
    3000   -277.28737    33.009519   -244.27785    2386.6613    118055.08    10.472245   0.16765738 
    3100   -273.85871    35.084964   -238.77375    2536.7205    131918.42    10.472245   0.20887263 
    3200   -274.40092    25.851608   -248.54931    1869.1284     124127.4    10.472245   0.19973642 
    3300   -276.52165    29.104178   -247.41747    2104.2964    120411.47    10.472245   0.20528398 
    3400   -274.41149    34.481158   -239.93034     2493.064    131372.43    10.472245   0.19393735 
    3500   -275.28857    29.493814   -245.79476     2132.468    124479.16    10.472245     0.213927 
    3600   -274.69572    27.422189   -247.27353    1982.6849     123807.4    10.472245   0.18594757 
    3700   -280.64517    28.291439   -252.35374    2045.5336    108692.69    10.472245   0.13194666 
    3800   -275.88342    29.520152   -246.36327    2134.3723    125338.43    10.472245   0.20001932 
    3900   -276.51048      31.7758   -244.73468    2297.4606    121505.31    10.472245   0.19849344 
    4000   -279.96607    27.125729   -252.84034    1961.2502     108553.4    10.472245   0.16273119 
    4100   -276.71988    32.116523   -244.60336    2322.0957    120215.93    10.472245   0.17108766 
    4200   -274.12853    28.610689   -245.51784    2068.6161    125778.72    10.472245    0.1925741 
    4300    -278.1077     29.12389   -248.98381    2105.7217    117147.46    10.472245   0.18530276 
    4400   -273.75876    33.989603   -239.76916    2457.5235    131009.05    10.472245   0.23392262 
    4500   -275.00835    32.065569   -242.94278    2318.4116    127283.73    10.472245    0.1835656 
    4600   -276.75429    29.507917   -247.24638    2133.4876    122136.38    10.472245   0.19626006 
    4700    -277.8756     30.33555   -247.54005    2193.3273    117062.16    10.472245   0.19788185 
    4800   -276.65224     34.11808   -242.53416    2466.8127    122187.19    10.472245   0.23772284 
    4900   -273.37571    27.336172   -246.03954    1976.4657    127845.31    10.472245   0.22983792 
    5000   -278.42407    27.337945   -251.08613    1976.5939    115336.85    10.472245    0.1553696 
    5100   -275.79161    34.818838   -240.97277     2517.479    128945.18    10.472245   0.17226738 
    5200    -276.6714    31.113154   -245.55825    2249.5498    121669.73    10.472245   0.20301691 
    5300   -279.71782    30.046261   -249.67156    2172.4111    111086.12    10.472245   0.16725907 
    5400   -276.00675    34.311091   -241.69566    2480.7678    124913.99    10.472245   0.22417502 
    5500   -275.62967    30.564613   -245.06506    2209.8891    122997.07    10.472245   0.24999141 
    5600   -280.17826     30.64359   -249.53466    2215.5993    109111.95    10.472245   0.16133522 
    5700   -276.82249    29.542584   -247.27991    2135.9942    119690.27    10.472245   0.17601072 
    5800   -276.66926    35.089018   -241.58024    2537.0136    123116.92    10.472245   0.18945705 
    5900   -276.83538    30.554465   -246.28092    2209.1554    119040.93    10.472245   0.19787686 
    6000   -276.70221    27.853486   -248.84873    2013.8686    122001.98    10.472245   0.18517723 
    6100   -273.07361    31.529877   -241.54374    2279.6799    128820.14    10.472245   0.22765996 
    6200    -273.0634    35.044757   -238.01864    2533.8135    133306.71    10.472245   0.21351789 
    6300    -276.0107    29.157039   -246.85366    2108.1184    121531.69    10.472245   0.24347587 
    6400   -280.19141    32.533933   -247.65747    2352.2753    110483.79    10.472245   0.16652937 
    6500   -278.39322    33.460858   -244.93237    2419.2941    117887.95    10.472245    0.1637873 
    6600    -272.5013      27.2871   -245.21421    1972.9177    133971.39    10.472245   0.23870241 
    6700   -281.23241    30.768021   -250.46439     2224.596    106279.08    10.472245   0.15154455 
    6800   -274.05647    32.830576   -241.22589    2373.7233    130721.91    10.472245   0.20833432 
    6900   -276.85596    28.966783   -247.88918    2094.3625    116735.37    10.472245   0.18228384 
    7000   -280.10558    33.148185    -246.9574    2396.6871    112730.56    10.472245   0.14797064 
    7100   -271.16483    32.297938   -238.86689    2335.2124    141650.92    10.472245   0.32512313 
    7200    -277.6031    32.709256   -244.89384    2364.9516    118883.97    10.472245   0.18751668 
    7300   -278.05258    29.626767   -248.42581    2142.0808    116763.12    10.472245   0.17823486 
    7400     -273.746    27.101899    -246.6441    1959.5272     127867.7    10.472245   0.20990017 
    7500   -274.52466    33.009482   -241.51518    2386.6586     127576.6    10.472245   0.24680473 
    7600   -280.11071    29.871052   -250.23965    2159.7431    108655.49    10.472245   0.18337417 
    7700   -275.98502    28.189412   -247.79561    2038.1569    120375.51    10.472245   0.23791165 
    7800   -274.48897    30.275547   -244.21342     2188.989    128116.27    10.472245   0.21146636 
    7900   -277.98442    26.252324    -251.7321    1898.1011    112395.99    10.472245   0.17032077 
    8000   -278.69935    29.204364   -249.49499    2111.5401       114309    10.472245   0.18238977 
    8100   -276.31415    30.348275   -245.96588    2194.2474    123479.51    10.472245   0.17747855 
    8200   -278.52556    31.075506   -247.45006    2246.8278    115474.56    10.472245   0.16560509 
    8300   -279.77841    28.442573   -251.33583     2056.461    108002.58    10.472245   0.18039627 
    8400   -276.09628    32.443282     -243.653     2345.721    123945.57    10.472245    0.1804376 
    8500   -278.54283    31.487365   -247.05546    2276.6061    114670.31    10.472245   0.18721664 
    8600   -283.20446    28.998827   -254.20563    2096.6793    98239.222    10.472245     0.160599 
    8700   -277.77564    29.618664   -248.15698    2141.4949    114280.51    10.472245   0.19235964 
    8800    -277.3915    34.429902    -242.9616    2489.3581    120673.53    10.472245   0.19351414 
    8900   -279.13652    31.023897   -248.11262    2243.0964    111703.41    10.472245   0.18053932 
    9000   -278.90207    29.664069     -249.238    2144.7778    112966.13    10.472245   0.15725113 
    9100   -277.23925    33.024163   -244.21508      2387.72    119607.83    10.472245   0.16381513 
    9200   -275.20274    29.623271   -245.57947     2141.828    124470.26    10.472245    0.2035386 
    9300   -280.67731    30.641658   -250.03565    2215.4596    107919.11    10.472245   0.19723585 
    9400   -278.41902     29.06361   -249.35541    2101.3633    117915.09    10.472245   0.18331057 
    9500   -276.05379    31.535889    -244.5179    2280.1145    123565.91    10.472245   0.20525121 
    9600   -277.31144    26.444207   -250.86724    1911.9746    117700.62    10.472245   0.17650914 
    9700   -275.22297    31.900536   -243.32244    2306.4793     125735.1    10.472245   0.18575392 
    9800   -277.01904    32.104261   -244.91478    2321.2091    119014.13    10.472245   0.19510564 
    9900   -280.95445    30.634131   -250.32032    2214.9154    108017.63    10.472245   0.13232328 
   10000   -272.47383    31.407046   -241.06679    2270.7989    134778.25    10.472245   0.23583643 
   10100    -278.4032    32.515674   -245.88752    2350.9552    115478.59    10.472245   0.16827764 
   10200   -278.10189    29.711488    -248.3904    2148.2063    114152.82    10.472245   0.17343403 
   10300   -273.20335    32.096745    -241.1066    2320.6656    131565.48    10.472245   0.23549348 
   10400   -273.16147    30.842716   -242.31876    2229.9966    132916.85    10.472245   0.17322922 
   10500   -279.00108    31.983586    -247.0175     2312.484    117287.05    10.472245   0.16375796 
   10600   -277.88163    29.764777   -248.11685    2152.0592    115976.84    10.472245   0.16050804 
   10700   -277.98957    35.407061   -242.58251    2560.0088    118920.63    10.472245   0.15803908 
   10800   -275.60985    27.913746    -247.6961    2018.2256    122979.21    10.472245    0.1986213 
   10900   -278.91296    28.733125   -250.17984    2077.4685    111365.19    10.472245   0.16622188 
   11000   -275.37573     29.33153    -246.0442    2120.7345    122398.76    10.472245    0.2144969 
   11100   -276.52577     32.40612   -244.11965    2343.0342    121329.44    10.472245   0.22238491 
   11200   -279.30467    30.761146   -248.54352    2224.0989    110752.15    10.472245   0.15206698 
   11300   -279.46697    28.181182   -251.28578    2037.5618    111816.14    10.472245   0.17541045 
   11400   -276.84348    31.221242   -245.62224    2257.3649    120506.01    10.472245   0.17370253 
   11500   -276.66439     27.90848   -248.75591    2017.8448     119681.7    10.472245   0.17193322 
   11600   -279.25545    25.867362   -253.38808    1870.2675     109929.1    10.472245   0.19015001 
   11700   -277.10556    31.118737   -245.98682    2249.9535    118753.86    10.472245   0.15693746 
   11800   -277.72127    31.547853   -246.17341    2280.9796    118687.33    10.472245   0.20335338 
   11900   -274.79646    33.674844   -241.12161    2434.7657    127860.78    10.472245   0.21583446 
   12000   -275.37286    30.318474   -245.05439    2192.0927    122357.95    10.472245   0.22832566 
   12100   -276.15058    28.888779    -247.2618    2088.7226    121306.55    10.472245   0.22176799 
   12200   -274.65077    31.439018   -243.21175    2273.1105    124710.37    10.472245   0.21727077 
   12300   -272.17831    32.338271   -239.84004    2338.1285    130215.78    10.472245   0.24987142 
   12400   -276.87746    28.282828   -248.59463     2044.911    118215.58    10.472245   0.20645169 
   12500   -278.60548    33.663737   -244.94174    2433.9627    116173.12    10.472245    0.1601321 
   12600   -274.05711    36.265353   -237.79176    2622.0653    132661.05    10.472245   0.20671248 
   12700   -279.76785    32.017187   -247.75066    2314.9135    111465.99    10.472245   0.16657402 
   12800   -276.20349     28.35018   -247.85331    2049.7807    121331.38    10.472245   0.17592467 
   12900   -272.37776     31.61441   -240.76335    2285.7918       132786    10.472245   0.18143065 
   13000    -277.1267    28.066641   -249.06005    2029.2802     117738.4    10.472245   0.14369132 
   13100   -278.84172    31.488913   -247.35281    2276.7181    114033.82    10.472245   0.15851479 
   13200   -274.72286    31.759882   -242.96298    2296.3097     128965.8    10.472245   0.21579395 
   13300   -280.18127    28.197673    -251.9836    2038.7541    107910.66    10.472245    0.1705269 
   13400   -275.51578    29.917963   -245.59781    2163.1349    122996.26    10.472245   0.24748361 
   13500    -273.4826    30.563771   -242.91883    2209.8283    129504.92    10.472245   0.22809784 
   13600    -273.0076    26.598736   -246.40887    1923.1474    128788.55    10.472245   0.22650061 
   13700   -276.25893    29.526062   -246.73287    2134.7996    120866.66    10.472245   0.15922997 
   13800   -278.74986    31.800851     -246.949    2299.2719    113908.65    10.472245   0.16930069 
   13900   -274.59468    33.574086   -241.02059    2427.4807    128206.81    10.472245   0.22907877 
   14000   -275.54581    27.350318    -248.1955    1977.4885    122513.12    10.472245   0.19893507 
   14100   -278.92498    31.764892   -247.16009     2296.672    114781.27    10.472245   0.17822857 
   14200   -274.83611    36.016234   -238.81987    2604.0533    130889.29    10.472245   0.21112845 
   14300   -268.89012    32.623117     -236.267    2358.7235    142250.74    10.472245   0.23444112 
   14400   -280.21019    32.118118   -248.09207     2322.211    109761.06    10.472245   0.18111994 
   14500   -278.00765    30.148458   -247.85919    2179.8002    114725.91    10.472245   0.18677733 
   14600   -274.95379    33.925035   -241.02876    2452.8551    130435.21    10.472245   0.22287557 
   14700   -280.65158    30.093754   -250.55783     2175.845    110280.66    10.472245   0.17260345 
   14800   -279.69902    31.337806   -248.36121    2265.7927    111498.09    10.472245   0.15722875 
   14900   -278.02503    34.085091   -243.93994    2464.4275    120037.67    10.472245   0.17460995 
   15000   -273.31579    27.624812   -245.69098     1997.335    129328.58    10.472245    0.2614474 
   15100   -276.47155    31.098546   -245.37301    2248.4936    121275.65    10.472245   0.18667019 
   15200   -278.38603    24.757543   -253.62849    1790.0251    112534.46    10.472245   0.20358738 
   15300   -275.06944    28.991772   -246.07767    2096.1693    126082.01    10.472245   0.16338524 
   15400   -275.08387    28.598093   -246.48578    2067.7054    123155.37    10.472245   0.25232112 
   15500    -278.3544    28.564625   -249.78978    2065.2856    114401.71    10.472245   0.18742006 
   15600   -276.77119    30.136506   -246.63469     2178.936    120990.66    10.472245    0.1807696 
   15700   -276.23197    33.007128   -243.22484    2386.4883    122165.45    10.472245   0.18665219 
   15800   -279.95572    28.754613   -251.20111    2079.0221    108817.05    10.472245   0.16260207 
   15900   -275.86808    27.032541   -248.83554    1954.5125    121178.36    10.472245   0.19864169 
   16000   -275.61738    31.997129   -243.62025    2313.4632    123620.44    10.472245    0.1904866 
   16100   -280.21051    29.756076   -250.45443    2151.4301    107999.69    10.472245   0.14957458 
   16200   -275.93699    27.023953   -248.91304    1953.8916    120752.39    10.472245   0.18585204 
   16300   -273.58785    29.500786   -244.08706    2132.9721    128713.44    10.472245   0.21367469 
   16400   -279.67277     31.62222   -248.05055    2286.3564    111940.27    10.472245   0.15040576 
   16500   -280.44399    25.886654   -254.55734    1871.6623    106461.81    10.472245    0.1741309 
   16600   -277.37163    33.367046   -244.00458    2412.5112    120938.54    10.472245   0.20855449 
   16700   -273.40051    26.996422   -246.40408     1951.901    126613.83    10.472245   0.22394267 
   16800    -278.2333    26.079353   -252.15395    1885.5949    111327.22    10.472245   0.19016357 
   16900   -275.75863    33.058627       -242.7    2390.2118    124850.29    10.472245   0.19465739 
   17000   -277.02652    29.557438   -247.46908    2137.0681    115898.07    10.472245   0.17863631 
   17100   -280.63593    31.091282   -249.54465    2247.9685    108225.31    10.472245   0.18958887 
   17200   -277.03452    34.843558   -242.19096    2519.2663    122778.99    10.472245   0.19262457 
   17300   -276.87808    26.925831   -249.95224    1946.7971    118092.35    10.472245   0.21415094 
   17400   -276.94973    32.698334   -244.25139    2364.1619    120198.63    10.472245   0.20148588 
   17500   -271.31172    31.236987   -240.07473    2258.5033    135962.12    10.472245   0.31727323 
   17600   -280.56513    30.029591   -250.53554    2171.2058    106143.13    10.472245   0.20846424 
   17700   -275.51061    32.164523   -243.34609    2325.5662    125393.15    10.472245   0.19356117 
   17800   -278.96678    31.647347   -247.31944    2288.1732    114888.82    10.472245   0.16903451 
   17900   -280.83474    30.926443    -249.9083    2236.0502    107616.33    10.472245   0.14965145 
   18000    -276.7045    31.587203    -245.1173    2283.8246    120760.21    10.472245   0.17870917 
   18100    -273.0125    26.574893   -246.43761    1921.4235    130351.59    10.472245   0.23018989 
   18200   -275.37945    27.237521   -248.14193     1969.333    118048.92    10.472245   0.23127203 
   18300   -279.94878    31.547186    -248.4016    2280.9313    110363.37    10.472245   0.21910051 
   18400   -273.13181    30.009104   -243.12271    2169.7246     131141.1    10.472245   0.23001625 
   18500   -279.13814    27.872345    -251.2658    2015.2322    111533.48    10.472245   0.22118873 
   18600   -281.10243    32.288338   -248.81409    2334.5183    108557.42    10.472245   0.15695405 
   18700   -276.93429    33.267398   -243.66689    2405.3065    118778.49    10.472245   0.19301589 
   18800   -271.79499    34.775184   -237.01981    2514.3228    138654.01    10.472245   0.27147526 
   18900   -276.39013    29.681196   -246.70893    2146.0161    121201.86    10.472245   0.19345008 
   19000   -275.83681    26.669968   -249.16684    1928.2977     118720.4    10.472245   0.20150226 
   19100   -273.22241    32.547916   -240.67449    2353.2863    132589.76    10.472245   0.22005216 
   19200   -275.71788    30.797267   -244.92062    2226.7105    123114.84    10.472245   0.27192396 
   19300   -275.68284    28.939913   -246.74293    2092.4198    121107.14    10.472245   0.19991843 
   19400   -276.78735    30.317832   -246.46952    2192.0463    120162.45    10.472245   0.21887305 
   19500   -278.14573    31.442731     -246.703     2273.379    114232.42    10.472245   0.21393211 
   19600   -281.98839    31.716916   -250.27147    2293.2032    104906.03    10.472245   0.16762914 
   19700   -277.68794    30.758416   -246.92953    2223.9015     116858.9    10.472245   0.18896987 
   19800   -278.16724    34.081063   -244.08618    2464.1362    118575.35    10.472245    0.1669872 
   19900   -278.65253    29.759059   -248.89347    2151.6458    112021.82    10.472245   0.18712837 
   20000    -278.8861     32.20535   -246.68075    2328.5181    113399.79    10.472245   0.17360898 
   20100   -276.03285    36.087866   -239.94498    2609.2325    124971.05    10.472245   0.25607887 
   20200   -272.11389    28.248228   -243.86566    2042.4093    132100.88    10.472245   0.24592091 
   20300   -278.10688    31.173228   -246.93365    2253.8933    116835.71    10.472245   0.21262413 
   20400   -270.85583    28.366484   -242.48935    2050.9595    136610.15    10.472245   0.23189663 
   20500    -278.7441    28.767496   -249.97661    2079.9536    113977.24    10.472245   0.17808083 
   20600   -277.33478    29.122712   -248.21207    2105.6365    118047.43    10.472245   0.19696059 
   20700   -273.95901     28.97949   -244.97952    2095.2812    129111.11    10.472245   0.27341981 
   20800   -274.68127    27.687476   -246.99379    2001.8658     122781.8    10.472245   0.17785807 
   20900   -282.56597    29.234977     -253.331    2113.7535    99529.302    10.472245   0.14207623 
   21000    -276.7236     29.03804   -247.68556    2099.5145    117457.19    10.472245   0.25297617 
   21100   -275.73411    31.437324   -244.29678    2272.9881    124260.66    10.472245   0.22749687 
   21200   -281.22856    32.891515   -248.33705    2378.1293    106937.93    10.472245   0.14660919 
   21300   -280.56433    28.017482   -252.54685    2025.7259    107541.22    10.472245   0.13904897 
   21400   -276.62752    32.677739   -243.94978    2362.6728    124651.15    10.472245   0.17895282 
   21500   -276.56895    28.391522   -248.17743    2052.7698    119025.87    10.472245   0.16347266 
   21600   -281.51841    25.614425   -255.90398    1851.9796    102618.54    10.472245   0.15415276 
   21700   -276.14895    28.640299   -247.50865     2070.757    121958.52    10.472245   0.19464649 
   21800   -277.58565    33.666204   -243.91944     2434.141    120339.09    10.472245   0.23907132 
   21900   -278.89163    31.727285   -247.16435    2293.9529    115132.61    10.472245   0.16227011 
   22000    -278.4385    26.965042   -251.47346    1949.6322    112012.67    10.472245   0.16806609 
   22100   -272.11683    29.731968   -242.38486     2149.687    133226.88    10.472245   0.21822015 
   22200    -277.1366    30.310985   -246.82561    2191.5512    118898.46    10.472245   0.22093258 
   22300   -282.18119    29.712945   -252.46824    2148.3116    102608.22    10.472245   0.16209117 
   22400   -279.63393    30.004001   -249.62993    2169.3556    110635.71    10.472245   0.20123887 
   22500   -277.98747    34.178909   -243.80857    2471.2107    120056.31    10.472245   0.19006046 
   22600   -276.73745    28.404072   -248.33338    2053.6772    118240.01    10.472245   0.20022466 
   22700   -279.41233    30.034483   -249.37784    2171.5595     110993.8    10.472245   0.13695451 
   22800   -275.80812    33.165961   -242.64216    2397.9724    126570.58    10.472245   0.17795959 
   22900    -275.2875    25.785135   -249.50237    1864.3223    121599.84    10.472245   0.21375855 
   23000   -276.55093    31.396713   -245.15422    2270.0518    119684.63    10.472245   0.19930838 
   23100    -272.3788    37.671202    -234.7076    2723.7113     140862.4    10.472245   0.25560317 
   23200   -274.12707    28.981536   -245.14553    2095.4292    128295.02    10.472245   0.21169348 
   23300   -279.41583    30.287667   -249.12817    2189.8653    112584.37    10.472245    0.1720004 
   23400   -275.71411    33.868879   -241.84523    2448.7949    126161.09    10.472245   0.17455527 
   23500   -272.23885    27.785689   -244.45316    2008.9668    131153.13    10.472245    0.2667274 
   23600   -278.51889    32.059454   -246.45944    2317.9694    115476.98    10.472245   0.15330802 
   23700   -278.73499    32.513231   -246.22176    2350.7785    116304.07    10.472245   0.17178154 
   23800   -275.99888    30.851474    -245.1474    2230.6298    125284.67    10.472245   0.20870997 
   23900   -275.76382    31.860171   -243.90364    2303.5608    125183.09    10.472245    0.1946884 
   24000   -279.62328     29.76802   -249.85526    2152.2937    108855.36    10.472245    0.1744326 
   24100   -275.30112    26.910311   -248.39081     1945.675    122744.26    10.472245    0.1939624 
   24200    -273.9202    29.889337   -244.03086    2161.0652    128182.93    10.472245   0.17733581 
   24300   -278.00909    27.721507   -250.28758    2004.3263    115679.84    10.472245   0.18149902 
   24400   -270.70674    30.150775   -240.55596    2179.9677    139380.22    10.472245   0.22243941 
   24500   -276.77394    32.228348   -244.54559    2330.1808    118399.24    10.472245   0.20094355 
   24600   -276.54878    27.367132   -249.18165    1978.7042    118386.18    10.472245   0.21027369 
   24700   -274.24623    33.698353   -240.54788    2436.4655    130205.82    10.472245   0.19029945 
   24800   -276.44814    31.945547    -244.5026    2309.7337     120890.5    10.472245   0.21826309 
   24900   -277.26806    29.236864   -248.03119    2113.8899     116597.7    10.472245   0.19655412 
   25000   -276.47696    29.886879   -246.59009    2160.8874    120131.48    10.472245   0.18650037 
   25100   -273.94555    32.341759   -241.60379    2338.3807    128827.71    10.472245   0.19695242 
   25200    -277.8289    27.609492   -250.21941    1996.2274     114352.7    10.472245   0.18757164 
   25300   -275.06617    29.900075   -245.16609    2161.8416     123617.6    10.472245    0.2407158 
   25400   -273.56119    34.830059   -238.73113    2518.2903     131402.5    10.472245   0.20991387 
   25500   -279.04154    31.024655   -248.01689    2243.1512    114623.79    10.472245    0.1829788 
   25600   -276.67006    30.748964    -245.9211    2223.2181    118958.91    10.472245    0.1627152 
   25700   -272.27717    28.585189   -243.69199    2066.7724    131247.58    10.472245   0.21093395 
   25800   -278.45747    27.118523   -251.33895    1960.7292    112932.25    10.472245   0.16914252 
   25900   -275.77006    31.269458   -244.50061     2260.851    124992.74    10.472245   0.19993592 
   26000   -272.75249    28.221515   -244.53098    2040.4779    131226.55    10.472245   0.21659969 
   26100   -279.83965    25.921734   -253.91792    1874.1987    107741.68    10.472245   0.18818106 
   26200   -277.62082    31.402853   -246.21797    2270.4958     119227.3    10.472245    0.1721967 
   26300   -278.10714    34.055688   -244.05145    2462.3016    118085.69    10.472245   0.17045051 
   26400   -281.22281     28.10329   -253.11952      2031.93    104641.34    10.472245   0.14459119 
   26500   -280.25473    32.059487   -248.19525    2317.9718    111786.73    10.472245   0.16148003 
   26600   -276.18705    30.416685   -245.77036    2199.1936    120816.23    10.472245   0.20727954 
   26700   -277.11027    33.396714   -243.71356    2414.6563     121537.5    10.472245    0.1544844 
   26800   -279.85109    29.697878   -250.15321    2147.2223    110199.07    10.472245   0.14628785 
   26900   -273.22007    27.040549   -246.17952    1955.0915    127400.48    10.472245   0.25569047 
   27000   -272.55816    30.230082   -242.32808    2185.7018    132090.91    10.472245   0.28027898 
   27100   -279.63072    29.389071   -250.24165    2124.8949    112658.97    10.472245   0.16669445 
   27200   -274.31836    25.062854   -249.25551    1812.0998    124983.69    10.472245   0.21155394 
   27300   -274.11761    29.663348   -244.45427    2144.7257    125762.28    10.472245   0.21530192 
   27400   -275.29155    33.896275   -241.39528    2450.7757    128831.87    10.472245   0.16871758 
   27500   -277.67534    29.021464   -248.65387     2098.316    116731.01    10.472245   0.18558111 
   27600   -277.77789     29.60609    -248.1718    2140.5858    116983.91    10.472245   0.18535245 
   27700   -274.42357    33.060885   -241.36269    2390.3751    128184.89    10.472245   0.19406098 
   27800   -278.92104    31.550975   -247.37006    2281.2053    114381.76    10.472245   0.14108592 
   27900   -275.59062    27.178694   -248.41193    1965.0797    120001.21    10.472245    0.2248444 
   28000   -273.38188    27.430955   -245.95092    1983.3187    127924.63    10.472245   0.26978598 
   28100    -275.1408    28.654937   -246.48586    2071.8153    120680.19    10.472245   0.22835887 
   28200   -281.56143     32.76425   -248.79718    2368.9277    108208.66    10.472245   0.14874511 
   28300    -275.9277    25.882837   -250.04486    1871.3864    120062.71    10.472245   0.18355853 
   28400    -275.5544    33.262941   -242.29146    2404.9842    125405.13    10.472245    0.2215016 
   28500   -276.89989    28.285184   -248.61471    2045.0814    119921.48    10.472245   0.17611105 
   28600   -282.34105    32.057731   -250.28332    2317.8448    105030.68    10.472245   0.14816123 
   28700    -274.7964    31.093286   -243.70311    2248.1134    126870.86    10.472245   0.21178264 
   28800   -274.16414     28.70524    -245.4589    2075.4524    128821.38    10.472245    0.1715913 
   28900   -277.71209    26.515032   -251.19706    1917.0955    115545.52    10.472245   0.18060954 
   29000   -275.67082       31.573   -244.09782    2282.7978    126105.69    10.472245   0.20519595 
   29100   -277.11193    32.327506   -244.78443    2337.3502    120269.63    10.472245   0.19581608 
   29200   -280.43416     28.11109   -252.32307     2032.494    108637.46    10.472245   0.15474578 
   29300   -276.40967    30.983723   -245.42595    2240.1917    121979.15    10.472245   0.16520093 
   29400   -274.55084    29.349288   -245.20156    2122.0185    126570.52    10.472245   0.25775083 
   29500   -276.80072    40.381306   -236.41941    2919.6577    123689.07    10.472245   0.21090782 
   29600   -278.43397    32.947559   -245.48641    2382.1814    116662.87    10.472245   0.16234734 
   29700    -276.6623     28.75202   -247.91028    2078.8346    118447.45    10.472245   0.16880799 
   29800   -278.53808     34.57947   -243.95861    2500.1721    116185.55    10.472245   0.19042344 
   29900   -274.57712    31.741661   -242.83546    2294.9923    128767.54    10.472245   0.21031536 
   30000   -282.06573    32.642222    -249.4235    2360.1048    103849.68    10.472245   0.11965288 
   30100   -277.80023    33.813427    -243.9868    2444.7855    118211.06    10.472245    0.1856928 
   30200   -277.27025    34.816767   -242.45348    2517.3293    121166.23    10.472245   0.17449432 
   30300   -278.89482    31.820431   -247.07438    2300.6876    115271.21    10.472245   0.17854947 
   30400   -276.49466    26.936878   -249.55778    1947.5959    118431.63    10.472245   0.17124311 
   30500   -277.21761    34.236557   -242.98105    2475.3788    121431.75    10.472245   0.21232328 
   30600   -275.69838    29.573176    -246.1252     2138.206    123124.13    10.472245   0.21015754 
   30700   -278.95459    29.076177   -249.87841    2102.2719    110788.33    10.472245   0.18594879 
   30800   -276.79581     31.91425   -244.88156    2307.4709    119402.94    10.472245   0.19176463 
   30900   -269.29671    33.469508    -235.8272    2419.9195    146845.54    10.472245   0.26888537 
   31000   -275.84945    30.846265   -245.00319    2230.2532    123373.18    10.472245   0.17444177 
   31100   -276.93399    28.037911   -248.89608     2027.203    118911.92    10.472245   0.16193659 
   31200   -275.20699    30.295763   -244.91122    2190.4507    123503.29    10.472245   0.18022385 
   31300   -274.12926    29.882796   -244.24646    2160.5923    128265.36    10.472245   0.23993109 
   31400   -278.99834    29.232072   -249.76627    2113.5435    111995.78    10.472245    0.2060668 
   31500   -276.82455    30.718962   -246.10559    2221.0489    117284.11    10.472245   0.17710121 
   31600   -274.42901    30.129513   -244.29949    2178.4304    125458.41    10.472245   0.19059035 
   31700    -278.7035    28.387229   -250.31627    2052.4594    113341.04    10.472245   0.20249384 
   31800   -273.09611    26.526675   -246.56943    1917.9373    129579.71    10.472245   0.23583036 
   31900   -273.55978    31.081177   -242.47861    2247.2379    127651.73    10.472245   0.27094971 
   32000   -279.22792    29.991528   -249.23639    2168.4538       112553    10.472245   0.15361779 
   32100   -276.84226    28.025861   -248.81639    2026.3318    117818.59    10.472245   0.19793833 
   32200   -276.30097    31.218004   -245.08297    2257.1307    121415.92    10.472245   0.18877901 
   32300   -275.96897    29.033781   -246.93519    2099.2066    120126.67    10.472245    0.1902082 
   32400   -280.34883    28.895851   -251.45298     2089.234     111037.1    10.472245   0.13207875 
   32500   -273.86142    30.820591   -243.04082    2228.3969    129528.04    10.472245   0.20109253 
   32600   -275.60265    29.199051    -246.4036     2111.156    122956.58    10.472245   0.19279239 
   32700   -277.15307    26.864045   -250.28903    1942.3299    116798.93    10.472245   0.18125676 
   32800   -277.63837    25.628076   -252.01029    1852.9666     115165.8    10.472245   0.16873666 
   32900   -276.55358    32.073786   -244.47979    2319.0056    122449.92    10.472245   0.16194176 
   33000   -278.13264     29.21566   -248.91698    2112.3569    114681.42    10.472245   0.18547685 
   33100   -277.50539    25.082721   -252.42267    1813.5362    112745.84    10.472245   0.19595891 
   33200   -277.21093    31.328968   -245.88196    2265.1537    119005.66    10.472245   0.19635346 
   33300   -276.91655    32.053587   -244.86296    2317.5452    119006.92    10.472245   0.23961927 
   33400   -275.75765    30.563074   -245.19458    2209.7779    123935.83    10.472245   0.20342317 
   33500   -282.00629    31.502225   -250.50407    2277.6806    104035.47    10.472245   0.13136759 
   33600   -276.03033     28.74472   -247.28561    2078.3069    119205.61    10.472245   0.20317032 
   33700   -275.82355    32.674348    -243.1492    2362.4276    123834.63    10.472245   0.19765651 
   33800   -280.09378    29.341903   -250.75187    2121.4845    111330.75    10.472245    0.1448114 
   33900   -277.82867    29.107802   -248.72086    2104.5585    116665.11    10.472245   0.15838729 
   34000   -275.59424    29.618256   -245.97599    2141.4654       124613    10.472245   0.18088099 
   34100   -271.53122    32.860761   -238.67046    2375.9057    136965.34    10.472245   0.26835159 
   34200   -275.05437    31.602808   -243.45156    2284.9529    123968.26    10.472245    0.1982866 
   34300   -278.94566    30.869796   -248.07586    2231.9545    112623.74    10.472245   0.15974493 
   34400   -280.90612    36.026585   -244.87954    2604.8018    111965.42    10.472245   0.15271346 
   34500   -275.15917    34.911469    -240.2477    2524.1765    128115.15    10.472245   0.22121465 
   34600   -278.51885    28.773128   -249.74572    2080.3608    113035.01    10.472245   0.14332778 
   34700   -274.44471    27.960317    -246.4844    2021.5928    127641.99    10.472245   0.18866369 
   34800   -274.05618    33.992213   -240.06397    2457.7122     128226.3    10.472245   0.20051149 
   34900   -278.26352    28.193744   -250.06977    2038.4701    115226.75    10.472245   0.16394558 
   35000   -275.80088    29.205012   -246.59587    2111.5869    124860.46    10.472245   0.17822579 
   35100   -277.32789    35.688032   -241.63986    2580.3237    121574.91    10.472245   0.18869242 
   35200   -280.04373    29.038473   -251.00525    2099.5458    106872.84    10.472245   0.15357178 
   35300   -276.74557    29.378196   -247.36738    2124.1086    120001.19    10.472245   0.18656044 
   35400   -279.32114    34.787572   -244.53357    2515.2184     115255.5    10.472245   0.14748658 
   35500   -282.38193     29.13333    -253.2486    2106.4042    101440.14    10.472245   0.16420188 
   35600   -279.16637    31.808336   -247.35803    2299.8131    113985.58    10.472245   0.22443604 
   35700   -274.24421    28.383658   -245.86056    2052.2013    126940.05    10.472245     0.182892 
   35800   -278.90163    27.596995   -251.30464    1995.3238    109654.04    10.472245   0.19668615 
   35900   -273.82016    29.075034   -244.74512    2102.1893    128105.99    10.472245   0.22998117 
   36000   -274.14799    29.106022   -245.04197    2104.4297    124925.35    10.472245   0.22284335 
   36100   -277.27832    27.720777   -249.55754    2004.2735    118177.55    10.472245   0.21610269 
   36200    -271.5792    30.631567   -240.94764      2214.73    136112.52    10.472245   0.23505763 
   36300   -274.91124    25.854244   -249.05699    1869.3191    120821.75    10.472245   0.28005316 
   36400   -273.61106     28.76355   -244.84751    2079.6683    129749.11    10.472245   0.22304221 
   36500   -270.57413    31.222015   -239.35212    2257.4208    140893.55    10.472245     0.222581 
   36600   -281.93274    34.370621   -247.56211    2485.0719     105483.4    10.472245   0.16868032 
   36700   -279.51547    32.460658   -247.05481    2346.9774    113709.09    10.472245   0.15702794 
   36800   -273.29841    34.037901   -239.26051    2461.0156    133370.67    10.472245   0.17208683 
   36900   -280.47491    31.525747   -248.94916    2279.3813    109998.43    10.472245   0.19500017 
   37000   -276.76371    30.867339   -245.89637    2231.7769    120563.61    10.472245   0.20614734 
   37100   -276.35686    36.981538   -239.37532     2673.847    123745.01    10.472245    0.1907829 
   37200   -277.59971    29.123971   -248.47574    2105.7275    117192.22    10.472245   0.20320388 
   37300    -276.9688    31.171135   -245.79766     2253.742    120064.99    10.472245   0.18901504 
   37400   -276.23944    34.957619   -241.28182    2527.5132    124417.39    10.472245    0.1801026 
   37500   -276.98008    27.072557   -249.90752    1957.4057    117410.06    10.472245   0.20751358 
   37600   -276.23223    32.426847   -243.80539    2344.5328    122968.33    10.472245    0.1831048 
   37700    -272.3563    32.070763   -240.28554    2318.7871    132181.21    10.472245   0.26779131 
   37800    -276.0468    33.250693    -242.7961    2404.0986     123824.8    10.472245   0.23603577 
   37900   -278.26298    28.660617   -249.60236     2072.226    115342.49    10.472245    0.1816403 
   38000   -278.34274    35.329645   -243.01309    2554.4115    118900.81    10.472245   0.18570476 
   38100     -270.648    30.215818   -240.43219    2184.6705    138615.91    10.472245   0.21253423 
   38200   -275.26996    28.278221   -246.99174    2044.5779    124647.82    10.472245   0.20210141 
   38300   -283.02652    32.489186   -250.53733      2349.04    101696.86    10.472245   0.14147555 
   38400    -272.9269    29.514454   -243.41244    2133.9603    130908.87    10.472245    0.2365229 
   38500   -275.52064    31.247841    -244.2728     2259.288     124122.8    10.472245    0.2085831 
   38600   -275.53881    25.780706    -249.7581    1864.0021    122050.03    10.472245   0.21035949 
   38700   -273.51137    27.781923   -245.72945    2008.6945     130454.5    10.472245    0.2291543 
   38800   -276.77597    33.078499   -243.69747    2391.6486     122026.4    10.472245   0.19466932 
   38900   -282.19183    29.208777   -252.98305    2111.8592    100837.81    10.472245   0.14936443 
   39000   -271.49556    26.313104   -245.18246    1902.4957    134241.66    10.472245   0.23803831 
   39100   -274.16385    30.546549   -243.61731    2208.5831    126410.63    10.472245   0.21587399 
   39200   -279.18292    27.684902   -251.49802    2001.6796       110870    10.472245   0.16141458 
   39300   -278.03006    31.813055     -246.217    2300.1543    115872.62    10.472245   0.18852002 
   39400    -272.0016    27.884474   -244.11713    2016.1091    133377.66    10.472245   0.22346267 
   39500   -277.78357    31.574711   -246.20886    2282.9215    116833.34    10.472245   0.16025709 
   39600   -277.41745    26.494533   -250.92292    1915.6134    117261.24    10.472245   0.15889996 
   39700   -280.36689    27.107321   -253.25957    1959.9193    106960.31    10.472245    0.1613016 
   39800   -276.47883     30.42469   -246.05414    2199.7724    119288.07    10.472245   0.20477682 
   39900   -272.05364    27.572729   -244.48091    1993.5693    135551.71    10.472245   0.20726898 
   40000    -278.7374    26.576441   -252.16096    1921.5355    111208.23    10.472245   0.20384891 
   40100   -275.33729    28.860573   -246.47672    2086.6832    125087.74    10.472245   0.22709554 
   40200   -277.39457    31.911119   -245.48345    2307.2445    117443.08    10.472245   0.18015874 
   40300   -278.98368    27.158792   -251.82489    1963.6407    114410.73    10.472245   0.20054084 
   40400   -275.59164    31.348061   -244.24358    2266.5342    126482.51    10.472245   0.18692758 
   40500   -273.24129    27.958854   -245.28244     2021.487    127426.41    10.472245   0.21291507 
   40600   -278.11782    26.387404   -251.73041    1907.8677    113424.49    10.472245   0.18854266 
   40700   -275.98175    25.172756     -250.809     1820.046    118604.72    10.472245   0.21912881 
   40800   -274.08534    29.749357   -244.33599    2150.9443    126150.26    10.472245   0.20309417 
   40900   -277.71408    30.468255   -247.24583    2202.9223    117357.55    10.472245    0.1581435 
   41000   -280.02301    27.959702   -252.06331    2021.5483    110475.29    10.472245   0.15283489 
   41100   -277.28874    34.585296   -242.70344    2500.5934    121339.92    10.472245   0.17218442 
   41200   -279.75289    32.866661   -246.88623    2376.3323    112375.76    10.472245   0.18612216 
   41300   -279.51396    28.937819   -250.57615    2092.2683    110043.36    10.472245   0.16963409 
   41400   -273.62027    32.254334   -241.36594    2332.0597    130008.94    10.472245   0.20913686 
   41500   -276.77985    28.169703   -248.61015    2036.7319    120061.05    10.472245   0.14768575 
   41600   -279.65622    33.059604   -246.59662    2390.2825    111957.29    10.472245   0.18392623 
   41700   -273.30926    32.391696   -240.91756    2341.9913    130973.56    10.472245   0.23265036 
   41800   -277.24234    28.906193   -248.33615    2089.9817    119300.53    10.472245   0.15948505 
   41900    -275.9831    28.884141   -247.09896    2088.3873    121057.44    10.472245   0.17396061 
   42000   -275.12761    35.168389   -239.95922    2542.7523    129366.83    10.472245   0.23883352 
   42100   -278.79111    33.592086   -245.19902    2428.7822       114610    10.472245   0.16885355 
   42200    -277.4721    29.293939   -248.17816    2118.0166    117954.26    10.472245   0.20127745 
   42300   -278.17257    32.125824   -246.04675    2322.7682    115400.61    10.472245    0.1563241 
   42400   -276.82272    30.900327   -245.92239     2234.162     120049.9    10.472245   0.15552809 
   42500   -279.33316    35.185144   -244.14801    2543.9637    114402.45    10.472245    0.1413156 
   42600   -276.51256    26.711853    -249.8007     1931.326    118209.66    10.472245   0.19319474 
   42700   -273.88045    28.114361   -245.76609    2032.7305    128268.13    10.472245   0.20556656 
   42800   -275.55715    32.017069   -243.54008    2314.9049    124668.08    10.472245   0.21914673 
   42900   -280.10954    30.461115   -249.64842     2202.406    112341.84    10.472245   0.16958379 
   43000   -277.20242    30.884931   -246.31749    2233.0489    118412.69    10.472245   0.18561351 
   43100   -278.93023    32.363308   -246.56692    2339.9387    114153.31    10.472245   0.16722538 
   43200   -279.88318    30.690144   -249.19303    2218.9653    109012.39    10.472245   0.16039881 
   43300   -274.78612    32.815753   -241.97037    2372.6515    128904.76    10.472245   0.17618711 
   43400   -276.69688    29.609135   -247.08775     2140.806    120119.98    10.472245   0.18146394 
   43500   -277.08248    29.131301   -247.95118    2106.2575    117797.97    10.472245     0.201725 
   43600   -275.67883     31.56502   -244.11381    2282.2207    123443.68    10.472245   0.21398848 
   43700   -273.59936    35.136625   -238.46273    2540.4557    135590.88    10.472245   0.18617161 
   43800   -276.94805    29.883887   -247.06416    2160.6712    117902.77    10.472245   0.17002223 
   43900   -275.68017    29.022622   -246.65754    2098.3997    121727.76    10.472245   0.20026136 
   44000   -271.19641    35.831914    -235.3645    2590.7266    142545.61    10.472245   0.16117076 
   44100   -274.53034     30.71473   -243.81561    2220.7429    126225.02    10.472245   0.20344505 
   44200   -279.25715    29.481387   -249.77576    2131.5695     115030.2    10.472245    0.1556295 
   44300   -274.85766    32.253831   -242.60383    2332.0233    128163.33    10.472245   0.19153519 
   44400   -273.66081     30.02327   -243.63754    2170.7488    130579.18    10.472245   0.21853626 
   44500   -276.30307    28.645999   -247.65707    2071.1691    121001.72    10.472245   0.18451441 
   44600   -276.77739    30.126499   -246.65089    2178.2125    121090.58    10.472245   0.19457909 
   44700   -271.74269    33.839128   -237.90356    2446.6438    133924.43    10.472245   0.21283144 
   44800   -276.00162    29.678992   -246.32263    2145.8567    123084.52    10.472245   0.16829674 
   44900    -278.4546    29.774567   -248.68003    2152.7671    115181.39    10.472245   0.18128121 
   45000   -275.52162    32.946418    -242.5752    2382.0989    127058.68    10.472245   0.17849409 
   45100   -276.47809    30.098262   -246.37982    2176.1709    119491.18    10.472245   0.21863629 
   45200   -278.68705    29.807009   -248.88004    2155.1127    114194.26    10.472245   0.18073469 
   45300   -276.33068    32.175162   -244.15552    2326.3353     120644.4    10.472245   0.18955714 
   45400   -272.37599    31.093264   -241.28272    2248.1117    136471.15    10.472245   0.21569846 
   45500   -278.88928    29.654019   -249.23526    2144.0512     114775.4    10.472245   0.15384206 
   45600    -276.2505    28.630125   -247.62037    2070.0213     121476.1    10.472245   0.20515419 
   45700   -273.21733    30.610669   -242.60666    2213.2191     132458.5    10.472245   0.20188543 
   45800   -279.00754    30.375646   -248.63189    2196.2264     114353.7    10.472245    0.2088051 
   45900   -275.39971    31.268814   -244.13089    2260.8044    123786.72    10.472245   0.16875797 
   46000   -273.91137    33.690883   -240.22048    2435.9253    131098.41    10.472245   0.21986389 
   46100    -277.2831    30.008112   -247.27498    2169.6529    118175.54    10.472245   0.17315149 
   46200   -279.53262    31.248599   -248.28402    2259.3428    112894.75    10.472245   0.17152437 
   46300   -272.54396    32.544497   -239.99947    2353.0391    135506.57    10.472245   0.24248646 
   46400   -274.16234    26.409005   -247.75333    1909.4295    126143.27    10.472245   0.19218927 
   46500   -278.34299    31.100506   -247.24249    2248.6353    119328.97    10.472245   0.15828168 
   46600   -277.91233    37.552581   -240.35975    2715.1347     120626.7    10.472245   0.16993961 
   46700   -277.42609    31.098942   -246.32714    2248.5223    118538.46    10.472245   0.14518104 
   46800   -277.50979     29.71912   -247.79067    2148.7581    120498.93    10.472245   0.17135345 
   46900   -277.48106    35.144101   -242.33696    2540.9962    121148.11    10.472245   0.17580577 
   47000   -278.21053    28.959223   -249.25131    2093.8159    113740.25    10.472245    0.1980841 
   47100    -275.8115     28.61164   -247.19986    2068.6848    119367.58    10.472245   0.22076088 
   47200   -274.93599    31.055653   -243.88034    2245.3924    125937.21    10.472245   0.18655556 
   47300   -279.49288    31.276016   -248.21686    2261.3251    113248.69    10.472245   0.16618804 
   47400   -275.35176    29.273984   -246.07778    2116.5738       125716    10.472245    0.1550455 
   47500   -273.06351    31.633521   -241.42999    2287.1735     134856.6    10.472245   0.27215517 
   47600   -274.86297    26.586279   -248.27669    1922.2468    124422.93    10.472245   0.21410427 
   47700   -280.54205    33.392639   -247.14942    2414.3616    108918.64    10.472245   0.19451007 
   47800   -275.94915    35.760968   -240.18818    2585.5971    127226.27    10.472245   0.20158437 
   47900   -276.39744    28.407992   -247.98945    2053.9607    119491.74    10.472245   0.23991755 
   48000    -274.5291    31.847112   -242.68199    2302.6167    129476.48    10.472245   0.18940012 
   48100   -271.02827    35.580534   -235.44773    2572.5513    141364.55    10.472245   0.22111713 
   48200   -275.12207    29.253336   -245.86873    2115.0809    123921.91    10.472245   0.20786483 
   48300   -275.55288     25.91009   -249.64279    1873.3568    122410.37    10.472245   0.19713456 
   48400   -275.92377    34.234614   -241.68916    2475.2383    123902.83    10.472245   0.21175213 
   48500   -273.91249    30.733588    -243.1789    2222.1064    128546.85    10.472245   0.18735816 
   48600   -279.00044    30.328988   -248.67145    2192.8529     112046.2    10.472245   0.15638579 
   48700   -276.42305    31.476204   -244.94684    2275.7992    120510.45    10.472245   0.22900606 
   48800   -272.81136    32.188467    -240.6229    2327.2974    134247.15    10.472245   0.26243661 
   48900    -276.1183    30.293081   -245.82522    2190.2568    122601.09    10.472245   0.18446578 
   49000   -280.72465    32.147509   -248.57714     2324.336    110286.05    10.472245   0.16465209 
   49100   -273.07238    29.938004   -243.13438    2164.5839    132489.68    10.472245    0.2028895 
   49200   -275.98772    30.715918    -245.2718    2220.8288    125144.33    10.472245   0.17463659 
   49300     -276.823    27.998494   -248.82451    2024.3531    117812.34    10.472245    0.2109697 
   49400   -275.62415    31.580854    -244.0433    2283.3656     124160.3    10.472245   0.19848969 
   49500   -278.98737    29.278475    -249.7089    2116.8985    113290.71    10.472245    0.1900162 
   49600   -278.93873    30.379875   -248.55886    2196.5322    113789.02    10.472245   0.16534901 
   49700   -277.29661    34.521743   -242.77486    2495.9984     122862.3    10.472245   0.20646117 
   49800   -279.82979    32.754977   -247.07481    2368.2573     112093.7    10.472245   0.15515661 
   49900   -279.73624    32.968582   -246.76766    2383.7014    109382.19    10.472245   0.15208012 
   50000   -276.66615    33.258627   -243.40752    2404.6723    124347.29    10.472245   0.19080698 
   50100   -269.21212     31.02081   -238.19131    2242.8732    143499.46    10.472245   0.29560471 
   50200   -276.32742     28.20964   -248.11778    2039.6194    120192.28    10.472245   0.20209358 
   50300   -277.86646    32.761597   -245.10486    2368.7359    116658.43    10.472245   0.18444191 
   50400   -277.43059    33.438532   -243.99206    2417.6798     116440.3    10.472245   0.20776659 
   50500   -282.02065    32.053174   -249.96748    2317.5154    104505.96    10.472245   0.13115825 
   50600   -275.96443    33.815687   -242.14875     2444.949    124486.01    10.472245   0.16856153 
   50700   -274.87232    30.269653   -244.60266    2188.5629     123943.3    10.472245   0.20043715 
   50800   -275.74746    29.686923   -246.06053    2146.4302    123796.32    10.472245   0.16836756 
   50900   -279.96366    27.684664   -252.27899    2001.6624    108208.99    10.472245   0.13983502 
   51000   -276.89427    28.313331   -248.58094    2047.1165    116615.04    10.472245   0.21197738 
   51100    -278.6415    34.181504      -244.46    2471.3984    116491.15    10.472245   0.14565521 
   51200   -280.01398    30.025889   -249.98809    2170.9382    108771.61    10.472245   0.16735589 
   51300    -278.3973    33.256867   -245.14044     2404.545    116857.67    10.472245   0.16171524 
   51400    -273.0832    28.586455   -244.49674    2066.8639    129446.25    10.472245    0.1923465 
   51500   -278.80817    30.167903   -248.64026    2181.2061    113716.51    10.472245   0.16981991 
   51600   -275.49502    29.195823    -246.2992    2110.9226    124541.21    10.472245   0.18853064 
   51700   -276.70826    29.921608   -246.78665    2163.3984    119875.71    10.472245    0.1903714 
   51800   -276.36975    30.901003   -245.46875    2234.2108    121534.99    10.472245    0.1682563 
   51900   -276.99209    35.222247   -241.76984    2546.6464    122381.34    10.472245   0.20234572 
   52000   -278.44794     28.23251   -250.21543    2041.2729    112612.98    10.472245    0.1839149 
   52100   -275.76758     31.35351   -244.41407    2266.9281    123317.52    10.472245   0.19420707 
   52200   -276.25264    32.810276   -243.44236    2372.2555    123098.25    10.472245   0.23241931 
   52300   -277.90779    30.028615   -247.87918    2171.1353    118607.01    10.472245   0.20981595 
   52400   -271.66914    30.239096   -241.43004    2186.3535    134615.23    10.472245   0.24181046 
   52500   -275.48807    32.993866    -242.4942    2385.5295     124273.4    10.472245   0.21239006 
   52600   -278.47692    31.010973   -247.46595    2242.1619    116632.15    10.472245   0.19518853 
   52700   -278.84527    32.300482   -246.54478    2335.3963       113847    10.472245   0.19645033 
   52800   -271.20196    31.272479   -239.92948    2261.0694    136543.85    10.472245   0.19700398 
   52900   -280.13327    31.466951   -248.66632    2275.1301    109118.67    10.472245   0.18447629 
   53000   -278.09842    32.231236   -245.86719    2330.3897    115859.09    10.472245    0.2199766 
   53100    -274.8861    32.625011   -242.26109    2358.8605    127458.44    10.472245   0.23589901 
   53200   -280.16663    29.200845   -250.96578    2111.2857     108420.6    10.472245    0.1665358 
   53300   -274.63004    30.304067   -244.32598    2191.0511    125461.86    10.472245   0.23165541 
   53400   -278.65317    33.098121   -245.55505    2393.0673    117320.55    10.472245   0.15854496 
   53500   -280.40034    30.211429   -250.18892    2184.3531    110271.73    10.472245   0.14587408 
   53600   -275.43166    31.688142   -243.74352    2291.1227    125279.42    10.472245   0.21335697 
   53700   -279.56701    31.641545   -247.92546    2287.7537    111088.44    10.472245   0.14683499 
   53800   -279.01538    28.667938   -250.34744    2072.7553    113526.89    10.472245   0.15552824 
   53900   -279.18459    34.348645   -244.83595     2483.483    116535.78    10.472245   0.16299476 
   54000   -279.09877    32.532807   -246.56596    2352.1939    112373.03    10.472245   0.15371233 
   54100   -282.14962    26.876261   -255.27336    1943.2131    100542.14    10.472245   0.15262492 
   54200   -274.80872     27.76072     -247.048    2007.1615    125198.12    10.472245   0.22955738 
   54300   -277.90759    32.735591     -245.172    2366.8556    116016.13    10.472245   0.17792132 
   54400   -277.12921     24.74321     -252.386    1788.9888    117486.55    10.472245   0.17496632 
   54500     -278.022    35.390096    -242.6319    2558.7822     121777.9    10.472245   0.15564049 
   54600   -277.81121    30.090472   -247.72074    2175.6077     116190.1    10.472245   0.19536889 
   54700   -279.31597    32.835199   -246.48077    2374.0575    114150.64    10.472245   0.17334878 
   54800   -272.70379    31.417501   -241.28629    2271.5548    134246.32    10.472245   0.21623003 
   54900     -273.542    26.812685   -246.72931    1938.6164    131300.83    10.472245   0.27184656 
   55000   -272.88615    28.554981   -244.33117    2064.5883    128721.38    10.472245   0.26019836 
   55100     -277.946    36.088487   -241.85751    2609.2774    117537.56    10.472245   0.19274964 
   55200   -281.06107    31.142715   -249.91835    2251.6872    108120.89    10.472245   0.16353764 
   55300   -277.58638    33.073657   -244.51273    2391.2986    119729.68    10.472245   0.18496053 
   55400   -274.19232    32.252257   -241.94006    2331.9096    129186.59    10.472245   0.19370915 
   55500    -276.0472    28.506805   -247.54039    2061.1051    118865.02    10.472245   0.19904713 
   55600   -275.88204    30.283643    -245.5984    2189.5744    124287.49    10.472245   0.19041829 
   55700   -272.40102    31.879727   -240.52129    2304.9748       138813    10.472245   0.23032805 
   55800   -275.59247    29.888237   -245.70423    2160.9857    124508.34    10.472245   0.24376543 
   55900   -272.92367    29.026615   -243.89705    2098.6884    128918.14    10.472245   0.21755883 
   56000   -278.87817    28.122705   -250.75546    2033.3338    113228.55    10.472245   0.17729809 
   56100   -278.37965    31.525492   -246.85416    2279.3628    117149.94    10.472245   0.17599156 
   56200   -276.04288    31.961497   -244.08138    2310.8869    124664.08    10.472245   0.16646099 
   56300   -282.45529    33.834196   -248.62109    2446.2872    103636.67    10.472245   0.14299585 
   56400   -279.12154    26.290234    -252.8313    1900.8421    109953.89    10.472245   0.17537621 
   56500   -277.22045    32.307254    -244.9132    2335.8859    121403.96    10.472245   0.16146219 
   56600   -277.71139    31.235062   -246.47632    2258.3641    115111.36    10.472245   0.18562545 
   56700   -280.63827    28.086074    -252.5522    2030.6853    106821.12    10.472245   0.17018958 
   56800   -275.47422    31.354579   -244.11964    2267.0054    125079.33    10.472245   0.19274652 
   56900   -277.47756    29.779441   -247.69812    2153.1195    120072.85    10.472245   0.20744994 
   57000   -277.37943    29.582333   -247.79709    2138.8681    118403.26    10.472245   0.18753272 
   57100   -274.40664    32.211262   -242.19538    2328.9455     129656.9    10.472245   0.18372828 
   57200   -280.04595    29.531561   -250.51439    2135.1972    110404.83    10.472245   0.15699681 
   57300   -279.42343    30.926124   -248.49731    2236.0272    111422.57    10.472245   0.17096403 
   57400   -279.90996    34.687809   -245.22216    2508.0053    113201.71    10.472245   0.14890439 
   57500    -277.4851     29.87321   -247.61189    2159.8992    115299.77    10.472245   0.21126111 
   57600     -270.347    28.061518   -242.28548    2028.9098    139400.76    10.472245   0.22995979 
   57700   -271.73678    29.219642   -242.51714    2112.6448    132393.91    10.472245   0.20312978 
   57800   -279.00108    31.155955   -247.84512    2252.6444    113461.39    10.472245   0.17169572 
   57900   -277.58877    33.652291   -243.93648     2433.135    117806.97    10.472245   0.21079883 
   58000    -273.6822    33.098413   -240.58379    2393.0885    132549.43    10.472245    0.1848001 
   58100   -278.53915    30.916933   -247.62222    2235.3627    115701.92    10.472245    0.1918984 
   58200   -276.63162    33.545676   -243.08595    2425.4266    123777.43    10.472245   0.18908995 
   58300   -272.74957    32.462158   -240.28741    2347.0858    134652.77    10.472245   0.18209916 
   58400   -276.29933    26.596343   -249.70299    1922.9744    119777.75    10.472245   0.16999851 
   58500    -278.5389    32.749586   -245.78931    2367.8675    117990.58    10.472245   0.18321529 
   58600    -274.4896    32.530477   -241.95912    2352.0254    128519.08    10.472245   0.17041321 
   58700   -277.74828    30.956669   -246.79161    2238.2357    115968.44    10.472245   0.18746766 
   58800   -277.98309    27.606421   -250.37667    1996.0053    111460.96    10.472245   0.16346974 
   58900   -278.33904    31.936571   -246.40246    2309.0847    114649.02    10.472245   0.16547264 
   59000   -277.23271     34.31792   -242.91479    2481.2615     120913.3    10.472245   0.16530768 
   59100   -280.08424    29.619111   -250.46513    2141.5272    108823.71    10.472245   0.18983858 
   59200   -275.97262    27.852208   -248.12042    2013.7762    121389.58    10.472245   0.15666315 
   59300   -272.90989    29.527249   -243.38264    2134.8854    129273.52    10.472245   0.23474301 
   59400    -276.2062    36.882488   -239.32371    2666.6854    125697.15    10.472245   0.19195215 
   59500   -281.95042    32.771124    -249.1793    2369.4248    104439.84    10.472245   0.13884812 
   59600   -275.42885    30.074731   -245.35412    2174.4696    123850.12    10.472245   0.18535431 
   59700   -276.46318     33.26672   -243.19646    2405.2574    122798.99    10.472245   0.18096494 
   59800   -276.07686    26.300761    -249.7761    1901.6032    120815.47    10.472245   0.17732992 
   59900   -275.85323    32.702872   -243.15036      2364.49    123697.75    10.472245   0.18036836 
   60000    -278.3957    32.751478   -245.64422    2368.0043    116106.61    10.472245   0.16541947 
   60100    -279.1034    27.668343   -251.43505    2000.4824    110004.73    10.472245   0.17652622 
   60200   -272.13539    28.019919   -244.11547    2025.9021     131279.6    10.472245   0.19978039 
   60300    -278.5402    32.543474   -245.99672    2352.9652    114632.13    10.472245   0.19563138 
   60400   -278.86084    27.220195   -251.64065    1968.0803    111888.75    10.472245   0.18592318 
   60500   -278.55293    33.036852   -245.51608    2388.6375    113141.52    10.472245   0.18894016 
   60600   -273.45867    27.139398   -246.31927    1962.2385    126790.79    10.472245   0.18237761 
   60700   -282.08088    27.123507   -254.95737    1961.0896    102250.77    10.472245   0.14983476 
   60800   -279.08596    29.974918   -249.11104    2167.2529    111848.69    10.472245   0.16473494 
   60900   -273.84762    28.489324    -245.3583    2059.8411     127554.6    10.472245   0.19192864 
   61000   -277.42653    31.558326   -245.86821    2281.7368    117671.72    10.472245    0.1517036 
   61100   -280.72282    29.009791   -251.71303     2097.472    106567.06    10.472245   0.16461458 
   61200   -275.74739     32.01041   -243.73698    2314.4234    125900.26    10.472245   0.18826841 
   61300   -275.94635    28.874736   -247.07161    2087.7073    122904.19    10.472245   0.18402138 
   61400   -278.96599    26.760403   -252.20559    1934.8363    111099.26    10.472245    0.1807937 
   61500   -275.41379    30.049925   -245.36386     2172.676    123843.71    10.472245   0.22054285 
   61600   -274.18738    29.853996   -244.33338      2158.51    128681.31    10.472245   0.18038329 
   61700   -278.98835    27.343597   -251.64475    1977.0025    113185.73    10.472245   0.17073995 
   61800     -278.052    31.006476   -247.04553    2241.8368    115681.86    10.472245   0.18373365 
   61900   -279.60388    33.821962   -245.78192    2445.4027    112612.56    10.472245   0.18587333 
   62000   -275.64207    29.259424   -246.38265    2115.5211    123136.33    10.472245   0.19571056 
   62100    -279.8964    32.493735   -247.40267    2349.3689    112392.84    10.472245    0.1308181 
   62200   -275.30599    29.259787    -246.0462    2115.5474    123236.87    10.472245   0.18755007 
   62300    -272.4223    33.173417   -239.24889    2398.5114    134717.54    10.472245   0.29056418 
   62400   -276.32092    33.031746   -243.28917    2388.2683    123486.21    10.472245   0.16155516 
   62500   -279.05185    31.811228   -247.24062    2300.0222    114958.94    10.472245   0.15134479 
   62600   -274.74753    32.206082   -242.54145     2328.571    126937.73    10.472245   0.20109215 
   62700   -274.13065    30.332545   -243.79811    2193.1101    128291.12    10.472245   0.18648829 
   62800   -275.56956     27.46092   -248.10864    1985.4852     122220.3    10.472245   0.21102992 
   62900   -275.61208    34.195294   -241.41678    2472.3954     128503.9    10.472245   0.17590773 
   63000   -276.71054    27.569686   -249.14085    1993.3493    117390.53    10.472245    0.1566085 
   63100   -278.57668    29.050984   -249.52569    2100.4504    111833.86    10.472245   0.21117779 
   63200   -276.21194    32.158653   -244.05328    2325.1417    122099.28    10.472245   0.21879322 
   63300   -279.70282    32.376254   -247.32657    2340.8748    111863.63    10.472245    0.1801173 
   63400   -276.92162     25.77768   -251.14394    1863.7833    117362.21    10.472245   0.19728292 
   63500   -276.37142    31.192233   -245.17918    2255.2674    121087.13    10.472245   0.19921293 
   63600   -274.38212    27.115143   -247.26697    1960.4848    126841.48    10.472245   0.19765375 
   63700   -280.34177    26.905833   -253.43593    1945.3513    106244.69    10.472245   0.16523673 
   63800    -276.1888    30.921687   -245.26712    2235.7064    119713.84    10.472245   0.19225562 
   63900   -278.31582    31.769481   -246.54634    2297.0037    116239.97    10.472245   0.17091887 
   64000   -280.92784    26.734233    -254.1936    1932.9442    105907.83    10.472245   0.14521907 
   64100   -278.07651     31.13998   -246.93653    2251.4895    114643.08    10.472245   0.16945895 
   64200   -278.34317    33.170767   -245.17241    2398.3198    116695.72    10.472245   0.16550837 
   64300   -279.41689    33.070311   -246.34658    2391.0567    112665.55    10.472245   0.17274148 
   64400   -280.48657    30.749609   -249.73696    2223.2647    108329.28    10.472245   0.16033901 
   64500   -275.67361    30.935427   -244.73818    2236.6998    124299.85    10.472245   0.19280358 
   64600   -275.49425    32.900415   -242.59383    2378.7728    125678.13    10.472245   0.21299348 
   64700   -280.31077    29.010849   -251.29993    2097.5485    107416.83    10.472245    0.1624621 
   64800   -277.54172     32.17742    -245.3643    2326.4987    120915.97    10.472245   0.17871279 
   64900     -277.482    34.119186   -243.36281    2466.8926    118520.46    10.472245   0.18511186 
   65000   -278.66472    26.558689   -252.10603     1920.252     110025.6    10.472245    0.1575381 
   65100   -274.79596    29.271675   -245.52428    2116.4069    126528.69    10.472245   0.19776044 
   65200   -276.11848     29.75276   -246.36572    2151.1904    121937.43    10.472245   0.20691288 
   65300   -281.32064    27.980042   -253.34059    2023.0189    103239.72    10.472245   0.17991233 
   65400   -277.13001    29.789781   -247.34023    2153.8671    120273.75    10.472245   0.17428493 
   65500   -276.21585    30.334554    -245.8813    2193.2554    121664.58    10.472245   0.20208771 
   65600   -279.79083    31.344058   -248.44677    2266.2448    113405.74    10.472245   0.14432833 
   65700    -280.5295    30.095661   -250.43384    2175.9828    109076.98    10.472245   0.16972493 
   65800   -277.55928     35.21197   -242.34731    2545.9033    119400.51    10.472245   0.18981374 
   65900   -278.43365    31.745347   -246.68831    2295.2588    114901.98    10.472245     0.197387 
   66000   -282.34975    26.522354   -255.82739    1917.6249    101212.54    10.472245    0.1632171 
   66100   -275.76979    26.444584   -249.32521    1912.0019    121746.45    10.472245   0.16433142 
   66200    -276.8808    32.686205    -244.1946     2363.285    122784.38    10.472245   0.20792257 
   66300   -274.50004    27.571108   -246.92893    1993.4521     126382.2    10.472245   0.21055119 
   66400    -278.0295    26.935759   -251.09375     1947.515    116206.27    10.472245   0.16994627 
   66500   -276.57887    31.754319   -244.82455    2295.9075    121896.94    10.472245   0.18660303 
   66600   -277.39676    32.038886   -245.35788    2316.4823    119434.14    10.472245   0.19056588 
   66700   -279.35314    27.690187   -251.66295    2002.0618    109919.18    10.472245   0.18776376 
   66800   -277.92481    28.527036   -249.39777    2062.5678    115025.72    10.472245   0.17810677 
   66900   -273.89641    28.273823   -245.62258      2044.26    126093.29    10.472245   0.23162956 
   67000   -276.37994    27.302703   -249.07723    1974.0458    119811.52    10.472245   0.17289154 
   67100   -282.19969    30.181053   -252.01864    2182.1569    102768.62    10.472245   0.12387977 
   67200   -277.53872    31.066278   -246.47244    2246.1606    119344.62    10.472245   0.18328346 
   67300   -278.49974    31.785112   -246.71463    2298.1339    116616.99    10.472245   0.15408901 
   67400   -279.41118    27.039945   -252.37124    1955.0478     106758.9    10.472245   0.17219348 
   67500   -278.16663     33.39689   -244.76974     2414.669    116732.71    10.472245   0.18432415 
   67600   -277.94684    32.402013   -245.54483    2342.7372    116163.55    10.472245    0.1492044 
   67700   -277.48025    26.569746    -250.9105    1921.0514    116532.64    10.472245   0.15776076 
   67800     -276.515    29.193628   -247.32138    2110.7639    121279.33    10.472245   0.17063414 
   67900    -275.3694    33.422744   -241.94665    2416.5383    124573.06    10.472245   0.18051894 
   68000   -277.23867    29.420572    -247.8181    2127.1724    119739.22    10.472245     0.183332 
   68100   -278.90173    30.103547   -248.79818     2176.553    112522.71    10.472245   0.13538169 
   68200   -274.73794    32.838796   -241.89915    2374.3176    129190.86    10.472245   0.21979071 
   68300   -272.12539    32.552461   -239.57292    2353.6149    137317.85    10.472245   0.28821449 
   68400   -276.89815    33.532003   -243.36615     2424.438    120774.14    10.472245   0.24490765 
   68500   -276.45501    28.437453   -248.01756    2056.0908    117377.37    10.472245   0.27614285 
   68600   -272.84781    32.872277   -239.97553    2376.7383    133741.15    10.472245   0.24327702 
   68700   -275.40946    29.160619   -246.24884    2108.3773    124931.62    10.472245   0.18486921 
   68800   -278.13189    29.499917   -248.63198    2132.9093    116515.92    10.472245   0.18628014 
   68900   -277.83505    31.609736   -246.22532    2285.4538    119068.58    10.472245    0.1873688 
   69000   -271.41452    29.775468   -241.63905    2152.8322    136139.05    10.472245   0.21338369 
   69100    -276.9041    32.126678   -244.77742    2322.8298       118984    10.472245   0.18271944 
   69200   -277.03865    28.872341   -248.16631    2087.5341     118202.5    10.472245   0.16065675 
   69300   -272.69037    31.172166    -241.5182    2253.8165    133288.46    10.472245   0.23279379 
   69400   -275.27926    32.537086   -242.74218    2352.5033    127491.87    10.472245   0.21759786 
   69500   -276.08675    28.532602   -247.55415    2062.9703    121335.76    10.472245   0.18027758 
   69600   -275.59858    30.188939   -245.40964     2182.727     125784.6    10.472245   0.15942548 
   69700   -275.37011    32.202613    -243.1675    2328.3202    124861.31    10.472245   0.18740188 
   69800   -279.65083    28.419809   -251.23102    2054.8151    111741.04    10.472245   0.15254976 
   69900   -274.03932    29.334199   -244.70512    2120.9274     126120.4    10.472245   0.19561549 
   70000   -272.28723    27.484421   -244.80281    1987.1845    135092.47    10.472245   0.26273802 
   70100   -275.43262     27.69153   -247.74109    2002.1589    119940.32    10.472245   0.20031273 
   70200   -279.64817     27.30724   -252.34093    1974.3738    107961.83    10.472245   0.19609905 
   70300   -277.19541    31.006117    -246.1893    2241.8109    119611.53    10.472245   0.16523111 
   70400   -277.31207    32.275785   -245.03629    2333.6106    119364.08    10.472245   0.17599916 
   70500   -278.67078    29.215163   -249.45561    2112.3209    112827.59    10.472245   0.15522166 
   70600   -279.48182    29.466582   -250.01524     2130.499    113530.34    10.472245   0.15236835 
   70700   -277.32292     33.84735   -243.47556    2447.2383    121761.69    10.472245   0.20680072 
   70800   -276.79873    26.928081   -249.87065    1946.9598    117843.81    10.472245   0.22540393 
   70900   -275.32441    32.093455   -243.23096    2320.4278    126197.97    10.472245   0.21334302 
   71000   -276.58275     32.76448   -243.81827    2368.9444    121698.61    10.472245   0.22056297 
   71100   -277.56526    28.521035   -249.04422     2062.134    114952.16    10.472245   0.20263021 
   71200   -274.54565    32.866616   -241.67903     2376.329     130453.7    10.472245   0.20970657 
   71300   -275.61785    30.372599   -245.24525    2196.0061    121274.45    10.472245   0.20835823 
   71400   -279.48072    31.421309   -248.05941    2271.8301    113856.15    10.472245   0.17663227 
   71500   -275.95565    35.855793   -240.09986    2592.4531    126474.94    10.472245   0.18365352 
   71600   -274.10854    31.449144   -242.65939    2273.8427    127631.91    10.472245     0.194893 
   71700   -275.62467    27.185213   -248.43946     1965.551    123010.83    10.472245   0.18319829 
   71800   -277.97826    29.560051   -248.41821     2137.257    115210.04    10.472245   0.14652221 
   71900    -274.1793    33.783545   -240.39575     2442.625    131986.93    10.472245   0.22318367 
   72000   -282.15421    34.243852   -247.91036    2475.9062    105214.72    10.472245   0.15995838 
   72100   -279.24233    31.166995   -248.07534    2253.4426     113323.1    10.472245   0.16659713 
   72200   -276.54296    33.409407   -243.13355    2415.5741    123073.56    10.472245   0.17345049 
   72300   -274.75954    38.165947    -236.5936    2759.4824    130652.76    10.472245   0.19874238 
   72400   -275.53412    29.317174   -246.21694    2119.6965    123597.13    10.472245   0.20327017 
   72500   -280.20879    31.030308   -249.17849    2243.5599    110024.34    10.472245   0.16456487 
   72600   -276.94411    32.004898   -244.93921    2314.0249    121596.06    10.472245   0.19113965 
   72700   -274.02906    33.326805   -240.70226    2409.6017    127434.58    10.472245    0.2061687 
   72800   -279.69335    30.625371   -249.06798     2214.282    111689.56    10.472245   0.14897865 
   72900   -276.57252    30.835922    -245.7366    2229.5053    121472.91    10.472245   0.17651883 
   73000   -276.81541    32.439458   -244.37595    2345.4445    121386.61    10.472245   0.19395227 
   73100   -278.55837    27.694802   -250.86356    2002.3955    111620.47    10.472245   0.21692331 
   73200   -271.96467    28.139395   -243.82528    2034.5405    133631.54    10.472245   0.25604704 
   73300   -278.58756    33.272142   -245.31542    2405.6495     116751.2    10.472245   0.16542949 
   73400   -279.12532    25.065919    -254.0594    1812.3214    109175.53    10.472245   0.16908863 
   73500   -281.37698    32.683518   -248.69346    2363.0907    108283.24    10.472245   0.13498151 
   73600   -276.05537    32.381252   -243.67412    2341.2361    123247.88    10.472245   0.16334372 
   73700   -280.31079     30.94223   -249.36856    2237.1917    110142.49    10.472245   0.14383046 
   73800   -278.43786    28.357597   -250.08026     2050.317     113090.2    10.472245   0.16327637 
   73900   -272.58001    30.365264   -242.21475    2195.4757    132044.85    10.472245   0.17984748 
   74000   -280.90475    31.359166   -249.54558     2267.337    107881.31    10.472245   0.13086804 
   74100   -280.42208    31.597741   -248.82434    2284.5866    110136.25    10.472245   0.15545751 
   74200   -273.45851    27.949891   -245.50862     2020.839    127330.08    10.472245   0.21903681 
   74300   -272.40486    32.432028   -239.97283    2344.9074    136371.33    10.472245   0.19789271 
   74400   -276.84801    33.247508    -243.6005    2403.8684    122733.88    10.472245   0.15808588 
   74500   -277.57586    29.350208   -248.22565     2122.085    116552.52    10.472245   0.20442184 
   74600   -277.81913    35.925193   -241.89393    2597.4709    121208.05    10.472245   0.18392007 
   74700   -279.95242    30.818852   -249.13357    2228.2712    109804.83    10.472245   0.15333386 
   74800   -279.05828    29.763223   -249.29505    2151.9469    111339.08    10.472245   0.19873706 
   74900   -276.26109    32.602561   -243.65853    2357.2373    123508.84    10.472245   0.19601187 
   75000    -281.3649    31.294585   -250.07031    2262.6677    106854.65    10.472245   0.15132571 
   75100   -278.72218    26.225913   -252.49627    1896.1915     111063.2    10.472245   0.16022141 
   75200   -274.75443    29.755116   -244.99931    2151.3607    125536.69    10.472245   0.23637341 
   75300   -277.25499    31.977064   -245.27793    2312.0125    119896.54    10.472245   0.16282279 
   75400    -280.4115    28.415467   -251.99603    2054.5011    107925.72    10.472245   0.15736759 
   75500   -274.54407    27.512929   -247.03114    1989.2456    125339.34    10.472245   0.22454727 
   75600   -275.97006    30.537417   -245.43264    2207.9228    122142.42    10.472245   0.19669123 
   75700   -282.59509      30.9165   -251.67859    2235.3313    102435.04    10.472245   0.11436793 
   75800   -281.74234    30.234614   -251.50773    2186.0295    106109.94    10.472245   0.14611998 
   75900   -277.81315    32.620882   -245.19227    2358.5619    118741.86    10.472245   0.15823049 
   76000   -275.52942     26.37876   -249.15066    1907.2427    121446.22    10.472245   0.23850644 
   76100   -279.09754    28.196145   -250.90139    2038.6437    110844.92    10.472245   0.17584239 
   76200   -271.29259    28.100513   -243.19208    2031.7293    134859.82    10.472245   0.22586805 
   76300   -280.08111    31.569957   -248.51115    2282.5777    110069.41    10.472245   0.16177892 
   76400   -279.59859    23.835448   -255.76315    1723.3556    108622.42    10.472245   0.17650782 
   76500   -276.71494    27.683875   -249.03106    2001.6054    117089.93    10.472245   0.21167007 
   76600    -276.1901    31.217707   -244.97239    2257.1093    121764.63    10.472245   0.20124246 
   76700   -274.38455    27.022561   -247.36199    1953.7909    122620.18    10.472245   0.26861534 
   76800   -277.28109    29.510026   -247.77106    2133.6402    117835.51    10.472245   0.19852646 
   76900   -273.90958    32.680773   -241.22881    2362.8922    128882.09    10.472245   0.25284188 
   77000   -279.51372    30.368845   -249.14488    2195.7346    113383.54    10.472245   0.16778932 
   77100   -279.39779    30.611649   -248.78614    2213.2899    112601.81    10.472245   0.25167754 
   77200   -272.85752    29.961704   -242.89581    2166.2974     130890.7    10.472245   0.22393054 
[...]
  481400   -275.11546    31.206993   -243.90847    2256.3346    124925.93    10.472245   0.65185114 
  481500   -279.81119    28.381073   -251.43012    2052.0143    107086.09    10.472245   0.61287557 
  481600    -277.0078    31.639641   -245.36816     2287.616    118634.38    10.472245   0.68401703 
  481700   -276.70644    30.694304   -246.01214     2219.266    120638.89    10.472245   0.67812368 
  481800   -279.85967    30.605383   -249.25429    2212.8369     109653.4    10.472245   0.56995783 
  481900   -280.01479    29.024303   -250.99049    2098.5213    110034.07    10.472245   0.57327482 
  482000   -274.62659    30.845408   -243.78119    2230.1912    126967.14    10.472245   0.62806749 
  482100   -277.23676    27.717312   -249.51945     2004.023    115478.16    10.472245   0.58069885 
  482200   -275.75756    27.346838   -248.41072    1977.2369    123054.27    10.472245   0.60484294 
  482300   -273.88426    31.372681   -242.51158    2268.3142    127964.01    10.472245   0.62202579 
  482400   -279.40147    29.549542   -249.85193    2136.4973    111251.36    10.472245   0.63211524 
  482500   -278.43938    34.049925   -244.38945    2461.8849    118337.84    10.472245   0.65660794 
  482600   -276.07063    32.040326    -244.0303    2316.5865    124725.16    10.472245   0.57490824 
  482700   -277.73602    28.362244   -249.37377     2050.653    116806.11    10.472245   0.59572763 
  482800   -276.40014    35.270337    -241.1298    2550.1234     124466.7    10.472245   0.67646223 
  482900   -275.66815    32.277303   -243.39085    2333.7204    123296.23    10.472245   0.62846239 
  483000   -279.49182    32.634024   -246.85779    2359.5121    113714.07    10.472245   0.56002804 
  483100   -277.50374    27.374351   -250.12939    1979.2261     116962.9    10.472245   0.68913483 
  483200   -279.34915    29.466951    -249.8822    2130.5258    113634.41    10.472245   0.63152271 
  483300   -278.24042     34.59321    -243.6472    2501.1656     118285.8    10.472245   0.61110268 
  483400   -276.41514    26.435976   -249.97917    1911.3796    117365.34    10.472245   0.61946795 
  483500   -276.86609    24.691107   -252.17498    1785.2216    116597.92    10.472245   0.60564392 
  483600   -277.46032    33.687597   -243.77273    2435.6877    119646.26    10.472245    0.6903203 
  483700   -275.75632     30.71058   -245.04574    2220.4429    121625.81    10.472245   0.68668689 
  483800   -278.65458      28.2291   -250.42548    2041.0264    113257.49    10.472245   0.69890545 
  483900   -274.34196    33.776078   -240.56589    2442.0851    128539.88    10.472245   0.65519027 
  484000   -275.24549    29.119557   -246.12593    2105.4084    125193.04    10.472245    0.6647451 
  484100   -274.69088    25.288098   -249.40279    1828.3854     123814.6    10.472245   0.64615346 
  484200   -275.30437    30.834486   -244.46988    2229.4015    124561.82    10.472245   0.60986376 
  484300    -276.3373    34.591926   -241.74538    2501.0728    123132.53    10.472245   0.63513941 
  484400   -280.85305    32.099141   -248.75391    2320.8389    106317.89    10.472245   0.56059072 
  484500   -277.51154    31.759001   -245.75254     2296.246    118965.23    10.472245   0.61159514 
  484600     -272.083    33.466449   -238.61655    2419.6983    132279.42    10.472245   0.68263991 
  484700   -277.06557    30.253719   -246.81185    2187.4108    117641.88    10.472245   0.61935827 
  484800   -276.40925    28.888245   -247.52101     2088.684    121686.93    10.472245     0.641982 
  484900   -271.38972     29.57846   -241.81126    2138.5881    135412.13    10.472245   0.69277456 
  485000    -276.3651    26.592907    -249.7722     1922.726    119530.22    10.472245    0.5744852 
  485100    -277.4652    29.875641   -247.58956    2160.0749    119644.52    10.472245   0.60924713 
  485200   -273.46476    34.209034   -239.25572    2473.3888    134133.17    10.472245   0.62492081 
  485300   -276.86589    38.551902   -238.31399    2787.3878    126570.59    10.472245   0.63569375 
  485400    -277.0193    30.746801    -246.2725    2223.0618    118953.88    10.472245   0.62807891 
  485500   -275.70637    26.983701   -248.72267    1950.9813    119712.17    10.472245   0.74555416 
  485600   -274.86251    32.825159   -242.03735    2373.3316    126923.36    10.472245   0.79810223 
  485700   -279.92054    33.992119   -245.92842    2457.7054    110672.15    10.472245   0.66454133 
  485800   -279.06904    26.854318   -252.21473    1941.6266    109981.47    10.472245   0.59499145 
  485900   -282.06027    31.660459   -250.39981    2289.1212    104792.94    10.472245   0.54428533 
  486000   -276.53069    32.084209   -244.44648    2319.7593    121953.33    10.472245    0.6825516 
  486100   -273.81103    28.786385   -245.02465    2081.3193     127445.8    10.472245   0.78711884 
  486200   -279.96464    27.406174   -252.55847     1981.527    109930.91    10.472245   0.48863502 
  486300   -275.01114    29.087187   -245.92395    2103.0679    121313.52    10.472245   0.63331059 
  486400   -271.29154     24.31789   -246.97365    1758.2372    132748.21    10.472245   0.67721158 
  486500   -276.52103    28.638133    -247.8829    2070.6004    120295.79    10.472245   0.64523476 
  486600   -272.92315    29.588972   -243.33418    2139.3481    130913.46    10.472245     0.647294 
  486700    -277.3263    29.509617   -247.81668    2133.6106    118070.08    10.472245   0.64317169 
  486800   -279.76356    30.583129   -249.18043    2211.2279    112347.59    10.472245   0.61093234 
  486900   -275.21477    30.111655   -245.10312    2177.1393    123678.56    10.472245   0.64550012 
  487000   -278.33938    27.049419   -251.28996    1955.7328    112786.62    10.472245   0.65300461 
  487100   -277.14052    29.810801   -247.32971    2155.3869    119047.07    10.472245   0.56430646 
  487200   -275.82377    31.803819   -244.01995    2299.4865    124966.76    10.472245   0.62619983 
  487300   -283.75884    30.906366   -252.85247    2234.5986    99574.529    10.472245   0.67584877 
  487400   -278.83829    28.805603   -250.03269    2082.7088    110075.13    10.472245   0.59231965 
  487500   -272.81495    28.477017   -244.33793    2058.9513    129466.95    10.472245   0.66321627 
  487600    -275.0825    30.971019   -244.11148    2239.2732    127706.49    10.472245   0.69985846 
  487700   -281.53754    31.377727   -250.15981     2268.679    106315.92    10.472245   0.60090077 
  487800   -276.18486    32.989089   -243.19577    2385.1841     122787.4    10.472245   0.62989589 
  487900   -273.36615    27.370258   -245.99589    1978.9302    127421.77    10.472245   0.75248499 
  488000   -273.71129    26.683482   -247.02781    1929.2748    125627.89    10.472245   0.59245496 
  488100   -278.84386    30.592474   -248.25138    2211.9035    111246.69    10.472245   0.65566083 
  488200   -274.52925    31.330838   -243.19841    2265.2889    127971.91    10.472245    0.6529452 
  488300   -277.44978    30.733964   -246.71582    2222.1336    117486.14    10.472245   0.65132398 
  488400   -279.54879    29.873048   -249.67574    2159.8875    109635.12    10.472245   0.66737569 
  488500   -279.89255    35.911821   -243.98073    2596.5041    113666.78    10.472245   0.55797853 
  488600   -277.44342    32.236063   -245.20735    2330.7386    117312.36    10.472245     0.599094 
  488700   -280.07197    27.040396   -253.03157    1955.0804    107642.39    10.472245   0.57713977 
  488800     -281.568    30.412281   -251.15572    2198.8752    106077.26    10.472245   0.57326651 
  488900   -278.22298    31.834068   -246.38892    2301.6735    118526.29    10.472245   0.59604717 
  489000   -275.04992    30.576377   -244.47354    2210.7397    126568.94    10.472245   0.60868131 
  489100   -281.90161    30.288516   -251.61309    2189.9267    104662.19    10.472245   0.59530591 
  489200   -278.82398    34.273153   -244.55082    2478.0248    117103.47    10.472245   0.63965607 
  489300   -278.46292    33.307159   -245.15576    2408.1813    113935.06    10.472245   0.57397924 
  489400   -277.78032    25.110195   -252.67013    1815.5226    113501.91    10.472245   0.73170377 
  489500   -273.55737    29.149879   -244.40749    2107.6008    129606.26    10.472245   0.61997329 
  489600   -278.90508    32.294524   -246.61056    2334.9655    112849.05    10.472245   0.67192752 
  489700   -280.20873    28.123093   -252.08564    2033.3618    107162.42    10.472245   0.53735569 
  489800   -274.10946    31.143817   -242.96564    2251.7669    127431.91    10.472245    0.6542919 
  489900   -277.16796    30.635804   -246.53216    2215.0364    118983.44    10.472245   0.62556857 
  490000   -281.07037    30.091056   -250.97932    2175.6499    107268.18    10.472245   0.67664771 
  490100   -279.09151    37.070064   -242.02145    2680.2477    116704.46    10.472245   0.60253946 
  490200   -275.47687    27.143622   -248.33325    1962.5439    121085.46    10.472245   0.68379094 
  490300   -279.33702    30.702872   -248.63415    2219.8855    109490.18    10.472245   0.54558077 
  490400   -277.28846    31.121707   -246.16676    2250.1682    118480.79    10.472245   0.66831518 
  490500   -275.18617    27.286843   -247.89933    1972.8991    121506.31    10.472245   0.65569945 
  490600   -280.45234    27.047453   -253.40488    1955.5907    106292.64    10.472245   0.61258507 
  490700   -275.32903    30.892016   -244.43701    2233.5611    124057.14    10.472245   0.56251055 
  490800   -278.38991    31.075544   -247.31436    2246.8306    116235.94    10.472245   0.68460478 
  490900   -278.96132    25.747444   -253.21388    1861.5971    110137.86    10.472245   0.54757316 
  491000   -278.13024    31.182444    -246.9478    2254.5597    114261.03    10.472245   0.61552914 
  491100   -277.86661    34.309926   -243.55668    2480.6835    120055.87    10.472245   0.67992429 
  491200   -280.75243     29.07425   -251.67818    2102.1326     106700.3    10.472245   0.61374468 
  491300   -278.44624    29.354424   -249.09181    2122.3898    114520.35    10.472245   0.57411424 
  491400   -275.34146    29.649728   -245.69173    2143.7409    123957.02    10.472245    0.6806474 
  491500   -276.13388    30.074234   -246.05964    2174.4336    121929.27    10.472245   0.65867648 
  491600   -279.49255    27.258116   -252.23444    1970.8221    110570.54    10.472245   0.62757344 
  491700   -274.68778    30.703387   -243.98439    2219.9228     127378.1    10.472245    0.7044031 
  491800   -277.52007    31.988589   -245.53148    2312.8458    117530.96    10.472245   0.67486556 
  491900   -279.84043    26.671042   -253.16939    1928.3753    108289.58    10.472245   0.58583661 
  492000   -276.94966     31.70651   -245.24315    2292.4508    120986.84    10.472245   0.64296675 
  492100   -276.37268    29.369119   -247.00356    2123.4523    118383.91    10.472245   0.68542402 
  492200   -279.51323    29.720407   -249.79282    2148.8512    109184.85    10.472245   0.68208824 
  492300   -273.22134    31.896384   -241.32496    2306.1791    131075.83    10.472245    0.5926755 
  492400   -275.40124    27.686562   -247.71468    2001.7997    122396.88    10.472245   0.69124013 
  492500   -275.64843    27.777941   -247.87049    2008.4065     120349.9    10.472245   0.70281375 
  492600   -275.70178    29.926211   -245.77557    2163.7313    122244.65    10.472245   0.65132379 
  492700   -274.97673    33.773598   -241.20314    2441.9058    126676.84    10.472245   0.58688749 
  492800   -277.18838    32.730564   -244.45782    2366.4922    117418.73    10.472245   0.59803336 
  492900   -278.91732    29.712033   -249.20529    2148.2457    113680.89    10.472245   0.64489853 
  493000   -274.65079    33.193272   -241.45752     2399.947    125725.58    10.472245   0.81009765 
  493100   -275.18368    31.784616   -243.39906     2298.098    125504.51    10.472245   0.69813379 
  493200   -276.25852    28.499337   -247.75918    2060.5651    121295.46    10.472245    0.5768801 
  493300   -275.29534    30.108168   -245.18718    2176.8872    125583.33    10.472245   0.74889483 
  493400   -278.50159    35.533676   -242.96791    2569.1634    119218.06    10.472245   0.64631296 
  493500   -276.04758    26.862189   -249.18539    1942.1957    119909.03    10.472245   0.63886736 
  493600   -276.12558    30.183583     -245.942    2182.3398    120566.68    10.472245   0.60130067 
  493700   -271.07402    33.474779   -237.59924    2420.3006    140575.38    10.472245   0.66841678 
  493800   -276.34812    30.294298   -246.05382    2190.3448     121467.9    10.472245   0.57401143 
  493900   -280.23421    31.802536   -248.43167    2299.3937    110674.42    10.472245   0.63538454 
  494000   -277.29163    37.529876   -239.76176     2713.493    124577.35    10.472245   0.69083589 
  494100   -275.16556    28.074636   -247.09092    2029.8583    120377.33    10.472245   0.69243261 
  494200    -280.0494    31.331536   -248.71787    2265.3394    110125.71    10.472245   0.61393307 
  494300    -274.1423    31.217286   -242.92502    2257.0788    125990.68    10.472245   0.55054755 
  494400   -274.05745    36.447869   -237.60958    2635.2615    130761.97    10.472245     0.691456 
  494500   -278.13358    30.772297   -247.36128    2224.9051    117760.94    10.472245   0.58586668 
  494600   -277.48007    30.668287   -246.81178     2217.385    120131.98    10.472245   0.69363019 
  494700   -274.99673    31.951411   -243.04532    2310.1577    129146.11    10.472245   0.63375895 
  494800   -278.14782    31.181004   -246.96682    2254.4556    117660.12    10.472245   0.59506247 
  494900      -280.42    30.881393   -249.53861     2232.793    108722.52    10.472245   0.56148723 
  495000   -273.07536    28.924032   -244.15133    2091.2715    129518.52    10.472245   0.65323282 
  495100   -276.35471    30.519914   -245.83479    2206.6573       123902    10.472245   0.71528678 
  495200   -275.00843    33.406487   -241.60194    2415.3629    126122.55    10.472245   0.61446641 
  495300   -277.19447    26.857374    -250.3371    1941.8476    115795.89    10.472245   0.55873469 
  495400   -277.15105    30.224836   -246.92622    2185.3225     117782.9    10.472245   0.66071123 
  495500   -275.83378    32.979123   -242.85466    2384.4635    124575.13    10.472245   0.56834784 
  495600   -276.98676    31.228107   -245.75865    2257.8612    119526.68    10.472245   0.70972934 
  495700   -276.84145    29.823724   -247.01773    2156.3212    119905.24    10.472245   0.60291204 
  495800   -278.87969    28.359836   -250.51986    2050.4788    112576.49    10.472245   0.67424471 
  495900   -279.77581    36.717503   -243.05831    2654.7567    114368.14    10.472245   0.65934579 
  496000   -277.20614    30.866676   -246.33946     2231.729    120934.61    10.472245   0.58059808 
  496100   -277.86118    26.784214   -251.07697    1936.5579    115184.63    10.472245   0.62742392 
  496200    -275.7383    29.919367   -245.81893    2163.2364    125623.77    10.472245   0.75363086 
  496300   -272.37288    28.724537   -243.64834    2076.8475    133196.27    10.472245   0.71066886 
  496400   -281.41837    29.130512   -252.28786    2106.2005    107171.24    10.472245   0.61320206 
  496500   -275.76382    26.412881   -249.35094    1909.7097     118693.3    10.472245   0.62423017 
  496600   -275.38299    31.510923   -243.87207    2278.3094    124635.69    10.472245    0.6246928 
  496700   -277.05158    30.399268   -246.65231    2197.9343    119459.39    10.472245   0.73230215 
  496800   -277.97941    26.851794   -251.12762    1941.4441    114905.74    10.472245   0.60818243 
  496900   -274.59769    30.625092    -243.9726    2214.2619    128620.96    10.472245   0.65877915 
  497000   -279.65497    31.466985   -248.18799    2275.1326    111134.39    10.472245   0.61465177 
  497100   -283.51419    26.036208   -257.47798    1882.4754    96231.622    10.472245   0.52733578 
  497200   -281.55879    29.645439   -251.91335    2143.4308    105724.13    10.472245   0.61955985 
  497300   -276.10843    31.410847   -244.69758    2271.0737    122083.45    10.472245   0.61941337 
  497400   -276.69839    30.731758   -245.96663    2221.9741    118701.13    10.472245   0.57856023 
  497500   -280.38963    28.282913   -252.10672    2044.9171    107413.26    10.472245   0.65101042 
  497600    -273.2485    29.879584   -243.36892      2160.36    127622.15    10.472245   0.74054472 
  497700   -275.61629    29.830271   -245.78602    2156.7946    120713.24    10.472245   0.71402774 
  497800   -279.98442     30.19961   -249.78481    2183.4986     109793.7    10.472245   0.63276761 
  497900   -270.09624    29.325112   -240.77113    2120.2705    137542.47    10.472245   0.59755508 
  498000   -281.73451    33.313697   -248.42082     2408.654    104865.92    10.472245   0.64483546 
  498100   -273.27401    25.915369   -247.35864    1873.7385    125830.19    10.472245   0.72108409 
  498200   -271.94566     34.01064   -237.93502    2459.0445    134687.73    10.472245    0.6617833 
  498300   -271.60074    34.451561   -237.14917     2490.924    137281.71    10.472245   0.71912477 
  498400   -278.34212     32.48766   -245.85446    2348.9297    117098.81    10.472245   0.64338675 
  498500   -278.56049    27.891023   -250.66947    2016.5827    114203.69    10.472245   0.65107993 
  498600   -273.91224    31.372828   -242.53941    2268.3248    127779.98    10.472245   0.72602483 
  498700   -278.40582    33.453581   -244.95224    2418.7679    115027.54    10.472245   0.60994032 
  498800    -277.9136    27.292422   -250.62118    1973.3025    114728.69    10.472245   0.62527898 
  498900   -278.88097    33.099784   -245.78118    2393.1876    114594.37    10.472245   0.67997299 
  499000   -275.55639    33.434366   -242.12202    2417.3786    124636.15    10.472245   0.61614806 
  499100   -276.14022    29.376277   -246.76394    2123.9698    121970.36    10.472245   0.69456979 
  499200   -274.75543    24.923731   -249.83169    1802.0409    122992.92    10.472245     0.644578 
  499300   -274.22642     32.95762    -241.2688    2382.9088    128019.04    10.472245   0.67268777 
  499400   -273.06752    27.351097   -245.71642    1977.5448    129330.44    10.472245   0.64946451 
  499500   -279.42271     31.74475   -247.67796    2295.2156    112518.15    10.472245   0.54921962 
  499600   -274.77463    31.802824    -242.9718    2299.4145     124322.7    10.472245   0.67141882 
  499700   -275.47964    30.699638      -244.78    2219.6517    124761.73    10.472245   0.69122362 
  499800   -281.07219    30.677083   -250.39511    2218.0209    105822.41    10.472245   0.62568315 
  499900   -274.42454    30.618488   -243.80605    2213.7844    128001.37    10.472245   0.70955489 
  500000   -276.11925    29.866008   -246.25324    2159.3785    122573.59    10.472245   0.66255737 
Loop time of 158.812 on 1 procs for 500000 steps with 108 atoms

Performance: 1360.096 ns/day, 0.018 hours/ns, 3148.371 timesteps/s
100.0% CPU use with 1 MPI tasks x no OpenMP threads

MPI task timing breakdown:
Section |  min time  |  avg time  |  max time  |%varavg| %total
---------------------------------------------------------------
Pair    | 94.072     | 94.072     | 94.072     |   0.0 | 59.23
Neigh   | 6.6835     | 6.6835     | 6.6835     |   0.0 |  4.21
Comm    | 2.5628     | 2.5628     | 2.5628     |   0.0 |  1.61
Output  | 0.089165   | 0.089165   | 0.089165   |   0.0 |  0.06
Modify  | 54.982     | 54.982     | 54.982     |   0.0 | 34.62
Other   |            | 0.4224     |            |       |  0.27

Nlocal:    108 ave 108 max 108 min
Histogram: 1 0 0 0 0 0 0 0 0 0
Nghost:    994 ave 994 max 994 min
Histogram: 1 0 0 0 0 0 0 0 0 0
Neighs:    5572 ave 5572 max 5572 min
Histogram: 1 0 0 0 0 0 0 0 0 0

Total # of neighbors = 5572
Ave neighs/atom = 51.5926
Neighbor list builds = 28797
Dangerous builds = 15
    
Total wall time: 0:02:38
