LAMMPS (3 Mar 2020)

# ---------- 1. Initialize simulation ----------
units metal
atom_style atomic
dimension 3
boundary p p p
read_data /home/modeler/RemLabs/Project/Si_3x3x3_supercell_MD/1000.0/20201204-023634/lammps.data
  orthogonal box = (0 0 0) to (17.469 17.469 17.469)
  1 by 1 by 1 MPI processor grid
  reading atoms ...
  217 atoms
  read_data CPU = 0.000924377 secs

pair_style meam/c
pair_coeff * * library.meam Li Si LiSi.meam Li Si
Reading potential file library.meam with DATE: 2012-06-29
Reading potential file LiSi.meam with DATE: 2020-11-07

group Li type 1
1 atoms in group Li

velocity all create 1000.0 3320 dist gaussian

# ---------- 2. Describe computed properties----------
compute msdli Li msd
thermo_style custom step pe ke etotal temp press density c_msdli[4]
thermo 100

# ---------- 3. Specify ensemble  ----------
#fix 1 all nve
fix 1 all nvt temp 1000.0 1000.0 0.25
#fix 1 all npt temp 1000.0 1000.0 0.25 tchain 2 iso 1.0 1.0 1.0 pchain 2

# ---------- 4. Run -------------
timestep 0.005
run 5000
Neighbor list info ...
  update every 1 steps, delay 10 steps, check yes
  max neighbors/atom: 2000, page size: 100000
  master list distance cutoff = 6
  ghost atom cutoff = 6
  binsize = 3, bins = 6 6 6
  2 neighbor lists, perpetual/occasional/extra = 2 0 0
  (1) pair meam/c, perpetual
      attributes: full, newton on
      pair build: full/bin/atomonly
      stencil: full/bin/3d
      bin: standard
  (2) pair meam/c, perpetual, half/full from (1)
      attributes: half, newton on
      pair build: halffull/newton
      stencil: none
      bin: none
Per MPI rank memory allocation (min/avg/max) = 9.266 | 9.266 | 9.266 Mbytes
Step PotEng KinEng TotEng Temp Press Density c_msdli[4] 
       0   -951.06911    27.920191   -923.14891         1000   -118657.61    1.8918427            0 
     100    -932.9507    19.717153   -913.23354    706.19692   -98929.104    1.8918427  0.023194542 
     200   -924.93895     25.66238   -899.27657     919.1334   -91180.471    1.8918427  0.089573145 
     300   -923.19411    31.432098   -891.76202    1125.7838   -86581.472    1.8918427  0.052053149 
     400   -923.65723    25.532363   -898.12487    914.47666   -89478.946    1.8918427 0.0018086591 
     500   -926.45011     28.13338   -898.31673    1007.6356    -93353.69    1.8918427  0.024056578 
     600   -924.65363    31.314007   -893.33963    1121.5542   -88521.652    1.8918427   0.13644849 
     700   -924.40099    27.233323   -897.16767    975.39885   -89670.647    1.8918427   0.05473498 
     800   -926.65281    28.729984   -897.92283    1029.0038   -92150.443    1.8918427  0.037577275 
     900   -921.90313    28.390073   -893.51305    1016.8295   -89785.486    1.8918427  0.053194736 
    1000   -923.06958    27.177199   -895.89239    973.38871    -88521.42    1.8918427   0.38288509 
    1100   -923.41173    26.814659   -896.59707    960.40383   -90196.476    1.8918427   0.08801087 
    1200   -922.70084    27.488737   -895.21211    984.54688    -89531.15    1.8918427   0.12094177 
    1300   -923.03784    28.073163   -894.96468    1005.4789   -89641.796    1.8918427  0.062844423 
    1400   -925.16625    25.970709   -899.19555    930.17661   -91585.462    1.8918427   0.03923213 
    1500   -926.02694    32.764322   -893.26262    1173.4992   -91178.779    1.8918427  0.029740086 
    1600   -923.85462     27.36279   -896.49183     980.0359   -90983.871    1.8918427  0.038937127 
    1700   -925.33679     27.57048   -897.76631    987.47462   -92626.355    1.8918427  0.074264714 
    1800   -923.74828    31.640337   -892.10794    1133.2421    -90060.32    1.8918427  0.089285781 
    1900   -923.53318     26.60925   -896.92393    953.04685   -91124.037    1.8918427   0.21910624 
    2000   -924.52948    27.959628   -896.56985    1001.4125   -91681.174    1.8918427   0.15934908 
    2100   -920.51507    29.255313   -891.25976    1047.8192   -86827.018    1.8918427   0.09435408 
    2200   -924.97103      28.9571   -896.01393    1037.1383   -92821.372    1.8918427  0.050126735 
    2300   -924.42972     27.39808   -897.03164    981.29988   -90824.021    1.8918427  0.011773973 
    2400   -921.67609    29.325755   -892.35033    1050.3422   -87758.482    1.8918427  0.048469963 
    2500   -924.29915    27.277061   -897.02209    976.96539   -90805.461    1.8918427   0.15504327 
    2600   -922.66974    25.909163   -896.76057    927.97224   -90192.767    1.8918427  0.037771704 
    2700   -922.72564    30.904072   -891.82156    1106.8718   -86935.139    1.8918427   0.10985658 
    2800    -923.1062     28.89241   -894.21379    1034.8213   -88367.056    1.8918427  0.051738188 
    2900   -925.53308    27.947177    -897.5859    1000.9665   -91217.435    1.8918427  0.039019962 
    3000   -922.10086    27.431652   -894.66921     982.5023   -86968.133    1.8918427  0.019906076 
    3100   -924.09418    29.582822   -894.51136    1059.5494   -89858.325    1.8918427  0.047751905 
    3200    -925.2549    26.975371   -898.27953    966.15995   -91913.142    1.8918427  0.036859749 
    3300   -923.27277    29.313914   -893.95885    1049.9181   -88369.464    1.8918427   0.01444647 
    3400   -925.45302     25.91622    -899.5368      928.225    -91284.01    1.8918427  0.032326212 
    3500    -923.8852    26.667812   -897.21738    955.14431   -88565.239    1.8918427   0.11472625 
    3600   -924.38665     29.65956   -894.72709    1062.2979   -90416.516    1.8918427   0.10935822 
    3700   -926.69675    26.236089   -900.46066    939.68155   -92615.878    1.8918427  0.044050949 
    3800   -923.92461    26.290641   -897.63397    941.63542   -90423.209    1.8918427 0.00023098683 
    3900   -924.49079    29.108983    -895.3818    1042.5782     -90979.2    1.8918427  0.014874061 
    4000   -926.17377    28.517829   -897.65594    1021.4052   -92527.755    1.8918427  0.022819501 
    4100   -923.35276    24.881757     -898.471    891.17432   -92402.859    1.8918427    0.2896068 
    4200   -924.30436    29.644431   -894.65993     1061.756    -89359.43    1.8918427   0.14698144 
    4300   -926.03545    28.552727   -897.48272    1022.6551   -92118.234    1.8918427  0.041422331 
    4400   -926.97577    24.530682   -902.44509    878.60006   -93989.587    1.8918427  0.063503421 
    4500   -924.94157    28.327533   -896.61404    1014.5895   -91161.957    1.8918427   0.02890402 
    4600   -922.99644    28.460388   -894.53605    1019.3479   -88711.803    1.8918427   0.14346546 
    4700   -924.03767    25.968092   -898.06957    930.08288   -91933.167    1.8918427  0.091559892 
    4800   -922.28722    25.271482   -897.01574    905.13285   -90142.154    1.8918427   0.14236653 
    4900   -924.85641    30.408546   -894.44786    1089.1238    -91702.95    1.8918427   0.29103473 
    5000   -926.55219    28.131629   -898.42056    1007.5729   -95415.437    1.8918427   0.16205376 
Loop time of 2.66166 on 1 procs for 5000 steps with 217 atoms

Performance: 811.523 ns/day, 0.030 hours/ns, 1878.526 timesteps/s
100.0% CPU use with 1 MPI tasks x no OpenMP threads

MPI task timing breakdown:
Section |  min time  |  avg time  |  max time  |%varavg| %total
---------------------------------------------------------------
Pair    | 2.6025     | 2.6025     | 2.6025     |   0.0 | 97.78
Neigh   | 0.0097987  | 0.0097987  | 0.0097987  |   0.0 |  0.37
Comm    | 0.020732   | 0.020732   | 0.020732   |   0.0 |  0.78
Output  | 0.0014518  | 0.0014518  | 0.0014518  |   0.0 |  0.05
Modify  | 0.020829   | 0.020829   | 0.020829   |   0.0 |  0.78
Other   |            | 0.006373   |            |       |  0.24

Nlocal:    217 ave 217 max 217 min
Histogram: 1 0 0 0 0 0 0 0 0 0
Nghost:    928 ave 928 max 928 min
Histogram: 1 0 0 0 0 0 0 0 0 0
Neighs:    3610 ave 3610 max 3610 min
Histogram: 1 0 0 0 0 0 0 0 0 0
FullNghs:  7220 ave 7220 max 7220 min
Histogram: 1 0 0 0 0 0 0 0 0 0

Total # of neighbors = 7220
Ave neighs/atom = 33.2719
Neighbor list builds = 18
Dangerous builds = 0
Total wall time: 0:00:02
