LAMMPS (3 Mar 2020)

# ---------- 1. Initialize simulation ----------
units metal
atom_style atomic
dimension 3
boundary p p p
read_data /home/modeler/RemLabs/Project/eval_timestep/n3_T1800_timestep2.416465e-03_steps6208/20201204-080410/lammps.data
  orthogonal box = (0 0 0) to (17.469 17.469 17.469)
  1 by 1 by 1 MPI processor grid
  reading atoms ...
  217 atoms
  read_data CPU = 0.000967902 secs

pair_style meam/c
pair_coeff * * library.meam Li Si LiSi.meam Li Si
Reading potential file library.meam with DATE: 2012-06-29
Reading potential file LiSi.meam with DATE: 2020-11-07

group Li type 1
1 atoms in group Li

velocity all create 1800 3320 dist gaussian

# ---------- 2. Describe computed properties----------
compute msdli Li msd
thermo_style custom step pe ke etotal temp press density c_msdli[4]
thermo 100

# ---------- 3. Specify ensemble  ----------
fix 1 all npt temp 1800 1800 0.1208232559642938 tchain 2 iso 1.0 1.0 1.0 pchain 2

# ---------- 4. Run -------------
timestep 0.002416465119285876
run 6208
Neighbor list info ...
  update every 1 steps, delay 10 steps, check yes
  max neighbors/atom: 2000, page size: 100000
  master list distance cutoff = 6
  ghost atom cutoff = 6
  binsize = 3, bins = 6 6 6
  2 neighbor lists, perpetual/occasional/extra = 2 0 0
  (1) pair meam/c, perpetual
      attributes: full, newton on
      pair build: full/bin/atomonly
      stencil: full/bin/3d
      bin: standard
  (2) pair meam/c, perpetual, half/full from (1)
      attributes: half, newton on
      pair build: halffull/newton
      stencil: none
      bin: none
Per MPI rank memory allocation (min/avg/max) = 9.27 | 9.27 | 9.27 Mbytes
Step PotEng KinEng TotEng Temp Press Density c_msdli[4] 
       0   -951.06911    50.256344   -900.81276         1800    -114182.3    1.8918427            0 
     100   -950.61514    36.778022   -913.83712    1317.2554        45020    2.2961321    0.4677643 
     200   -948.08059    38.325681   -909.75491    1372.6869   -21233.915    2.1196116   0.26724567 
     300   -954.35906    47.971441   -906.38762    1718.1631    10149.364    2.2141226   0.18623968 
     400    -945.4857    44.581979   -900.90373    1596.7648   -1295.6236    2.1618083    0.1297105 
     500   -942.81291    44.786833   -898.02607    1604.1019   -4460.3959    2.1522774   0.52260857 
     600   -941.66651    49.803348   -891.86316    1783.7753    12691.838     2.189435   0.39774351 
     700   -933.55869    42.741545   -890.81714    1530.8471   -14542.304    2.1107626    1.7916593 
     800    -941.7207    57.009728   -884.71097    2041.8817    15041.522    2.1991621   0.36308908 
     900   -937.36919    44.686925   -892.68226    1600.5236   -13827.572    2.1210431   0.14422672 
    1000   -941.64978    52.195283    -889.4545    1869.4458    11698.529    2.1887926  0.030487038 
    1100   -943.92322    49.116578   -894.80664    1759.1777   -6472.6614    2.1483493   0.78534979 
    1200   -948.62399    44.781747   -903.84225    1603.9198    2105.0521     2.182936   0.44125547 
    1300   -942.93192    49.362923     -893.569    1768.0009    1867.6261    2.1701523    0.2843431 
    1400   -941.18021     48.96232   -892.21789    1753.6527   -5606.2103     2.145177     0.586544 
    1500   -942.51233     55.35157   -887.16076    1982.4925    7468.5315    2.1801791   0.39445981 
    1600   -942.34073    47.612109   -894.72862    1705.2931   -13362.275    2.1328146   0.24410471 
    1700   -945.77434       53.187   -892.58734    1904.9655    12125.404    2.1972965   0.50268754 
    1800     -933.066    48.892818   -884.17318    1751.1634   -9495.3651    2.1221182    0.2544894 
    1900   -942.00269    50.540544   -891.46214     1810.179    5539.2084    2.1726309   0.19363174 
    2000   -940.73097      48.6815   -892.04947    1743.5948    1475.1562    2.1627194   0.19138374 
    2100   -939.76992    49.462837   -890.30709    1771.5795   -2784.4006    2.1482784   0.30417974 
    2200   -940.91001    51.341893   -889.56812    1838.8804     8259.926     2.179007   0.11788035 
    2300   -933.08177    53.728402   -879.35337    1924.3565     -15166.5    2.1068318    1.4079842 
    2400   -941.51608    53.794267   -887.72181    1926.7156    14153.139    2.1939129    9.5973971 
    2500   -941.68621    49.834047   -891.85216    1784.8748   -13774.017    2.1278944    12.459249 
    2600   -937.05701    50.620674   -886.43634     1813.049    13650.678    2.1840562    11.918076 
    2700   -941.71208     46.20415   -895.50793    1654.8651     -10144.3    2.1400953    13.775819 
    2800    -941.4213    48.768804   -892.65249    1746.7217    7113.3103    2.1788006    14.268635 
    2900   -940.15507    56.255845   -883.89923    2014.8804   -5576.5169    2.1431437    13.300017 
    3000    -943.9707    51.187428   -892.78327     1833.348   -4598.7687    2.1546336    13.576612 
    3100   -942.52644    51.986726   -890.53971     1861.976    7172.2162    2.1816488    11.602034 
    3200   -940.92752    50.966539   -889.96098    1825.4366   -11367.693    2.1307089    14.395533 
    3300   -946.56389    46.273666   -900.29022    1657.3549    14002.716    2.2084361    12.141378 
    3400   -943.34586    50.929209   -892.41665    1824.0996   -12845.471    2.1347551     11.98738 
    3500   -942.22588    52.840429   -889.38545    1892.5525    9139.9981    2.1830601    12.427897 
    3600   -940.52407    47.925545   -892.59853    1716.5192    -9385.309    2.1436849    13.326225 
    3700   -940.63241    56.324766   -884.30764    2017.3489    5649.7585    2.1704267    13.584044 
    3800    -934.8568    50.229416   -884.62738    1799.0355   -4178.6031    2.1371682    13.840658 
    3900   -943.33205    49.567579   -893.76447    1775.3309    3564.8977    2.1775458    14.105968 
    4000   -936.79162    47.740209   -889.05141    1709.8812    4178.5374    2.1631187    11.937856 
    4100   -940.14917    49.337006   -890.81216    1767.0726   -7337.0981    2.1433348    15.495353 
    4200    -947.5768    52.890342   -894.68646    1894.3403    9691.2351    2.1995453    12.935738 
    4300   -934.48223    50.055548   -884.42668    1792.8082   -12287.413    2.1210425    10.999169 
    4400   -940.62919    52.235336   -888.39385    1870.8803     11152.97    2.1882492    11.686589 
    4500   -940.31211    47.120376   -893.19173     1687.681   -7452.4255    2.1442318    13.020371 
    4600   -938.55268    50.375611   -888.17707    1804.2717    8695.4903    2.1755442    14.290286 
    4700   -937.03006    53.050019   -883.98004    1900.0593   -3959.0913    2.1407724    16.399636 
    4800   -935.59445    57.149265   -878.44518    2046.8794   -3652.6821    2.1444184     13.54916 
    4900   -941.78616    53.215868   -888.57029    1905.9994    3548.7905     2.171971    12.783051 
    5000   -942.58334     52.89428   -889.68906    1894.4813   -9010.5068    2.1407777    16.825153 
    5100   -938.32459    55.170484   -883.15411    1976.0067    8317.5967    2.1765912    28.161744 
    5200   -936.45421    46.485668   -889.96855     1664.948   -10718.237    2.1261131    12.046238 
    5300   -940.47356    47.680567   -892.79299     1707.745    11445.661    2.1921404    4.4525254 
    5400   -937.34991    49.578222   -887.77169    1775.7121   -3654.0301    2.1449266     6.888937 
    5500   -939.46946    52.758228   -886.71123    1889.6084   -3703.1792    2.1471631     4.732164 
    5600   -946.26459    54.622108   -891.64248    1956.3658    4051.9205    2.1801111    5.1303872 
    5700   -941.13447    44.982639   -896.15183     1611.115   -6434.8062    2.1470829    7.3205397 
    5800   -940.78346    54.120015   -886.66345    1938.3827    11346.853    2.1893781    6.4016665 
    5900   -939.40827    51.331847   -888.07642    1838.5206    -12551.15     2.129819    5.5079939 
    6000   -942.70682    48.378428   -894.32839    1732.7398    7120.5502    2.1839157    5.4567566 
    6100   -944.66013    51.412458   -893.24767    1841.4078    524.32867    2.1667967    6.2413767 
    6200   -938.04398    49.243551   -888.80042    1763.7254    -5938.623    2.1425115    5.7352901 
    6208   -941.90113    53.006975   -888.89415    1898.5176   -9300.1378    2.1368124    5.4278349 
Loop time of 4.32333 on 1 procs for 6208 steps with 217 atoms

Performance: 299.797 ns/day, 0.080 hours/ns, 1435.931 timesteps/s
100.2% CPU use with 1 MPI tasks x no OpenMP threads

MPI task timing breakdown:
Section |  min time  |  avg time  |  max time  |%varavg| %total
---------------------------------------------------------------
Pair    | 4.1442     | 4.1442     | 4.1442     |   0.0 | 95.86
Neigh   | 0.084248   | 0.084248   | 0.084248   |   0.0 |  1.95
Comm    | 0.028147   | 0.028147   | 0.028147   |   0.0 |  0.65
Output  | 0.0017166  | 0.0017166  | 0.0017166  |   0.0 |  0.04
Modify  | 0.055729   | 0.055729   | 0.055729   |   0.0 |  1.29
Other   |            | 0.009282   |            |       |  0.21

Nlocal:    217 ave 217 max 217 min
Histogram: 1 0 0 0 0 0 0 0 0 0
Nghost:    957 ave 957 max 957 min
Histogram: 1 0 0 0 0 0 0 0 0 0
Neighs:    4145 ave 4145 max 4145 min
Histogram: 1 0 0 0 0 0 0 0 0 0
FullNghs:  8290 ave 8290 max 8290 min
Histogram: 1 0 0 0 0 0 0 0 0 0

Total # of neighbors = 8290
Ave neighs/atom = 38.2028
Neighbor list builds = 143
Dangerous builds = 0
Total wall time: 0:00:04
