LAMMPS (3 Mar 2020)

# ---------- 1. Initialize simulation ----------
units metal
atom_style atomic
dimension 3
boundary p p p
read_data /home/modeler/RemLabs/Project/arrhenius_4/T1700.0/n3_T1700.0_timestep3.000000e-03_eqsteps3200_time600_rseed3336/20201205-141715/lammps.data
  orthogonal box = (0 0 0) to (17.469 17.469 17.469)
  1 by 1 by 1 MPI processor grid
  reading atoms ...
  217 atoms
  read_data CPU = 0.00102624 secs

pair_style meam/c
pair_coeff * * library.meam Li Si LiSi.meam Li Si
Reading potential file library.meam with DATE: 2012-06-29
Reading potential file LiSi.meam with DATE: 2020-11-07

group Li type 1
1 atoms in group Li
group Si type 2
216 atoms in group Si

velocity all create 1700.0 3336 dist gaussian

# ---------- 2. Specify equilibration ensemble  ----------
fix 1 all npt temp 1700.0 1700.0 0.15 tchain 2 iso 1.0 1.0 1.0 pchain 2
# fix 1 all nvt temp 1700.0 1700.0 0.15

# ---------- 3. Run equilibration -------------
timestep 0.003
run 3200
Neighbor list info ...
  update every 1 steps, delay 10 steps, check yes
  max neighbors/atom: 2000, page size: 100000
  master list distance cutoff = 6
  ghost atom cutoff = 6
  binsize = 3, bins = 6 6 6
  2 neighbor lists, perpetual/occasional/extra = 2 0 0
  (1) pair meam/c, perpetual
      attributes: full, newton on
      pair build: full/bin/atomonly
      stencil: full/bin/3d
      bin: standard
  (2) pair meam/c, perpetual, half/full from (1)
      attributes: half, newton on
      pair build: halffull/newton
      stencil: none
      bin: none
Per MPI rank memory allocation (min/avg/max) = 8.895 | 8.895 | 8.895 Mbytes
Step Temp E_pair E_mol TotEng Press Volume 
       0         1700   -951.04357            0   -903.57924   -114721.17    5330.9442 
    3200    1704.5896   -943.49689            0   -895.90443   -11148.117    4710.7342 
Loop time of 2.31036 on 1 procs for 3200 steps with 217 atoms

Performance: 359.010 ns/day, 0.067 hours/ns, 1385.068 timesteps/s
100.0% CPU use with 1 MPI tasks x no OpenMP threads

MPI task timing breakdown:
Section |  min time  |  avg time  |  max time  |%varavg| %total
---------------------------------------------------------------
Pair    | 2.2033     | 2.2033     | 2.2033     |   0.0 | 95.37
Neigh   | 0.056262   | 0.056262   | 0.056262   |   0.0 |  2.44
Comm    | 0.015207   | 0.015207   | 0.015207   |   0.0 |  0.66
Output  | 2.5737e-05 | 2.5737e-05 | 2.5737e-05 |   0.0 |  0.00
Modify  | 0.030444   | 0.030444   | 0.030444   |   0.0 |  1.32
Other   |            | 0.005124   |            |       |  0.22

Nlocal:    217 ave 217 max 217 min
Histogram: 1 0 0 0 0 0 0 0 0 0
Nghost:    949 ave 949 max 949 min
Histogram: 1 0 0 0 0 0 0 0 0 0
Neighs:    4121 ave 4121 max 4121 min
Histogram: 1 0 0 0 0 0 0 0 0 0
FullNghs:  8242 ave 8242 max 8242 min
Histogram: 1 0 0 0 0 0 0 0 0 0

Total # of neighbors = 8242
Ave neighs/atom = 37.9816
Neighbor list builds = 95
Dangerous builds = 0

# ---------- 4. Describe computed properties----------
compute msdli Li msd
compute msdsi Si msd
thermo_style custom step pe ke etotal temp press density c_msdli[4] c_msdsi[4]
thermo 100

# ---------- 3. Run production -------------
timestep 0.003
run 200000
Per MPI rank memory allocation (min/avg/max) = 9.663 | 9.663 | 9.663 Mbytes
Step PotEng KinEng TotEng Temp Press Density c_msdli[4] c_msdsi[4] 
    3200   -943.49689    47.592468   -895.90443    1704.5896   -11148.117    2.1409206            0 1.7401134e-32 
    3300   -942.66867    46.210266   -896.45841    1655.0842    4416.5954     2.178314  0.062413033   0.11145302 
    3400    -947.6759    45.623941   -902.05196    1634.0841    8825.3151     2.205446        0.149   0.12133959 
    3500   -946.57427     42.06233   -904.51194    1506.5201   -3772.0596      2.16681   0.20168084    0.1442649 
    3600   -945.23936    49.686833   -895.55253    1779.6022   -11158.189    2.1438185   0.30389541   0.14283927 
    3700   -945.65885    49.521257   -896.13759    1773.6718    5649.1931    2.1918393    0.7707473   0.13773185 
    3800   -944.44947    46.676954   -897.77252    1671.7992     7471.144    2.1903219  0.077575088   0.12808402 
    3900   -936.60284    49.125962   -887.47688    1759.5138   -8964.2167    2.1328828   0.18365356   0.14361639 
    4000   -941.01118    48.340763   -892.67042    1731.3908   -854.14243    2.1651331 0.0050660144   0.13918927 
    4100   -944.48099    48.091328   -896.38966     1722.457    8796.1175    2.1896643  0.087380732   0.10199977 
    4200   -943.31507     45.07597    -898.2391    1614.4578   -1288.0731    2.1644672   0.13444164   0.10947945 
    4300   -938.96094    50.570003   -888.39093    1811.2341   -5647.5282    2.1437919    0.1218823   0.11756659 
    4400   -940.21529    46.679151   -893.53613    1671.8779    7515.5844    2.1855855   0.28323154    0.1789756 
    4500   -942.15687    44.624202   -897.53267    1598.2771   -471.65676    2.1773565   0.41758352   0.17445172 
    4600    -945.0757    48.402705   -896.67299    1733.6094   -7083.0499    2.1564415   0.20031077   0.16236713 
    4700   -939.80942    52.581658   -887.22776    1883.2843     136.9312    2.1587115   0.14466749   0.13365413 
    4800   -942.26458    46.877153   -895.38743    1678.9696    8527.8897    2.1914187  0.034593217   0.12389431 
    4900   -945.83678    47.746458   -898.09032     1710.105   -8621.6995    2.1538665  0.086415522   0.12003184 
    5000   -940.87558     45.85505   -895.02053    1642.3616   -2015.8837    2.1594338   0.12707155   0.14325148 
    5100   -941.51699    52.974983   -888.54201    1897.3718    9579.9145    2.1839007   0.21919186   0.14078803 
    5200   -943.58424    53.093557   -890.49068    1901.6187   -4832.4172    2.1500711   0.51018831   0.14679383 
    5300   -940.56899    43.493247   -897.07574    1557.7704   -5502.8074     2.147849   0.42587164   0.16101466 
    5400   -946.56677    50.290125   -896.27664    1801.2099    7303.3007    2.1925296   0.31713541   0.14914039 
    5500   -944.06478    46.478068   -897.58671    1664.6759    5978.4006    2.1816684   0.17252516   0.16116306 
    5600   -935.47807     49.26541   -886.21266    1764.5083    -6630.107     2.130472  0.046989222   0.15571713 
    5700   -946.22541    53.241118    -892.9843    1906.9038     2982.621    2.1798678  0.052772436   0.13119081 
    5800    -945.1072    48.914043   -896.19316    1751.9236    5161.6105    2.1813443   0.40230193   0.11158735 
    5900   -942.14905    43.611013   -898.53804    1561.9883   -6207.3585     2.151365    1.1678654   0.14113157 
    6000   -939.07668    50.185598   -888.89108    1797.4661    305.20882    2.1592373   0.88281183   0.14743816 
    6100   -943.37269    50.391334   -892.98135    1804.8349      7296.22     2.184885   0.90757639   0.16554846 
    6200   -946.67378    48.652645   -898.02113    1742.5613   -6808.4062    2.1541069    1.0052048   0.15560671 
    6300   -940.92662    48.071633   -892.85498    1721.7515   -2602.9304    2.1529249    1.3181061   0.15426044 
    6400   -936.90399    48.130651   -888.77334    1723.8654     7940.265    2.1784766    7.9147518   0.19013628 
    6500   -947.17933    48.821308   -898.35803    1748.6022    3877.5402    2.1812491    7.9467765   0.15198505 
    6600   -945.40432    49.369354   -896.03497    1768.2312   -12282.247    2.1403382    7.4082615   0.14998611 
    6700   -942.54936    50.762925   -891.78643    1818.1439   -3312.9804    2.1573566    5.9682176   0.15903686 
    6800   -948.01619    46.918448   -901.09774    1680.4487    11750.729    2.2058592    9.3468625    0.1371885 
    6900   -943.32067    47.322144   -895.99853    1694.9076   -3556.0909    2.1554961     9.631347   0.15044227 
    7000   -940.28935    46.771594   -893.51776    1675.1889   -5945.6176    2.1421086    9.5042201   0.13947863 
    7100   -948.95572    49.123677   -899.83205     1759.432    2604.1629    2.1833236    5.1314742   0.15959889 
    7200   -943.20763    44.034667   -899.17296    1577.1621     6076.837    2.1820378    10.000722   0.16275433 
    7300   -942.24726     49.52692   -892.72034    1773.8747   -2438.8152    2.1513511    6.2658988   0.15195861 
    7400   -943.88184    46.012646   -897.86919    1648.0061   -1352.9433    2.1597569    7.5149377    0.1547348 
    7500   -949.11033    49.683854   -899.42648    1779.4955    55.426418    2.1802685    8.2483019   0.14458402 
    7600   -939.82267    49.944867    -889.8778     1788.844    366.30468    2.1512224    9.2488657   0.14933861 
    7700    -944.1462    47.413363   -896.73284    1698.1747   -1021.0685    2.1654874    7.1704796   0.16063168 
    7800   -945.16223    47.813407   -897.34882    1712.5029    1169.1372    2.1713196    6.6994584   0.17412093 
    7900   -937.33154    48.839475   -888.49207    1749.2529    294.89897    2.1568863    7.9445725   0.15478903 
    8000   -939.79071    42.957966   -896.83274    1538.5986    1434.4257    2.1712388    7.0336017   0.17038383 
    8100   -943.75491    46.187612    -897.5673    1654.2728   -3468.1811    2.1633136    3.7610137   0.13797739 
    8200   -941.11915    50.777982   -890.34117    1818.6832   -955.74722    2.1607788    5.2238214   0.16328592 
    8300   -946.80649    48.337352   -898.46914    1731.2686    1604.4651    2.1824073    6.3419914   0.15300412 
    8400   -946.82692    48.717752   -898.10916    1744.8932   -9180.4661    2.1526353    5.9212162     0.155301 
    8500   -945.92845    53.439865   -892.48859    1914.0222   -4939.6428    2.1566727    5.2041788   0.15001991 
    8600   -947.61115    50.006021   -897.60513    1791.0343    10419.579     2.198454    5.2510917   0.17277909 
    8700   -944.47762    44.368461   -900.10916    1589.1174    1998.9895    2.1727658    3.2548042   0.16539518 
    8800   -943.86981    49.660984   -894.20883    1778.6764   -8870.6924    2.1457497    5.3905194   0.15231963 
    8900   -946.52695    52.816749    -893.7102    1891.7044   -1034.9747    2.1729422    7.0982723   0.14310091 
    9000   -944.71832    43.253414   -901.46491    1549.1804    8066.8938    2.1972533    9.0081207   0.13178842 
    9100   -939.35445    46.432749   -892.92171    1663.0527   -6753.8996    2.1437033    7.4672974   0.14795498 
    9200   -941.48102     46.66341   -894.81761    1671.3141   -3469.6142    2.1511196    5.6711809   0.15340939 
    9300   -944.17293    45.120645   -899.05228    1616.0579    13565.774     2.205556    8.5135352   0.16333467 
    9400   -939.40167    48.974272    -890.4274    1754.0808    5893.0612    2.1675025    6.2519471   0.15178428 
    9500   -937.55893    44.908413   -892.65052    1608.4565   -10025.171     2.129059    6.0407811   0.16447448 
    9600   -943.45277    45.500981   -897.95179    1629.6801    -664.5759    2.1706045      5.41134   0.15453719 
    9700   -946.54351    50.107002   -896.43651    1794.6511    11308.136    2.2009835    8.7904362   0.13319974 
    9800   -938.08502    49.185845   -888.89918    1761.6586     -4521.73    2.1423824    5.7939065   0.15238565 
    9900   -944.15856    45.797192   -898.36137    1640.2893   -5865.1938    2.1512943    5.0205419    0.1416012 
   10000   -943.58129    46.970801   -896.61049    1682.3237    2668.4912    2.1757204    8.1702345   0.14403491 
   10100   -939.43795    49.353194   -890.08476    1767.6524    2082.9136    2.1611402    5.5034839   0.16381172 
   10200   -942.22668     45.74839   -896.47829    1638.5414   -2276.4843    2.1539662    6.9069492    0.1523405 
   10300   -946.90086    48.867445   -898.03342    1750.2547   -3131.5441    2.1650693    11.386223   0.15438492 
   10400   -940.21201    48.048321   -892.16369    1720.9166    4833.6379    2.1736033    13.779313   0.15028722 
   10500   -940.87448    44.147497   -896.72699    1581.2032    147.81052    2.1638084    12.290957   0.14594162 
   10600   -945.96324    44.825892   -901.13735    1605.5009   -3143.3307    2.1675842    7.1778562   0.14651994 
   10700   -945.05095    51.368117   -893.68284    1839.8197   -258.66058    2.1701298     7.639054   0.13936202 
   10800   -942.31143    46.676407   -895.63502    1671.7796    597.85997    2.1639502     6.436275   0.13407377 
   10900   -949.02203    46.627304   -902.39473    1670.0209    -2937.561    2.1694681    5.3132391   0.14151514 
   11000   -941.92634    48.972205   -892.95413    1754.0068   -894.58006    2.1650524    6.4522272   0.16037496 
   11100   -943.95322    49.946171   -894.00705    1788.8907    5468.7848    2.1794525    5.6881174   0.16058279 
   11200   -945.07203    44.455719   -900.61631    1592.2426   -6166.7646    2.1584729    6.4520615   0.14866817 
   11300   -940.64432    48.324591   -892.31973    1730.8116    -6549.285    2.1434735    6.3932207   0.15214517 
   11400   -940.62732    48.237228   -892.39009    1727.6826    13937.911    2.1960509    4.3088357   0.16389038 
   11500   -947.28956    48.570886   -898.71867     1739.633   -127.04598    2.1779475    4.8261683   0.13819669 
   11600   -942.67839     48.28263   -894.39576    1729.3087   -13778.742    2.1281626    5.4856773   0.14509942 
   11700   -941.52806    50.077119   -891.45094    1793.5808    1010.6336    2.1619978    5.8468677   0.14327299 
   11800   -948.77153    49.618122   -899.15341    1777.1412    12462.372    2.2098032    4.5012463   0.14892492 
   11900   -943.15108    47.319759   -895.83132    1694.8222   -4232.1841    2.1548278    6.1748298   0.13602513 
   12000   -938.11035     45.25302   -892.85733    1620.7991   -7275.5848    2.1400417    6.8802002    0.1516833 
   12100   -946.03967    45.305811   -900.73386    1622.6899    7689.1183     2.193355    5.0835606    0.1284846 
   12200   -948.97679    53.121318   -895.85547     1902.613    2131.8903    2.1803169    6.8460033   0.13559469 
   12300   -941.02302    47.540785   -893.48223    1702.7385   -6186.0798    2.1486159    6.5036445     0.144909 
   12400   -944.76989    43.106407   -901.66348    1543.9152   -748.04364    2.1731074    4.9183775   0.15076825 
   12500   -944.74523    48.422649   -896.32258    1734.3237    5010.2163    2.1822226    5.9255999   0.13534876 
   12600   -941.67333    48.493899   -893.17943    1736.8756    378.98186    2.1657038    6.0159954   0.14581951 
   12700   -946.14945    44.398679   -901.75077    1590.1997   -3227.4934    2.1653474    5.8233072   0.12738263 
   12800   -941.56707    45.356917   -896.21015    1624.5203     1631.808    2.1709259    6.2508985   0.13773733 
   12900   -942.48293    50.262517   -892.22042    1800.2211    5521.7201    2.1752368    6.4073116   0.15069008 
   13000   -944.51832    43.719791   -900.79853    1565.8844    1140.7837    2.1737978    6.8384338    0.1363343 
   13100   -942.21908    46.255187   -895.96389    1656.6931   -6707.9165    2.1517396    4.8136955   0.13237969 
   13200   -939.93745    48.002438   -891.93501    1719.2733    5018.1456    2.1724424     7.808243   0.12501518 
   13300   -949.61541    50.135589   -899.47982     1795.675    4353.9353    2.1922886    5.1893893   0.13650558 
   13400   -942.49086    45.939525   -896.55134    1645.3872   -9195.7126    2.1428509    5.2345106   0.14226512 
   13500   -939.56307    46.911216   -892.65185    1680.1896   -6678.6005    2.1434507    5.6037721   0.14554506 
   13600   -946.00046    48.137237   -897.86323    1724.1013    15115.233    2.2095434    4.9222681   0.13230685 
   13700   -948.58859    48.437739   -900.15085    1734.8641    584.49869     2.180339    3.9816435   0.11366698 
   13800   -943.68946    51.258654    -892.4308    1835.8991   -15266.723    2.1249896    6.5692789   0.13087483 
   13900   -947.40253    48.622459   -898.78007    1741.4802    1882.1088    2.1780078    5.9000753   0.13585604 
   14000   -944.18795    45.092309   -899.09565     1615.043    13045.733    2.2025297    6.0037924   0.14049994 
   14100   -945.03997    52.394006   -892.64596    1876.5633   -7756.9021     2.149004    6.6251618   0.12906309 
   14200   -941.15984    45.184285   -895.97556    1618.3372   -5710.7386    2.1506833    5.6275469   0.12214569 
   14300   -945.83699    45.736663   -900.10033    1638.1214    5319.0542    2.1894453    4.6852907   0.14965775 
   14400   -940.77628    48.823692   -891.95259    1748.6876    2862.6462    2.1721501    5.4917433   0.15604638 
   14500   -943.51878     47.34133   -896.17745    1695.5948   -6450.6819    2.1508643    6.6053701    0.1245124 
   14600   -944.91347    43.824924   -901.08855    1569.6498   -555.54221    2.1725677     6.516336    0.1293795 
   14700   -942.25896    50.232863    -892.0261     1799.159    4053.8686    2.1768863    6.7664666   0.11962322 
   14800   -941.07566     45.18376    -895.8919    1618.3184    828.83308    2.1665022    6.9975478   0.14311359 
   14900   -944.98371     43.37357   -901.61014     1553.484   -4237.3676    2.1623897     5.237542   0.14721042 
   15000   -946.95884    54.210219   -892.74862    1941.6134   -1848.0555    2.1656293    4.1016243   0.13097872 
   15100   -947.19785    51.393694   -895.80416    1840.7357    3278.1424    2.1828927    4.4520214   0.14597558 
   15200    -944.9681    43.318987   -901.64911     1551.529     -4895.02    2.1638832    4.9003322   0.12897818 
   15300   -943.14403    49.372299   -893.77173    1768.3367   -6792.4282    2.1494357    4.7678019   0.12726832 
   15400   -942.04754    48.454351   -893.59319    1735.4591    12878.024    2.1978027    5.4948384   0.15307161 
   15500   -946.29936    46.247827   -900.05154    1656.4294    5058.6509    2.1916568    5.8955364   0.12741068 
   15600   -936.84709    42.029423   -894.81767    1505.3415   -17482.135    2.1130677    6.1175479   0.12848477 
   15700   -939.83096    47.286672   -892.54429    1693.6371    383.83084    2.1626103     5.561519   0.14275966 
   15800   -947.97992    50.394978   -897.58495    1804.9654    15908.994    2.2157642    5.9337312   0.12584158 
   15900   -944.63817    45.053025   -899.58514     1613.636   -4182.3543    2.1612678    4.7495984   0.13931416 
   16000   -939.61343    48.220869   -891.39256    1727.0966   -9563.1951    2.1322051      5.06853   0.15209761 
   16100   -947.05744    48.371719   -898.68572    1732.4995     6221.755    2.1922439    5.0903381   0.13854381 
   16200   -946.06352    47.024447   -899.03908    1684.2452    3736.1241     2.184872    4.9505743   0.14241522 
   16300   -941.57049    49.294019   -892.27647     1765.533   -6581.6799      2.14299    6.7782473   0.13657029 
   16400   -944.41091    45.293683   -899.11722    1622.2555    -606.0086    2.1698257    7.6996926   0.12808699 
   16500   -947.42538    48.044074    -899.3813    1720.7645    5470.9798    2.1888934    5.1925876   0.12136781 
   16600   -941.14688    48.133238   -893.01365     1723.958   -291.92184    2.1652796    5.6218425   0.13876716 
   16700   -940.46072    43.062145   -897.39858    1542.3299   -5888.9255    2.1504276    6.2416498   0.12771641 
   16800   -946.64725    45.712779   -900.93447     1637.266    4112.6861    2.1833343    5.7126545   0.12407201 
   16900   -942.43771    50.493324   -891.94438    1808.4877    6204.8031    2.1828035    7.1744335   0.14259555 
   17000   -942.74406    45.784689   -896.95937    1639.8415   -4397.1763    2.1561713    7.0059852   0.15132926 
   17100   -948.04048    46.083907   -901.95658    1650.5584   -9011.2367    2.1586138    5.3732614    0.1330265 
   17200   -940.90824     48.23346   -892.67478    1727.5476    11751.697    2.1906314    4.7090056    0.1572945 
   17300    -942.1125    47.827089   -894.28541    1712.9929    6812.8434    2.1864697    5.2367646      0.14832 
   17400   -945.35889    44.208885      -901.15    1583.4019   -12351.595    2.1408328    5.1510141   0.13156246 
   17500   -945.68505    50.967011   -894.71804    1825.4535   -4676.3891    2.1612256    7.3666955   0.13416286 
   17600   -938.65186     48.17344   -890.47842    1725.3979    14850.859     2.194961     6.304834   0.14844257 
   17700   -945.25203    45.233298   -900.01873    1620.0927   -213.32396    2.1747046    3.8237656   0.14618605 
   17800   -942.63329    45.917935   -896.71535    1644.6139   -5518.2693    2.1528822    5.7879048   0.13245589 
   17900    -943.7024     52.51024   -891.19216    1880.7264   -1058.9411    2.1659973    5.6610723   0.13931287 
   18000    -946.7917    46.085642   -900.70606    1650.6206    5415.2318     2.191838    6.1598333   0.13882354 
   18100   -943.47381    46.335411    -897.1384    1659.5664   -3597.0773    2.1605072    5.0245569   0.13811427 
   18200   -941.53978    48.454127   -893.08565    1735.4511   -4303.7793    2.1548979    4.4492416   0.14657751 
   18300   -948.22023    46.797549   -901.42268    1676.1185    5375.7208    2.1964875    5.0409075   0.14259234 
   18400   -942.35573    44.078761   -898.27697    1578.7414    1595.2516    2.1762974    4.7210359   0.15197357 
   18500   -942.41723     48.24401   -894.17322    1727.9255   -6980.0923    2.1507361    6.2269061   0.14674878 
   18600   -947.38859    47.022094   -900.36649    1684.1609   -1554.8778    2.1762985     6.190179   0.13249232 
   18700   -948.36739    48.475805   -899.89158    1736.2275    5622.4623    2.1954583    5.5906102   0.14105523 
   18800   -941.43401    48.795447   -892.63856    1747.6759   -3630.7595    2.1540885    4.9194384   0.13746995 
   18900   -946.43217    47.059881   -899.37229    1685.5143   -9048.9038    2.1534922    5.8279709   0.13707358 
   19000   -944.26482    46.129944   -898.13488    1652.2073    8732.7384     2.191784    5.5956375   0.15048783 
   19100   -941.52423    52.357991   -889.16624    1875.2734    2968.4533    2.1731002    5.5654038   0.14865296 
   19200   -948.06297    51.181504   -896.88146    1833.1358   -13232.028    2.1427126    4.9226602   0.12239101 
   19300   -947.48061    48.316721   -899.16389    1730.5297   -3216.5018    2.1673268    5.8760807   0.11583423 
   19400   -940.69155    50.389307   -890.30224    1804.7623    17738.392    2.2057233    4.8141553   0.14523641 
   19500   -939.49499    45.432862   -894.06212    1627.2404    325.76269    2.1657591    5.1025649    0.1350812 
   19600   -943.97693    42.973323    -901.0036    1539.1486   -12889.444    2.1408699    5.5265027    0.1404059 
   19700   -941.42767    46.760453   -894.66722    1674.7899    5224.1519    2.1797388    5.0298249   0.14179185 
   19800   -940.69158    47.422989   -893.26859    1698.5195    7832.3172    2.1848385     5.126528   0.15807957 
   19900   -942.20088    39.331995   -902.86888    1408.7294    211.51632    2.1735022    4.7279121   0.14459556 
   20000   -942.81431      45.7954   -897.01891    1640.2251    -3068.791    2.1609926    5.0741396   0.13307021 
   20100   -942.65778     49.51531   -893.14247    1773.4588     2380.895    2.1745096    4.1755794   0.13330149 
   20200   -948.63007    46.704821   -901.92525    1672.7973     2251.173    2.1896044    6.1415326   0.13572522 
   20300   -942.62212    44.685547   -897.93657    1600.4742   -6468.1884     2.157438    6.8482262   0.12953655 
   20400   -941.97726    47.900031   -894.07723    1715.6054   -142.88067    2.1662881    4.8051765   0.13463396 
   20500   -945.30041    46.042227   -899.25818    1649.0656    5834.1682     2.190562    4.7708454   0.14570838 
   20600   -947.55583    45.500469   -902.05537    1629.6618   -810.82483    2.1772746    4.5036943   0.14582751 
   20700    -941.3178    48.465145   -892.85265    1735.8457   -10578.997    2.1411409    5.5932734   0.16437184 
   20800   -941.15748    43.783545   -897.37393    1568.1678     5554.833    2.1840629    5.6645883   0.14743601 
   20900   -944.25902    44.720087   -899.53894    1601.7113    9468.7252    2.1958767    7.1889938   0.13882686 
   21000   -941.18969    50.667233   -890.52246    1814.7166   -11034.353    2.1357107    6.0278216   0.12289111 
   21100   -942.99535    45.065442   -897.92991    1614.0807   -4604.9291    2.1589872    5.5811111   0.13742825 
   21200   -943.52313    45.728316   -897.79481    1637.8225    11284.208    2.2008643     4.152734   0.14272396 
   21300   -942.38185    50.946199   -891.43565    1824.7081    1274.3241     2.164704    3.7772136   0.14715678 
   21400   -944.77441    50.480378   -894.29403    1808.0241   -15919.259    2.1283641    6.9861586   0.13594579 
   21500   -946.85055    47.058937   -899.79162    1685.4805    3349.7894    2.1853801    4.0749858   0.13402424 
   21600   -942.03553    48.947822   -893.08771    1753.1335    16105.163    2.2029683    7.1778672   0.15138111 
   21700   -940.75889    46.326831   -894.43206    1659.2591   -8459.2071    2.1409076    5.6719072   0.14255243 
   21800   -948.79131    45.634685   -903.15663    1634.4689   -6757.7843      2.16207    5.6259663   0.12629794 
   21900    -945.4722    49.800756   -895.67144    1783.6825    4515.1128    2.1841056    5.3166046   0.12363632 
   22000   -945.02655    50.508019   -894.51853    1809.0141    281.93124    2.1718364    5.7201293   0.11981878 
   22100   -949.40719    46.093628   -903.31356    1650.9066   -5730.7201    2.1669099    4.9372436   0.13026721 
   22200   -944.34858    47.127445   -897.22113    1687.9342    214.44965    2.1697481    6.7346483   0.15193061 
   22300   -942.83988    49.393741   -893.44614    1769.1047    6497.4422    2.1802879    5.6950027   0.16129337 
   22400   -943.92606    42.987108   -900.93895    1539.6423   -689.39514    2.1718827    7.0752463   0.13781143 
   22500   -942.42229     45.63855   -896.78374    1634.6073   -3943.6966    2.1572016    6.2485181   0.14649497 
   22600   -942.22212    49.905888   -892.31623    1787.4479     2731.773    2.1692734    5.7293258   0.13767716 
   22700   -947.62288    48.928955   -898.69393    1752.4577    3087.2321    2.1816014    6.3016185   0.14628949 
   22800   -942.95588     43.83779   -899.11809    1570.1106   -1616.8534    2.1631569    6.5230766   0.15011884 
   22900   -940.84182    50.128075   -890.71375    1795.4059   -5791.9256    2.1482441    5.4069591   0.14160913 
   23000   -944.99378     47.24499   -897.74879    1692.1442     6799.108    2.1920779    4.5422754   0.14402693 
   23100   -946.52157    47.775497   -898.74607    1711.1451    3143.2979    2.1789675    5.4317868   0.13816724 
   23200   -939.50643     48.74554   -890.76089    1745.8885   -9303.8827    2.1369945    7.9433256   0.15860329 
   23300   -945.78823    46.918805   -898.86942    1680.4615    346.10461    2.1781426    5.9123606     0.151941 
   23400   -947.80752    49.369021   -898.43849    1768.2193    9410.0394     2.201357    4.8060891   0.14895225 
   23500   -942.75457    49.735291   -893.01928    1781.3378   -3747.7197     2.159762    4.1717956   0.13104612 
   23600   -942.23221    47.512474   -894.71974    1701.7245   -11014.528     2.140037     4.894676   0.13720998 
   23700   -949.81219    49.409071   -900.40312    1769.6537    6822.0683    2.2000114    4.4801594   0.12215485 
   23800   -941.77898    49.401644   -892.37734    1769.3877    10671.663    2.1933292     4.058691   0.17472975 
   23900   -940.89473     45.17786   -895.71687    1618.1071   -11258.087    2.1406932    4.2816222   0.17077141 
   24000     -945.576    43.447314   -902.12869    1556.1252   -5194.3351    2.1693386    4.5944349   0.14608848 
   24100   -941.12814    45.603487   -895.52466    1633.3515      14861.6     2.201857    5.5323259   0.14834256 
   24200    -941.4177    47.904631   -893.51307    1715.7702    1217.7332     2.168671    5.7993938    0.1350419 
   24300   -945.56976    44.531849   -901.03791    1594.9694   -6982.6458    2.1581615    5.2056325   0.13915971 
   24400   -942.97192    46.489996   -896.48193    1665.1031    2042.1143    2.1748556    5.8599649   0.16677524 
   24500   -939.38792    48.276724   -891.11119    1729.0972    4226.1146    2.1741139    5.0875087   0.14778318 
   24600   -943.25046    44.082609   -899.16785    1578.8792   -2281.1309    2.1639151    6.0131674   0.13216727 
   24700   -946.78116    49.358471   -897.42269    1767.8414   -2861.2997    2.1674593    5.0581802   0.13737002 
   24800   -941.82763    52.347526    -889.4801    1874.8985    2189.8704    2.1704368    5.6135644   0.14080588 
   24900   -945.13212    46.890371   -898.24174    1679.4431    136.53716    2.1781366    5.9489531   0.15961027 
   25000    -944.7508    46.589963   -898.16084    1668.6835   -6113.3622    2.1612144     6.725123   0.13785975 
   25100   -940.91943    50.774225    -890.1452    1818.5486   -1893.6148    2.1567677    6.0826816   0.13583381 
   25200   -947.03408    48.059537   -898.97455    1721.3183    6736.9654    2.1946776    5.8675137   0.11485169 
   25300    -943.0172    44.682412   -898.33479     1600.362   -2283.5045     2.160452    7.3417824   0.12330245 
   25400   -943.42747    50.512172    -892.9153    1809.1628   -11267.454    2.1420329    7.5887668   0.14657062 
   25500   -947.65017    46.667263    -900.9829    1671.4521    8428.3289    2.2012183    4.1056581   0.14676316 
   25600   -946.97739    47.388807   -899.58858    1697.2952     6247.739    2.1909169    6.3138947    0.1246777 
   25700   -941.42142    46.886283   -894.53514    1679.2966   -13664.321    2.1298621    7.2931769   0.13534085 
   25800   -942.81961    47.679663   -895.13994    1707.7126   -1517.6564    2.1589864    5.6365075   0.13452369 
   25900   -945.50298    45.355737   -900.14725     1624.478    20613.575    2.2238934    4.3990611   0.15005228 
   26000   -940.24808     47.86421   -892.38387    1714.3224   -1767.5489    2.1550603    4.8550457   0.15382413 
   26100   -939.63429    45.925999   -893.70829    1644.9027   -9477.4289    2.1375815    5.9423574   0.14462199 
   26200   -944.38572    45.470414   -898.91531    1628.5853    4720.4739    2.1820232    6.4424346   0.13191423 
   26300   -943.86688    47.561965   -896.30491    1703.4971    6414.4018    2.1873347    5.4977414   0.15461638 
   26400   -941.29593    49.998509   -891.29742    1790.7653   -5184.2304    2.1448136    7.0345457   0.13846752 
   26500   -947.63237    49.044298   -898.58807    1756.5889   -5454.1501    2.1647694      6.44383   0.15737635 
   26600   -943.87709     46.91103   -896.96606     1680.183    7931.8054    2.1903734    5.2712468   0.15918561 
   26700   -938.04705    49.497075   -888.54997    1772.8057    403.40929      2.15388    6.5253194   0.15941215 
   26800   -942.36111     45.01823   -897.34288    1612.3897   -115.84023    2.1634665    5.2478773   0.14558133 
   26900   -943.79881    46.837381   -896.96143    1677.5451    1797.9144    2.1730403    5.4778075   0.14480684 
   27000   -940.60422    48.759078   -891.84514    1746.3734    3524.0799    2.1709125    4.1718099   0.16107651 
   27100   -942.98656    43.282363    -899.7042    1550.2173   -2983.1725    2.1665127    5.5903683   0.16628079 
   27200   -942.37903     42.17696   -900.20207    1510.6258   -4045.8888    2.1614898    5.1601146   0.16108333 
   27300   -941.88465    47.614548    -894.2701    1705.3804    9584.5586    2.1886702    4.9201661     0.142413 
   27400   -945.66829    47.894786   -897.77351    1715.4176    2810.4814    2.1824311    5.3975355   0.15175367 
   27500   -950.51521    45.693956   -904.82126    1636.5918   -13338.657    2.1537489    5.1540744   0.13002341 
   27600   -944.79694    47.650292   -897.14665    1706.6607   -780.32328    2.1678387    5.6086585   0.13580248 
   27700   -944.20933    50.489935    -893.7194    1808.3664    14639.364    2.2058183    6.6494642   0.14616342 
   27800   -945.62444    44.297386   -901.32706    1586.5717   -5203.4269    2.1626361    5.2305247   0.13826874 
   27900   -946.52874    47.546109   -898.98263    1702.9292   -12975.957     2.138436    6.8183109   0.12835669 
   28000   -943.23538    50.460368   -892.77501    1807.3074    9225.7675    2.1843412    6.3943971   0.12868037 
   28100   -946.06124    49.661773   -896.39947    1778.7046    2858.5495    2.1785013    5.3490385   0.12701082 
   28200   -946.92735    46.188497   -900.73885    1654.3045   -7123.0288    2.1575055    4.1529362    0.1314779 
   28300   -943.37631    47.935335   -895.44098    1716.8698    2262.7476    2.1724051    4.4489765   0.14161365 
   28400   -940.58692    48.367094   -892.21983    1732.3339    6173.9157    2.1769022    4.7864066   0.15176064 
   28500   -943.07135    45.228661   -897.84269    1619.9266   -3987.7928    2.1609294     5.797531    0.1289066 
   28600   -945.61531    47.801229   -897.81408    1712.0667   -800.44417    2.1694207    6.5719227   0.13572683 
   28700   -938.34823    50.618961   -887.72927    1812.9876    1615.3075    2.1610228    6.6300108   0.14254454 
   28800   -944.49013    48.599479   -895.89065    1740.6571    2591.5144    2.1784464    5.4179797   0.13571263 
   28900   -944.87124    46.258365   -898.61288    1656.8069   -4448.3487    2.1633217    5.1628684   0.13438492 
   29000   -940.29421    48.813662   -891.48055    1748.3283   -2296.0146    2.1607272    6.3347152   0.14019899 
   29100   -940.90579    48.781634   -892.12415    1747.1812    5082.1967      2.17424     5.708208    0.1381906 
   29200   -946.06122    47.616557   -898.44466    1705.4524    -2084.283    2.1678376    3.1416889    0.1295753 
   29300   -944.12715    48.576441   -895.55071     1739.832   -2286.5371    2.1628489    6.0556746    0.1461446 
   29400   -941.45654    52.417944    -889.0386    1877.4207    715.51479    2.1664401    5.7914918   0.15171416 
   29500   -944.86203    46.841867   -898.02017    1677.7058    2145.8222    2.1764694    5.1062825   0.14066169 
   29600   -947.13954    48.623751   -898.51578    1741.5264   -12598.701    2.1441392    6.7415249     0.109957 
   29700   -942.75384    47.489326   -895.26451    1700.8954    3955.7726    2.1783949    6.2074075   0.12349617 
   29800    -942.6117    45.083887   -897.52782    1614.7413    12664.719    2.2013915    6.8030309   0.13285485 
   29900   -947.71931    42.469862   -905.24945    1521.1164   -4065.4526    2.1699611    5.3658994   0.13318799 
   30000   -941.81504    43.564528   -898.25051    1560.3234   -4844.3631    2.1505941    4.9846471   0.14462089 
   30100   -942.13958    47.695819   -894.44377    1708.2913    10330.586    2.1886858    4.5511413   0.14354322 
   30200   -945.57906    45.403291   -900.17577    1626.1812     4627.051    2.1867805    6.6197079   0.13602976 
   30300   -945.88261    41.235408    -904.6472    1476.9028   -6042.6239    2.1626292    5.7072689   0.14564921 
   30400   -944.62964    48.536917   -896.09272    1738.4164   -2349.7098    2.1655153    4.7701224   0.14966424 
   30500   -944.49383    48.918665   -895.57516    1752.0892    6529.5216     2.191517    5.8589967   0.15535688 
   30600   -944.77394    42.808997   -901.96494     1533.263   -755.83576    2.1763125    4.3489577   0.15162111 
   30700   -944.84966    42.249673   -902.59999    1513.2301   -4071.1806    2.1649934    4.9214423   0.12036496 
   30800    -944.6819    49.639285   -895.04262    1777.8992    1256.2746    2.1762317    5.6776825   0.15251994 
   30900   -942.29802    46.038781   -896.25923    1648.9422    4098.1103    2.1781584    4.4864555   0.15481563 
   31000   -943.48982    42.822351   -900.66747    1533.7413   -1433.4659    2.1667543     6.155047   0.15109152 
   31100   -946.64197    40.211575   -906.43039    1440.2328    1421.6379    2.1817794    5.6790407   0.16080129 
   31200   -947.26086    51.117446   -896.14342    1830.8415    843.76751    2.1739125     5.343366   0.13716303 
   31300   -946.64729    50.760846   -895.88644    1818.0694   -595.90628    2.1754247    5.6631322   0.13738163 
   31400   -943.25951    45.376186   -897.88333    1625.2104   -5968.3309    2.1544589    5.3822021   0.14222317 
   31500   -945.41689    43.804315   -901.61258    1568.9117    425.85902    2.1747039     6.299007   0.11694033 
   31600   -949.28556    43.601781   -905.68378    1561.6577    13813.019     2.213978    4.2652024     0.128065 
   31700     -945.408     47.80084   -897.60716    1712.0528   -5672.9678    2.1587182    6.2157895   0.12538165 
   31800   -940.72457    44.030764   -896.69381    1577.0223   -7728.5962    2.1423333    6.2838777    0.1245415 
   31900    -941.6277    48.831801    -892.7959     1748.978    8907.5792     2.186568    6.2880677   0.15166329 
   32000   -934.25443    50.668964   -883.58546    1814.7785    7651.1752    2.1666707    4.9310657   0.15934046 
   32100   -939.90103    46.123391   -893.77764    1651.9726   -5373.2336    2.1443978     6.277989   0.13897093 
   32200   -941.64369    45.201947   -896.44174    1618.9698   -3023.8801    2.1559426    5.8237009   0.13709903 
   32300   -943.91612    47.979156   -895.93696    1718.4394    8876.4046     2.191338    6.2722098   0.13415236 
   32400   -941.40207    44.307213   -897.09486    1586.9237    3841.0658    2.1766594    5.2361372   0.12586499 
   32500   -949.24572    42.783282   -906.46244     1532.342      -3984.5    2.1763985    5.3525618   0.12447584 
   32600   -947.17646    47.095029   -900.08143    1686.7731    -3363.998    2.1718678    5.3357577   0.11615579 
   32700   -944.21383    48.386676   -895.82715    1733.0353    3089.1251     2.180532    6.3606508   0.12805513 
   32800   -940.20562    44.274476   -895.93114    1585.7512    2656.0739    2.1684709    5.1738072   0.14388253 
   32900   -947.74222    41.870706   -905.87152    1499.6568     -3692.15    2.1747083    4.8600246   0.12644068 
   33000   -943.59463     43.97285   -899.62178     1574.948   -1425.4902    2.1699306    4.9491937   0.13669929 
   33100   -947.68315    52.752841   -894.93031    1889.4155     5690.354    2.1898466    4.6145019   0.12511575 
   33200   -942.40639    44.231129   -898.17526    1584.1986   -459.52959    2.1679533    5.2536108   0.13382028 
   33300   -946.13601     39.63493   -906.50108    1419.5794   -10204.565    2.1600288    6.1535068   0.12646279 
   33400   -944.38965    46.499521   -897.89013    1665.4442    3747.8734    2.1866502    5.3043884   0.13138395 
   33500   -944.94634    50.257369   -894.68897    1800.0367    9816.8694    2.2017692    5.9495857   0.15167811 
   33600   -944.99823    45.711831    -899.2864     1637.232   -9397.4988    2.1514979    6.5637212   0.13543791 
   33700   -949.53332     43.43475   -906.09857    1555.6752   -8009.9979    2.1664787    5.5395512   0.13842838 
   33800   -939.27698    42.344994   -896.93198    1516.6441    11739.343    2.1960058    4.9898047   0.15202383 
   33900   -944.09289    48.354817   -895.73808    1731.8942    5159.1841    2.1852725    6.1209961    0.1415719 
   34000   -945.64481    47.930629   -897.71418    1716.7013   -10364.183     2.147588    5.3794229   0.12387887 
   34100   -943.28501    50.290211    -892.9948     1801.213    656.31215    2.1701336    4.9612925   0.13927998 
   34200   -942.44283     53.91407   -888.52876    1931.0065     2119.065    2.1672753    5.5284637   0.13282309 
   34300   -939.28005    43.081888   -896.19816     1543.037   -2330.3637    2.1616961    6.2875422   0.14206534 
   34400   -944.10958    46.742097   -897.36748    1674.1324   -415.37944    2.1704123    5.6327464   0.15237731 
   34500   -943.15796    50.405144   -892.75282    1805.3295    4110.0244    2.1771917    6.3483299   0.14387994 
   34600   -937.41469     48.71837   -888.69632    1744.9153     -1036.89    2.1497929    5.7881445   0.14181466 
   34700    -943.7865    46.280369   -897.50614     1657.595    -3202.694    2.1636638    5.9306687   0.14179511 
   34800   -943.56854    46.920403   -896.64814    1680.5187    4406.9622    2.1828729    6.7421114   0.13843813 
   34900   -940.55368    49.084635   -891.46905    1758.0336    3443.3781    2.1680177    6.2194414   0.14987155 
   35000   -941.82061    52.421053   -889.39955     1877.532   -7982.5804    2.1414987    6.2398351   0.13854824 
   35100   -941.79413    44.121493   -897.67264    1580.2719    3908.2778    2.1735895    5.9345685   0.15071158 
   35200   -944.32182    48.512573   -895.80925    1737.5444    8100.2871    2.1929322     7.170138     0.143277 
   35300   -940.68522    47.539478   -893.14574    1702.6917   -2387.3227    2.1545962    6.1700771   0.14680183 
   35400   -938.78206    54.464583   -884.31747    1950.7238   -13854.374    2.1198485    6.9356312   0.15278882 
   35500   -944.84471    49.103189   -895.74153    1758.6981    19561.025    2.2207519    4.6306328   0.15889078 
   35600   -943.59815    47.965671   -895.63248    1717.9564    8034.9903     2.189678     6.639911   0.14385324 
   35700    -941.6098    43.318846   -898.29096     1551.524   -20993.496     2.115115     5.768755   0.14070719 
   35800   -940.22906    47.622878   -892.60619    1705.6788    4176.7189    2.1731537    5.5249184   0.13320368 
   35900   -940.06202     51.19391   -888.86811    1833.5802    6812.0884    2.1814344    6.0415375   0.14618353 
   36000   -942.51354    44.704448   -897.80909    1601.1512   -958.05753    2.1689823    5.3299533   0.14294413 
   36100   -944.08749    46.958554   -897.12893    1681.8851   -5525.4648    2.1606739     5.166565   0.14612846 
   36200   -940.99807    50.336399   -890.66167    1802.8673     4511.848    2.1730285    5.3055048   0.14367948 
   36300   -944.07221    53.530348   -890.54186    1917.2629    115.07534    2.1682822    4.7295924   0.14283992 
   36400    -947.8263    49.458899    -898.3674    1771.4384   -5191.3105    2.1611887    5.1032925   0.12771979 
   36500   -945.55839    48.933368   -896.62502    1752.6158    1181.7128    2.1735882    5.2515517   0.12499895 
   36600   -943.95115    49.370728   -894.58043    1768.2804    2876.9652    2.1733198    6.3838016   0.13348421 
   36700   -938.86436     54.98958   -883.87478    1969.5273    -6293.083    2.1406565    4.8732126   0.13978071 
   36800   -940.79693    47.559085   -893.23784    1703.3939    3776.7325     2.171804    4.7589338   0.13980306 
   36900   -945.65665    49.356734   -896.29992    1767.7792   -1975.5519    2.1691016    4.6167478   0.13989789 
   37000   -943.49624    45.897509   -897.59873    1643.8823   -4164.2292    2.1626124    5.3022761   0.13357315 
   37100   -941.20203    46.838897   -894.36313    1677.5994    1514.8147     2.172848    5.8838869   0.15471581 
   37200   -939.61823    51.403083   -888.21515     1841.072    350.07402     2.160621    6.2866397   0.15155202 
   37300   -945.83747    49.952882   -895.88459    1789.1311   -6054.7134    2.1565149     4.798557   0.12702017 
   37400   -947.31929    49.771873   -897.54741     1782.648    1608.6083     2.181123    3.8632467   0.12882177 
   37500   -943.98238    47.298659   -896.68372    1694.0664    5398.6559    2.1892495    5.0068365   0.13784641 
   37600   -942.20359    54.325263   -887.87833    1945.7339   -14000.531    2.1297644    5.5165042   0.15551667 
   37700   -944.81814    47.634076   -897.18407    1706.0799   -2569.9561    2.1662604    5.5403889    0.1448417 
   37800   -945.79787    49.302192   -896.49568    1765.8257    13078.468    2.2067757    6.5062524   0.13795114 
   37900   -943.07773    47.624966   -895.45276    1705.7536   -2667.5338    2.1655318    5.1601564   0.13489321 
   38000   -936.56098     49.00449   -887.55649    1755.1631   -13848.588    2.1195982    5.5084246   0.13711905 
   38100   -945.72197    47.632712   -898.08926     1706.031    8289.6614    2.1958745    5.0254262   0.14565044 
   38200   -944.68922    48.018596   -896.67063     1719.852    6474.3052    2.1874659    6.0883671   0.14473541 
   38300   -943.95148    50.932938   -893.01854    1824.2331   -9335.7264    2.1436151    5.3086803   0.12731734 
   38400   -941.96634    53.877005   -888.08933    1929.6789    -2448.501     2.154891    5.9065354   0.12775691 
   38500   -947.52012    48.371097   -899.14903    1732.4773    10037.009    2.1990023    5.6962066   0.13924067 
   38600   -943.33936    45.776184   -897.56318    1639.5369   -4404.9394     2.157046    5.5571604   0.14574864 
   38700   -941.86254    46.383501   -895.47904    1661.2888   -5138.4576    2.1508517    7.0076755   0.14715922 
   38800   -944.88904    48.441753   -896.44729    1735.0079    6100.2308    2.1875233    4.4277002   0.12556984 
   38900   -949.33533    44.857529    -904.4778     1606.634    4834.8815    2.1958803    6.7311325   0.12626541 
   39000    -944.4355    46.561178   -897.87432    1667.6525    -7528.433    2.1499107    6.7385738    0.1214292 
   39100   -943.22197    47.627961   -895.59401    1705.8608    -2079.825    2.1622658     6.476076   0.14181109 
   39200    -945.4532    46.403094    -899.0501    1661.9906    7534.1973    2.1932261    5.0318201   0.14846356 
   39300    -950.2159    45.203604    -905.0123    1619.0292    -861.0759     2.180276    6.6198083   0.12211207 
   39400   -943.17144    46.299157   -896.87229    1658.2679   -8585.1399    2.1474036    5.2764167   0.13518751 
   39500   -942.17125    46.771696   -895.39956    1675.1925     3641.923    2.1720278    5.1370688   0.13887654 
   39600    -951.4316    49.558223   -901.87338    1774.9958    2150.7234    2.1899763    4.0294282   0.12710303 
   39700   -948.74135    45.307466   -903.43388    1622.7491   -4813.3333    2.1659381    5.3657842   0.11842995 
   39800   -943.75591    47.711245   -896.04466    1708.8438   -5134.5466     2.154829    5.3567028   0.12462908 
   39900   -942.31079    46.187605   -896.12319    1654.2725    4832.4839    2.1806407    6.7234493   0.11902087 
   40000   -951.95748    50.216255   -901.74122    1798.5642    1256.3968    2.1850775    6.3079061   0.11686736 
   40100   -945.26796    38.606848   -906.66111    1382.7573   -9285.3913    2.1516995    5.3876822   0.12612567 
   40200   -944.07365    46.440737   -897.63292    1663.3388   -2727.8091    2.1630113    5.1100654   0.12948156 
   40300    -946.4559    51.164174   -895.29173    1832.5152    14190.856    2.2060579    5.3395069   0.14152929 
   40400   -943.03213    44.563903   -898.46823    1596.1174   -3747.8728    2.1589685    5.8923125   0.13886594 
   40500   -936.04273    45.916225    -890.1265    1644.5527   -7290.9505    2.1322952    6.4978436   0.14477721 
   40600   -937.26956    46.979399   -890.29016    1682.6317    9283.1625     2.180864     4.878595   0.14792427 
   40700   -943.47789    47.634564   -895.84332    1706.0973     1963.709    2.1790454    5.6679994   0.14998369 
   40800   -944.29928    45.606485   -898.69279    1633.4589   -8337.7006    2.1556498    3.9552102   0.14236117 
   40900   -937.38854    45.784975   -891.60357    1639.8518    3112.4012    2.1675818    6.8524674   0.14380438 
   41000   -939.15473    48.066582   -891.08815    1721.5707       7391.4    2.1819547    4.7747025   0.15175922 
   41100   -942.38827    44.533495   -897.85477    1595.0283   -5258.8717    2.1572664    5.8830632   0.14561045 
   41200   -944.34807     47.51501   -896.83306    1701.8153   -5041.5107    2.1608929    5.3008847   0.14268033 
   41300   -941.17003    53.096049   -888.07398    1901.7079    6417.7621    2.1751095    5.3074155   0.15530283 
   41400    -943.9671     48.96266   -895.00444    1753.6649    57.538506    2.1677637    3.5727836   0.13520058 
   41500   -942.54354    44.102169   -898.44137    1579.5798   -7736.4432    2.1450078    6.6578736    0.1291991 
   41600   -945.43044    51.630649   -893.79979    1849.2226    2130.8239    2.1745867    5.9531289   0.14089526 
   41700   -944.20677     49.41493   -894.79184    1769.8636    7710.9694    2.1847984    6.2459835   0.13420345 
   41800   -948.79887    46.191529   -902.60734    1654.4131   -3880.4532    2.1724077     6.589057   0.15832182 
   41900   -945.02454    47.556946   -897.46759    1703.3174   -3575.0991     2.165395    6.3628912   0.14845157 
   42000   -939.48562    45.554637   -893.93099    1631.6019    3581.9558     2.171797    4.4027884   0.14379099 
   42100   -944.14754    41.986524   -902.16102     1503.805     1606.359    2.1782155    5.8351624   0.13846064 
   42200   -946.51535    46.209093   -900.30626    1655.0421   -1758.9277    2.1707365    5.3051545   0.13011172 
   42300   -942.62873    48.061869   -894.56686    1721.4018    829.35847    2.1680139     5.381952   0.14585508 
   42400   -941.24991    42.938879   -898.31104    1537.9149    2299.8173    2.1731227    6.1590288   0.15893615 
   42500   -946.07149    41.944033   -904.12745    1502.2832    628.76074    2.1834304    5.5246373   0.15097558 
   42600   -939.94612    45.721306   -894.22481    1637.5714   -1849.9802    2.1612296    6.9361305   0.14170136 
   42700   -942.52518    46.351509   -896.17367     1660.143    2776.7649    2.1756822    6.3783949   0.16113406 
   42800   -944.47913    42.776853   -901.70227    1532.1118    2855.8661    2.1861612    6.6240953   0.16386703 
   42900   -941.38626    45.745716   -895.64055    1638.4456   -197.00455    2.1662537    6.0708407   0.16907482 
   43000   -944.24671     51.09769   -893.14902    1830.1339   -650.72495    2.1649272    6.8598063   0.13790262 
   43100   -944.21066    47.561655   -896.64901     1703.486   -859.74495    2.1693655    6.7791239   0.15426437 
   43200   -942.43299    49.629359   -892.80363    1777.5437     2475.043    2.1671719    4.3702131   0.16648295 
   43300   -937.56606    50.125192   -887.44087    1795.3026    132.66295    2.1516544    1.6079333   0.16257154 
   43400   -946.94357    50.880612   -896.06296     1822.359   -3116.3302    2.1670387   0.52455497   0.15845185 
   43500   -941.82277    47.814927   -894.00784    1712.5573    8257.1013    2.1846529    6.1960123   0.15650684 
   43600   -938.85167    50.738683   -888.11299    1817.2756   -1653.3234    2.1494665    6.2550002   0.16623219 
   43700   -941.62678    43.949669   -897.67711    1574.1178   -4323.1567    2.1607894     5.730826   0.15895798 
   43800   -944.88234    47.802236    -897.0801    1712.1027   -853.83422    2.1694517     6.575482   0.17154116 
   43900   -943.87919    50.061256   -893.81794    1793.0126    6983.4742    2.1813242     6.061778   0.15623399 
   44000   -942.49729    48.013397   -894.48389    1719.6658   -3972.9679    2.1536156     7.008892   0.15287793 
   44100   -950.51318    47.325826   -903.18735    1695.0395   -5126.7501    2.1730955    9.6527215   0.14540519 
   44200   -943.92864    47.221796   -896.70685    1691.3135      4630.11    2.1818468    8.1512371   0.14584666 
   44300   -940.80504    47.174187   -893.63086    1689.6083   -2079.2815    2.1595583    8.5069124   0.16787061 
   44400   -949.01792    50.511269   -898.50665    1809.1305   -13580.212    2.1489849    6.8998385   0.15732265 
   44500   -945.90401    45.427922   -900.47609    1627.0634    6817.9345    2.1890976    5.9423544   0.15484256 
   44600    -942.1213    50.253481   -891.86781    1799.8974    7190.2676     2.184232    8.6851341   0.17413675 
   44700   -940.97141    44.849338   -896.12207    1606.3406   -9712.5361    2.1468012    5.6821065   0.16261601 
   44800   -947.57062    45.486434   -902.08418    1629.1591    -8287.878     2.161757    3.9601301   0.17397941 
   44900   -945.44011    50.314561   -895.12555    1802.0851    10464.054    2.1990177    15.082485   0.14026922 
   45000   -940.63238      47.9816   -892.65078    1718.5269    5008.7075    2.1765174    19.533784   0.14446914 
   45100   -945.77969    45.483426   -900.29626    1629.0514   -12578.833    2.1477161    18.712374   0.13749331 
   45200    -940.6976    45.413825   -895.28377    1626.5585    2729.7433    2.1712367    20.103224   0.14767811 
   45300   -941.51667    52.012997   -889.50367    1862.9169    8125.0811    2.1827477    17.526747   0.13911511 
   45400   -945.71863    46.423029    -899.2956    1662.7046   -1284.3307    2.1744283    19.764208   0.14067879 
   45500   -945.41686    48.246868   -897.16999    1728.0278   -6267.4753    2.1625806     18.57191   0.15018906 
   45600   -940.27927    50.023309   -890.25597    1791.6535    1401.8425     2.165782    19.788473   0.12899719 
   45700   -945.51388    45.556157   -899.95773    1631.6563    2852.3167    2.1843502    19.079336   0.15554084 
   45800    -945.3494    47.118256   -898.23115    1687.6051   -3398.7771    2.1664158    18.343495    0.1440171 
   45900   -944.55142    52.122238   -892.42919    1866.8295   -4775.2177     2.159817    17.330041   0.14460365 
   46000   -949.53191    48.640633   -900.89127    1742.1311    2962.6255    2.1892561    19.677501   0.14423376 
   46100   -945.71402    46.335018     -899.379    1659.5523   -2433.4572    2.1731488    19.077704   0.15322927 
   46200    -942.4727     48.65887   -893.81383    1742.7843   -6282.0661    2.1548341    18.086729   0.13994466 
   46300   -947.85246    48.184851   -899.66761    1725.8066    970.25024    2.1824475    17.765392   0.14499799 
   46400   -949.06929    48.227454   -900.84183    1727.3325    3465.4204    2.1916119    16.207231   0.12867692 
   46500   -940.70614    47.310625   -893.39552     1694.495   -3717.1001    2.1545742     19.50363   0.14476001 
   46600   -947.41546    48.966859    -898.4486    1753.8153    -7309.642    2.1583621     16.97127   0.14099591 
   46700    -943.5174    43.155738   -900.36166     1545.682    11458.223    2.2014873     18.36448   0.15431507 
   46800   -938.03205    47.167417   -890.86463    1689.3658    5858.7472    2.1723923    20.727615   0.16128043 
   46900   -944.77883    47.780474   -896.99836    1711.3233   -12997.184    2.1392524    18.434212   0.13224764 
   47000   -942.71039    43.825999   -898.88439    1569.6883    2227.3175     2.177201    19.315912   0.13937431 
   47100    -941.2783    51.868474   -889.40982    1857.7406    13016.474     2.195739    18.500447   0.12930537 
   47200   -945.62753    51.772479   -893.85505    1854.3024   -4813.7891    2.1576715    16.786217   0.13412162 
   47300     -945.249    45.005956   -900.24304    1611.9501   -10245.878    2.1483935    21.602234   0.13356996 
   47400   -945.87958    51.743926   -894.13565    1853.2798     4429.543    2.1829573    17.073227   0.13497815 
   47500   -940.26359    48.912495   -891.35109    1751.8682     5702.794    2.1736473      16.7816   0.14930438 
   47600   -948.10926    47.343807   -900.76546    1695.6835   -4415.2827    2.1649415    19.940713    0.1312007 
   47700   -946.76089    50.052152   -896.70874    1792.6866    -3849.825    2.1648324    22.659189   0.14166847 
   47800   -941.71559    49.778272   -891.93732    1782.8772    4284.4247    2.1720028    18.839164   0.14446106 
   47900   -948.41858     46.73147   -901.68711    1673.7518   -1390.0375    2.1796994     20.68689   0.12762743 
   48000   -945.07943     46.60187   -898.47756      1669.11   -4422.0327    2.1586668     15.83696   0.13759695 
   48100   -944.65169    51.174731   -893.47696    1832.8933    420.47872    2.1691567    17.997028   0.14404301 
   48200     -945.642    44.653802    -900.9882    1599.3373    6034.5808    2.1898839    15.525615   0.13800252 
   48300   -944.82304    44.668034     -900.155     1599.847   -2122.2876    2.1677422    18.995371   0.14216184 
   48400   -940.22447    46.414808   -893.80967    1662.4101   -1234.5637    2.1594908    18.985282   0.14992267 
   48500   -946.85488     48.58501   -898.26987    1740.1389    1007.9681    2.1797808    19.903973   0.13603035 
   48600   -944.34636    41.988596   -902.35776    1503.8792    4890.0093    2.1876157    19.521268   0.15639447 
   48700   -940.44016    48.156181   -892.28398    1724.7797   -7851.5576    2.1426579    16.469335   0.13793003 
   48800   -941.21017    44.266181   -896.94399    1585.4541     1599.444    2.1655588    17.559963   0.12940802 
   48900   -944.96068    46.717275   -898.24341    1673.2434    17049.531     2.217077    20.476123   0.14835213 
   49000   -940.56312    51.967926   -888.59519    1861.3027   -5217.8771    2.1450032    17.270259   0.14140687 
   49100   -940.22572    46.998902   -893.22682    1683.3302   -14395.203    2.1243758    16.913149   0.13590187 
   49200   -945.47686    48.068994   -897.40787     1721.657    9798.3196    2.1953215    17.822658   0.15045569 
   49300   -942.98996    46.035434   -896.95452    1648.8223     12983.83    2.2010669    17.825415   0.15141478 
   49400   -937.14888    47.699862   -889.44902    1708.4361   -11393.957     2.128616    19.539173   0.16571849 
   49500   -946.25252    47.271975   -898.98055    1693.1107   -3200.4286    2.1646958    20.677119    0.1359853 
   49600   -949.34465    51.436374   -897.90827    1842.2644    3934.6397    2.1919737    19.201934   0.13145568 
   49700   -944.48307    50.801986   -893.68108    1819.5429   -599.61809    2.1688641    16.504112   0.13005947 
   49800   -942.75019    49.428983   -893.32121    1770.3669   -8431.6891    2.1464624    18.527206   0.13333159 
   49900    -947.1187     45.64637   -901.47233    1634.8874     5451.301     2.193091    16.475279   0.13947561 
   50000   -944.75893    50.082205   -894.67673    1793.7629    4862.6207    2.1816216    19.322324   0.13556161 
   50100   -941.27897    45.817658   -895.46131    1641.0223   -7219.2147    2.1434713    15.580565   0.14095663 
   50200   -949.94075    45.302562   -904.63818    1622.5735   -1514.9649    2.1786079    19.714438   0.14560788 
   50300   -940.28449     43.08105   -897.20344     1543.007    7830.7572    2.1871595    19.490895   0.16308199 
   50400   -942.63861    47.705384   -894.93322    1708.6338   -444.47208    2.1665024    20.369705   0.14753957 
   50500   -947.05095    46.559274   -900.49168    1667.5843   -7266.4477    2.1563565    16.871505    0.1345957 
   50600   -947.30171    45.726716   -901.57499    1637.7651    2664.4317    2.1853647    17.900554   0.13162314 
   50700   -943.96521    50.633595   -893.33162    1813.5117    3364.0662    2.1761995    17.151648   0.13436024 
   50800    -944.1839    46.329208    -897.8547    1659.3442   -6543.5747    2.1542928    16.959124   0.12884281 
   50900   -944.06629    44.193406   -899.87288    1582.8475   -534.16284    2.1676863    16.159815   0.12845497 
   51000   -939.83509      50.2936   -889.54149    1801.3344    12489.892    2.1896088    21.434342   0.15034273 
   51100   -940.45418    46.535345   -893.91884    1666.7273    3425.1601    2.1718037    20.528792   0.14488733 
   51200   -942.81197    43.574386   -899.23758    1560.6765   -21453.414    2.1167118    19.556518   0.14164875 
   51300   -941.24828    46.842873    -894.4054    1677.7418    9047.8753    2.1867832    22.060071   0.14521772 
   51400    -943.0213    53.055014   -889.96628    1900.2382    14455.009    2.2056755    19.416359   0.15341749 
   51500   -943.77814    46.635762   -897.14238    1670.3239   -11358.381    2.1383059    16.556568   0.13228543 
   51600   -944.60271    45.064173   -899.53854    1614.0352   -6845.6766    2.1546389    16.607977   0.12694813 
   51700   -946.12061    52.598362   -893.52225    1883.8826    7739.1564    2.1937768    17.318838    0.1209909 
   51800   -945.42301     47.50082   -897.92219    1701.3071    1418.1384    2.1726414    18.907285   0.13714251 
   51900   -947.65225    43.725855    -903.9264    1566.1016   -9298.3894    2.1584076    20.314023    0.1422416 
   52000   -944.19371    48.296468   -895.89724    1729.8043    1389.3457    2.1738158     18.13801    0.1482119 
   52100   -943.29061    48.253743   -895.03687    1728.2741    6917.5621     2.186952    22.332739   0.13938789 
   52200   -947.72654    44.311105   -903.41544    1587.0631   -5966.3209    2.1670748    17.044009     0.131318 
   52300   -945.07058    47.606763   -897.46382    1705.1016   -8230.7206    2.1548606    18.322461   0.12250759 
   52400   -941.97775    48.049692   -893.92806    1720.9657    7635.3208    2.1880237    15.003165   0.14278983 
   52500   -941.86353    43.093076   -898.77046    1543.4377      3772.38    2.1771367    17.494651   0.12567037 
   52600    -946.2148    49.281844   -896.93296    1765.0969   -9139.1386    2.1516895    18.444951   0.12586456 
   52700   -941.77859    51.333554   -890.44503    1838.5817   -1759.6344    2.1602501    19.275932   0.13448583 
   52800   -943.62097    47.281276    -896.3397    1693.4438    5762.8318    2.1844163    16.731848   0.14671721 
   52900   -946.25815    47.206226   -899.05192    1690.7558   -1796.6473    2.1694841    19.591142   0.13785672 
   53000   -942.03946     52.60148   -889.43798    1883.9943   -7177.2893    2.1433412    17.414113    0.1445505 
   53100   -944.80222    49.378581   -895.42364    1768.5617    8882.7493    2.1931719    19.064815   0.15297856 
   53200   -944.35199    46.371777   -897.98021    1660.8689    1798.2345    2.1769418     17.33668   0.12365833 
   53300   -940.23399    45.049613   -895.18437    1613.5138   -12182.564    2.1357407    17.365845   0.13031499 
   53400   -940.93163    52.724718   -888.20691    1888.4082    1060.8101    2.1609298    17.671945   0.11693599 
   53500   -945.82428    48.202895   -897.62139    1726.4529     19855.71    2.2239751    20.512928   0.13050577 
   53600   -943.15304     44.96735   -898.18569    1610.5674   -9910.6317    2.1434877    19.262132   0.13299146 
   53700   -941.31503    47.638904   -893.67613    1706.2528   -9759.4837    2.1373408    20.826412   0.15235258 
   53800   -947.18097    45.986661   -901.19431    1647.0754     10532.71    2.2052128    17.837757   0.14990396 
   53900   -946.58369    46.318164   -900.26553    1658.9487    4231.4519    2.1863315     18.34764   0.13300297 
   54000    -943.7448    48.799196    -894.9456    1747.8102   -8079.8057    2.1472007    17.256034    0.1247426 
   54100   -946.30676    48.855791   -897.45097    1749.8373   -2347.1636     2.167093    18.833809   0.12604636 
   54200   -948.12685    45.678842   -902.44801    1636.0505    8451.1667    2.2032309    19.601373   0.13974226 
   54300   -941.17512    48.177114   -892.99801    1725.5295   -5382.3744    2.1534994    19.261162   0.13228468 
   54400   -941.20185    44.461349    -896.7405    1592.4443   -5632.8879      2.15231    20.142991   0.13649849 
   54500   -947.24765     46.53218   -900.71547    1666.6139    5629.2587    2.1927092    18.915095   0.12191798 
   54600   -939.44399    48.439963   -891.00403    1734.9438    6349.5995    2.1762177    20.418452   0.13679836 
   54700   -942.55351    48.337728   -894.21578    1731.2821   -7160.7383    2.1536817     18.08082   0.14253093 
   54800    -943.4748    43.973833   -899.50097    1574.9832   -3164.2957    2.1668274    18.842469   0.14565946 
   54900   -941.70348    45.782537   -895.92094    1639.7645      8344.92    2.1901115     17.68192   0.13621117 
   55000   -940.13379    49.507488    -890.6263    1773.1787    70.841871    2.1595465    19.079321   0.14675189 
   55100   -944.65877    45.398726   -899.26004    1626.0177   -9820.0767    2.1492024    16.754901   0.13188919 
   55200   -944.92962    48.457447   -896.47217      1735.57    5729.8398    2.1828001    19.250505   0.14370195 
   55300   -943.18074    55.315592   -887.86514    1981.2039    8848.6575    2.1843341      17.2403   0.14173885 
   55400   -944.41574    48.928667   -895.48707    1752.4474   -10880.404    2.1400343    20.676218   0.12837183 
   55500   -946.18187    46.896112   -899.28576    1679.6487   -11647.922    2.1445221    18.381517   0.11711019 
   55600   -946.13957    53.814481   -892.32509    1927.4395    14568.924    2.2093804    19.037572   0.12532222 
   55700   -944.74552    50.009153   -894.73637    1791.1465    1386.7982    2.1748865    18.778427   0.14544497 
   55800   -946.96671    44.138518   -902.82819    1580.8817   -9003.0806    2.1553673    19.169727   0.12459021 
   55900   -942.01193    45.344837   -896.66709    1624.0876    2321.8488    2.1719556    16.950869   0.15776749 
   56000    -945.7337    53.034716   -892.69899    1899.5112    2924.6137    2.1773948    27.718787   0.14301421 
   56100    -942.0929     47.58967   -894.50323    1704.4894   -1535.8761    2.1577158    24.210236    0.1436458 
   56200   -946.04788    44.234505   -901.81337    1584.3195   -1504.1546    2.1725988    19.580379   0.12642899 
   56300   -943.23129    47.461966   -895.76932    1699.9155     5333.004    2.1797404    17.199913   0.12764437 
   56400   -942.71226    48.336187   -894.37607    1731.2269    1225.5004    2.1694924    16.483693   0.12900741 
   56500   -948.46542    44.252203   -904.21322    1584.9534   -5854.5294    2.1722192    13.639126   0.12779388 
   56600   -945.26682    46.746781   -898.52004    1674.3002    -993.3387    2.1692076    16.162326   0.11992073 
   56700    -941.4777    47.698447   -893.77925    1708.3854    7924.6945    2.1852285    16.776937   0.14526777 
   56800   -944.01632    43.792441   -900.22388    1568.4864   -311.73724      2.17399    17.867982    0.1413602 
   56900   -949.01349    46.333261   -902.68023    1659.4894   -9518.0346    2.1587997    18.172487   0.13331953 
   57000   -939.35245    45.098671   -894.25378    1615.2708    3469.3796    2.1718666    19.362845   0.15259115 
   57100   -941.85083    46.050771   -895.80006    1649.3716    10928.614    2.1927579    19.453573   0.12614426 
   57200   -947.62573     45.76677   -901.85896    1639.1997   -7899.3571    2.1583767    19.722249   0.11739155 
   57300   -937.81997    44.806666    -893.0133    1604.8123   -6301.8718    2.1416385    17.913264   0.13265358 
   57400   -941.53479    49.062709   -892.47208    1757.2483    15286.997    2.2031627    16.885855   0.14195409 
   57500   -945.63572    47.731719     -897.904    1709.5771    34.969894    2.1732146     18.90727    0.1371837 
   57600   -943.67328    46.592655   -897.08062    1668.7799   -14341.542    2.1339927    17.119385   0.14795043 
   57700   -938.66218    50.893781    -887.7684    1822.8307     3800.351    2.1632472    19.919375   0.15066446 
   57800   -946.16786    50.022541   -896.14532     1791.626    8500.3745    2.1946323    20.088089   0.14866597 
   57900   -942.01096    43.168279   -898.84268    1546.1312   -2806.0121    2.1614411    20.201993   0.15787405 
   58000   -941.14738    49.417343   -891.73004      1769.95   -4728.4199    2.1510654    19.548739   0.15195847 
   58100   -943.24117    46.998961    -896.2422    1683.3323    3282.2043      2.17716    15.603797   0.14184535 
   58200   -950.19282    50.568689   -899.62413    1811.1871    66.144777    2.1798852    17.401785   0.12040864 
   58300   -940.75153    45.808308   -894.94322    1640.6875   -618.41175    2.1626319    19.155882   0.14699138 
   58400   -940.93704    47.433916   -893.50313    1698.9109   -2297.5716    2.1618298    22.818597   0.15583191 
   58500   -947.33757    44.623495   -902.71407    1598.2517    7053.4082    2.1955056    19.254549   0.15206498 
   58600   -941.56279     45.44383   -896.11896    1627.6332   -646.00181    2.1669007    20.824926   0.15443964 
   58700   -944.13378     48.99452   -895.13926     1754.806   -8281.2306    2.1507387    19.137697   0.14397971 
   58800   -949.31284    45.761132   -903.55171    1638.9978    4524.9106    2.1897386    19.123876   0.14505264 
   58900   -943.98658    45.736986   -898.24959     1638.133    5702.3056    2.1860171    19.495298    0.1514606 
   59000   -943.43883    48.415065   -895.02376     1734.052    -7551.152    2.1528354    17.869338   0.14401433 
   59100   -945.76557    46.669885   -899.09569     1671.546   -6430.4445      2.15748    20.124759   0.12463246 
   59200   -948.62652    47.432411   -901.19411     1698.857    12762.849    2.2103589    19.748463    0.1431457 
   59300   -939.93365     48.35024   -891.58341    1731.7303    1229.9182    2.1626869    22.205255   0.15486336 
   59400   -944.62197     47.25773   -897.36424    1692.6005   -13544.747    2.1366528    20.703617    0.1583185 
   59500   -945.38172    47.676035   -897.70569    1707.5827    6431.7342    2.1846572    20.188601    0.1362647 
   59600   -943.15886    55.113608   -888.04525    1973.9696    7751.8943    2.1867741    18.430222   0.14657046 
   59700   -939.19408    45.050181    -894.1439    1613.5341   -5004.9116    2.1510082    19.949156   0.14439648 
   59800   -949.32322    50.195385   -899.12783    1797.8167    -9534.631    2.1557841    16.825366   0.13892556 
   59900   -943.83724    50.153147    -893.6841    1796.3038    7886.1729     2.187356    17.981665   0.14736198 
   60000   -937.44679    47.211578   -890.23521    1690.9475    2594.1248    2.1646924     20.91435   0.16933361 
   60100   -945.00503    45.205572   -899.79946    1619.0996   -3618.8097    2.1642402    21.151693   0.14586624 
   60200   -946.65476    50.037377   -896.61739    1792.1574   -2506.2392    2.1713216    18.656153   0.14625908 
   60300   -940.96831    49.773666   -891.19464    1782.7122     4326.803    2.1723216    23.428242   0.14174778 
   60400   -941.66492    44.276776   -897.38815    1585.8335   -4096.2025    2.1610036    19.783384   0.14313446 
   60500   -944.17225    44.411574   -899.76068    1590.6615   -2225.4563    2.1663465    20.149365    0.1260711 
   60600    -944.4865    49.788642   -894.69785    1783.2486    5788.2958    2.1856978    16.693794   0.13234697 
   60700   -943.82573    47.069728   -896.75601     1685.867    783.02177    2.1692288    17.159266   0.13965782 
   60800   -949.12219    44.520468   -904.60172    1594.5617   -2528.7022     2.176394    16.249884   0.14113281 
   60900   -944.91254    48.253355   -896.65919    1728.2602    22.809377    2.1703527    18.996984    0.1479141 
   61000   -942.29889    47.823163   -894.47573    1712.8523    4054.8906       2.1752    18.756622   0.15936731 
   61100   -945.59092    43.105903   -902.48501    1543.8971   -2692.8954    2.1673445    20.662457   0.13948518 
   61200   -947.07717    47.868115   -899.20906    1714.4623   -5999.8961    2.1600464    18.450076    0.1209974 
   61300   -942.19885    48.689674   -893.50918    1743.8875    13426.386     2.197611    20.001325   0.13002707 
   61400   -941.48986    43.371383   -898.11848    1553.4056   -54.287841    2.1692088    18.612536   0.14124415 
   61500   -945.58496     44.00107   -901.58389    1575.9587   -18041.282    2.1277212    16.490454   0.12563263 
   61600   -949.13736    47.850435   -901.28692    1713.8291    10104.992    2.2028282    16.420275   0.13125044 
   61700   -939.04216    45.718991   -893.32317    1637.4885    9143.3972     2.187032    15.280629   0.15332056 
   61800   -941.80399    44.937869   -896.86612    1609.5115   -10030.185    2.1381744     19.40302   0.15315824 
   61900   -946.06206    48.450868    -897.6112    1735.3344   -4446.7473    2.1646907    20.747625   0.15454764 
   62000   -948.84703    42.634853   -906.21217    1527.0258    11127.979    2.2087878    18.761957   0.14723899 
   62100   -946.12266    44.533864    -901.5888    1595.0415   -1601.9008    2.1710902    18.628874   0.13125678 
   62200   -937.72104    40.003009   -897.71803    1432.7627   -751.63325    2.1584915    17.793267   0.13473919 
   62300   -941.16928    45.478365   -895.69092    1628.8701    5104.7545    2.1781497    19.319217   0.13348514 
   62400   -944.07478    46.109277   -897.96551    1651.4671    2383.8095    2.1768533    19.033152   0.13090734 
   62500   -947.94886    42.005795   -905.94307    1504.4952    -791.4305    2.1788885    19.574917   0.14216552 
   62600   -941.79911    43.811922   -897.98719    1569.1842    286.47417    2.1648653     17.84923   0.15044019 
   62700   -945.55055    49.994163   -895.55639    1790.6096      2232.49    2.1789695    19.455275   0.15098548 
   62800   -945.78031    45.837174   -899.94313    1641.7214    973.15208    2.1770326    21.062913   0.15918134 
   62900   -947.08778       41.784   -905.30378    1496.5513   -3085.9125    2.1745954     17.59881   0.14977367 
   63000   -943.89011    47.255335   -896.63477    1692.5147   -1935.8956    2.1688786     20.84829   0.15798825 
   63100   -947.69599    51.705311   -895.99068    1851.8967    728.05723    2.1769998    19.409615   0.14308987 
   63200   -947.60911    46.112668   -901.49644    1651.5885     -3463.78    2.1737821     16.99134   0.11682635 
   63300   -943.68204    38.942972   -904.73906     1394.796   -454.29956     2.176191    17.346312   0.14396883 
   63400   -943.59613    47.284384   -896.31174    1693.5552    451.89625    2.1757986    20.329838   0.15560631 
   63500   -944.59802    48.212235   -896.38579    1726.7874   -550.07153    2.1719584    18.625372   0.16011926 
   63600   -943.64955    44.242713   -899.40684    1584.6135   -1913.9777    2.1648666    20.582062    0.1536645 
   63700   -952.02826    45.128338   -906.89992    1616.3334    1716.1273    2.1936723    18.839847    0.1335406 
   63800   -943.62788    46.537216   -897.09067    1666.7943     655.9428    2.1694798    19.832225   0.14301015 
   63900   -944.36758    47.832303   -896.53527    1713.1796   -4232.7218    2.1588495    17.767851   0.13795274 
   64000   -943.18958    48.451067   -894.73852    1735.3415   -1175.8953    2.1654718    24.275022   0.15240163 
   64100   -940.69555    55.616143   -885.07941    1991.9685   -1497.0877    2.1528627    27.190171   0.14669375 
   64200   -944.84867    50.228794   -894.61988    1799.0133   -69.884001     2.168028    37.695845   0.13418195 
   64300   -940.59513    44.104647   -896.49048    1579.6685   -3231.0438    2.1536896    28.629493   0.14503215 
   64400   -941.07078    47.329227   -893.74155    1695.1613   -1147.9289    2.1584585    29.654323   0.14796658 
   64500   -937.11131    53.830611    -883.2807    1928.0173    4361.5357    2.1566922     33.78372   0.17486452 
   64600   -938.58768    45.164053   -893.42363    1617.6126    5524.5578    2.1698817    35.265537     0.195705 
   64700    -944.8701    48.661862   -896.20824    1742.8914   -8365.2077    2.1490397     32.42017   0.17537369 
   64800   -944.89938    48.540578   -896.35881    1738.5475    1105.9415    2.1633372    34.781254    0.1555051 
   64900     -950.248    45.455892   -904.79211    1628.0652    8910.0999    2.2047528    26.246402   0.13963484 
   65000   -944.99324    44.231267   -900.76197    1584.2036   -4542.9021    2.1619821    26.425677   0.14785262 
   65100   -943.70712    47.639625   -896.06749    1706.2786   -9333.8904    2.1444075      31.0984   0.15310261 
   65200   -942.93753    48.534637   -894.40289    1738.3347    5391.2602    2.1809447    26.486718   0.15547478 
   65300   -948.22943    46.408891   -901.82054    1662.1982    7777.5344    2.1957116    31.483868    0.1715334 
   65400   -943.07471    46.282907    -896.7918    1657.6859   -7300.6596    2.1483757    30.763047   0.17018974 
   65500    -944.5502    50.775845   -893.77436    1818.6066   -3508.4961    2.1597625    23.829032   0.15243617 
   65600   -945.47684     50.01468   -895.46217    1791.3444    9705.8955    2.1937317    36.270554   0.16418259 
   65700   -944.79149    43.893647   -900.89785    1572.1112   -987.41836    2.1698502    42.618632   0.15629566 
   65800   -937.91697    47.251982   -890.66499    1692.3946    -13754.49    2.1255108    44.875225   0.15910195 
   65900   -943.32637    48.049166   -895.27721    1720.9469    11803.023    2.1971241    48.254219   0.15358661 
   66000   -944.63686    46.511109   -898.12575    1665.8593    6482.8849    2.1906169    45.650968   0.14405019 
   66100   -943.42186     49.11703   -894.30483    1759.1939   -9476.1171    2.1429885    51.986786   0.14212088 
   66200   -938.81557    50.533365   -888.28221    1809.9219   -2816.3331     2.153838    47.245624    0.1631036 
   66300   -943.23851    44.946989   -898.29152    1609.8381    9129.4867     2.195267    52.888995   0.15008202 
   66400   -945.00599     48.31117   -896.69482    1730.3309     -2924.68    2.1653461    50.226349   0.14675349 
   66500   -940.20163    48.355657   -891.84597    1731.9243   -5393.9895     2.149173    50.509186   0.14031409 
   66600   -950.46578    48.230732   -902.23505    1727.4499    4679.5795    2.1936634    47.817282   0.12810489 
   66700   -944.10195    45.596867   -898.50509    1633.1144    778.70775    2.1736554    54.072733   0.14234753 
   66800    -941.0941    46.604686   -894.48942    1669.2108   -2884.6711    2.1553991     45.52702     0.137028 
   66900   -944.83838    45.569559   -899.26882    1632.1364    1666.3922    2.1771756    51.033259   0.12851413 
   67000   -949.20402    47.467495   -901.73652    1700.1135    3118.5474    2.1935204     49.81025    0.1325142 
   67100   -947.32432    52.981012    -894.3433    1897.5877   -6654.1007    2.1585943    47.719564   0.13200288 
   67200   -941.75495    44.509049    -897.2459    1594.1527   -3944.6569    2.1527842    52.891178   0.13911863 
   67300   -946.77757     44.96333   -901.81424    1610.4234    7394.1793     2.198492    54.390269   0.13510331 
   67400   -942.68975    51.119415   -891.57034    1830.9121    1080.2355     2.165132    55.686002   0.13043221 
   67500   -943.58655    47.856534   -895.73002    1714.0475   -7878.7248    2.1476611    48.763886    0.1358932 
   67600   -946.55448    46.756541   -899.79794    1674.6497   -653.27422    2.1783216    46.558023   0.12824919 
   67700   -944.24512    49.011018    -895.2341    1755.3969    11332.105    2.1976299    46.226892   0.15172037 
   67800    -940.7405    48.984871   -891.75563    1754.4604   -5515.5366    2.1429947    52.275465   0.14327579 
   67900   -946.16255    46.552608   -899.60995    1667.3456   -11358.611    2.1473769    50.864585   0.13338536 
   68000   -944.29242    48.726712   -895.56571    1745.2141    12396.071    2.2014976    50.734867   0.14468144 
   68100   -941.51171    52.092844   -889.41887    1865.7768     3429.741    2.1748911      54.4535   0.14834239 
   68200   -947.08353    50.272023   -896.81151    1800.5616   -16053.943    2.1365578    55.719189   0.11897276 
   68300   -947.68111    49.169264   -898.51185    1761.0647   -2504.5959    2.1709834    51.863715   0.13167678 
   68400   -944.69129     52.07178   -892.61951    1865.0223      7323.42    2.1902736    48.230005   0.14019981 
   68500   -942.48513    47.550355   -894.93478    1703.0813   -3655.3228    2.1568884    47.540755   0.15805939 
   68600   -947.03474    45.575337    -901.4594    1632.3433   -3061.2844    2.1708196    47.668717   0.13978158 
   68700    -943.6345    49.158633   -894.47587    1760.6839    4104.1549    2.1779719    48.252787   0.14321922 
   68800    -944.1422    49.038587   -895.10361    1756.3844    1195.9507    2.1722203    54.550504   0.12148244 
   68900   -949.50043    45.807248   -903.69319    1640.6495   -2252.8597    2.1774064    53.291119   0.13214147 
   69000   -944.10217    48.218563   -895.88361     1727.014   -2071.3278    2.1640671    51.603475   0.13217924 
   69100   -944.96652    50.592528   -894.37399    1812.0409    2869.9921    2.1776488    50.180521   0.13208582 
   69200   -950.43843    47.860682   -902.57775    1714.1961   -851.95017    2.1799106    47.841321   0.12793997 
   69300   -941.28168     46.33149   -894.95019     1659.426   -3489.3936    2.1521307    46.303905   0.13761357 
   69400   -944.06303    49.754725    -894.3083    1782.0338       1756.8    2.1738692    47.404205   0.14515256 
   69500   -947.39292    47.268155   -900.12476    1692.9739     4029.666    2.1870398    46.471511   0.11745553 
   69600   -943.11266    48.150469   -894.96219    1724.5752   -7865.7522    2.1494206     52.31015   0.14136068 
   69700   -942.74376    50.116632   -892.62713     1794.996   -3541.3072    2.1585728    50.770184   0.14487069 
   69800    -944.1527    46.490834   -897.66187    1665.1331    7276.8714    2.1942479    50.103677   0.15085577 
   69900    -944.3138    44.886887   -899.42691    1607.6855    81.442304    2.1733134    50.899494   0.14877356 
   70000   -934.35683    44.119841   -890.23699    1580.2127   -9518.8336    2.1279386    46.311762   0.15435889 
   70100    -943.8517     45.38261   -898.46909    1625.4405    7620.0864    2.1958575    47.526243   0.14094712 
   70200   -943.37291    45.509161   -897.86375    1629.9731    9095.6083    2.1946548    45.603244   0.15125296 
   70300   -942.37715    48.789353    -893.5878    1747.4577   -11103.686    2.1417558    46.118362   0.13643252 
[...]
  186800   -943.71069    46.751614   -896.95907    1674.4733    3912.5008    2.1836926    83.150465   0.14606017 
  186900   -941.20006    49.910712   -891.28935    1787.6207   -1946.4872     2.159501    86.909571   0.16265954 
  187000   -937.96511    47.897928   -890.06718    1715.5301   -2809.8566       2.1472    80.805794   0.16154771 
  187100   -946.20742    48.700208   -897.50721    1744.2648    2451.7176    2.1820886    78.906422   0.15564217 
  187200     -945.419    49.526101    -895.8929    1773.8453    4286.0434    2.1853337    75.039486   0.14554083 
  187300   -939.15286    48.165821   -890.98704     1725.125    -4630.305    2.1496943    84.706314   0.14971776 
  187400   -937.67758    50.608118   -887.06946    1812.5992   -5527.7637    2.1434379     70.29944   0.14825142 
  187500   -947.21813    50.785339   -896.43279    1818.9467    9826.3352    2.1987251    80.569184   0.12457382 
  187600   -944.85882    48.699227   -896.15959    1744.2297     3019.482    2.1779454    82.793631   0.14817752 
  187700   -943.49439    46.516795   -896.97759    1666.0629   -10328.296    2.1438889    82.012207   0.15167138 
  187800   -950.16677    43.157368    -907.0094    1545.7404    3407.1915    2.1959628    82.968675   0.13415848 
  187900   -943.97606    45.263748   -898.71231    1621.1833    6425.9465    2.1890123    76.808811   0.15924745 
  188000   -941.42877    45.232671    -896.1961    1620.0702   -645.96402    2.1648778    84.307529   0.13873124 
  188100   -943.02907    46.626034   -896.40304    1669.9755   -1332.8128    2.1638361    76.890547   0.14317862 
  188200   -949.29452    43.313456   -905.98106    1551.3309     4958.386    2.1934794    79.032821   0.13436437 
  188300   -945.90264    47.676552   -898.22608    1707.6012   -2225.6861     2.171019    78.585717   0.14423302 
  188400   -942.45931    46.723364   -895.73594    1673.4615    1172.7512    2.1692212    85.225941   0.12448028 
  188500   -947.99411    49.871926   -898.12218    1786.2315    -1510.389     2.172713    80.635508   0.11891234 
  188600   -951.08751    44.590644   -906.49687    1597.0752    292.79352    2.1869377    83.554508   0.13033807 
  188700   -943.28821    46.278168   -897.01004    1657.5161   -2971.3557    2.1621833    79.985252   0.13805967 
  188800   -944.35013    48.587988   -895.76214    1740.2455    3061.4984    2.1773665    79.001795   0.14593181 
  188900   -945.29327    46.329833   -898.96344    1659.3666    1250.1108     2.177232    80.283403   0.13889944 
  189000   -950.90528    43.856102   -907.04918    1570.7665   -3118.0557    2.1761854    84.806531   0.13771104 
  189100   -943.44128    46.030632   -897.41065    1648.6503   -3436.5392    2.1600918    77.098955    0.1382236 
  189200   -943.31687    47.634284   -895.68258    1706.0873    9018.1272    2.1867127    80.662618   0.14592424 
  189300   -944.50469    46.877373   -897.62732    1678.9775    1822.2355    2.1720904    75.625959   0.12727209 
  189400   -937.17751    47.024933   -890.15258    1684.2625   -10687.977    2.1333315    86.338546   0.13134283 
  189500   -942.33238    53.032748   -889.29963    1899.4407     2602.125    2.1699646    88.122736   0.14790687 
  189600   -940.04075    46.341978   -893.69877    1659.8016    11444.214     2.193664    79.623289   0.16920964 
  189700   -941.75639    44.152526   -897.60386    1581.3834   -12042.937    2.1396873    81.214916   0.16017228 
  189800   -943.78524    53.288963   -890.49627    1908.6174   -8886.9756    2.1417499    66.618355   0.13568321 
  189900   -942.21881    51.380284   -890.83852    1840.2554    14411.325    2.1959851    64.402855   0.14451134 
  190000   -943.82503    46.126252   -897.69877    1652.0751    1139.1375     2.173726    66.322023   0.13322403 
  190100   -942.19571    44.969761   -897.22595    1610.6538   -8414.0518    2.1467396    67.595036   0.14603955 
  190200   -946.77734    53.675979   -893.10137    1922.4789   -813.74622    2.1698849    72.541736   0.12240481 
  190300   -946.97392    45.542819    -901.4311    1631.1786    4481.3832     2.188157    69.345845   0.12533108 
  190400   -944.40973    43.441282   -900.96845    1555.9092   -4526.9068    2.1600786     74.26149   0.12393319 
  190500   -942.00126    46.461954   -895.53931    1664.0987   -748.11319    2.1636219    72.933898   0.14082925 
  190600   -941.96369    47.067006   -894.89668    1685.7695    4764.9587    2.1787609    71.150534   0.16033779 
  190700   -947.43657    43.005621   -904.43095    1540.3054    1441.6561    2.1822932    72.466611   0.15261485 
  190800   -944.99753    47.785134    -897.2124    1711.4902   -6749.2049     2.152386    68.654639   0.14719775 
  190900   -942.57009    48.022986   -894.54711    1720.0092    2728.8943    2.1710147    69.232156   0.12866542 
  191000   -946.62757    45.596732   -901.03084    1633.1096    4376.0849    2.1864441    69.406767   0.12255924 
  191100   -943.52942    43.991798   -899.53762    1575.6267   -25.706626    2.1679675    73.406505   0.13908496 
  191200   -942.90381    49.288565   -893.61524    1765.3377   -3877.5906    2.1562058    74.005534   0.14586418 
  191300     -946.626    48.569047   -898.05696    1739.5671   -656.76279    2.1719596    67.271232   0.12840733 
  191400   -947.99191    47.810146   -900.18177     1712.386    2091.0387    2.1789423    72.016767   0.12709986 
  191500   -941.06518    51.180537   -889.88464    1833.1012    -5281.146    2.1450243    72.193173   0.12315263 
  191600   -942.44536    45.899124   -896.54624    1643.9402    2332.4282    2.1718175    70.179463   0.14502045 
  191700   -942.94826    44.065534   -898.88273    1578.2676    3732.8151    2.1762437    69.847056   0.15562962 
  191800   -937.76121    47.662089   -890.09912    1707.0832     1173.276    2.1526779    68.401562    0.1351021 
  191900   -945.11768    50.004702   -895.11298    1790.9871   -920.48068     2.163663    67.750892   0.14543397 
  192000    -946.5502    47.703271   -898.84693    1708.5582    490.47212    2.1725107    68.411705   0.12539088 
  192100   -943.49666    49.899335   -893.59732    1787.2132   -31.561642    2.1645751    69.476723   0.13212433 
  192200   -943.76844    51.493226   -892.27521    1844.3006   -4773.0248     2.155581    74.974607   0.14820286 
  192300   -948.73546     48.18137   -900.55409     1725.682    656.17711    2.1804336    71.146385   0.11450086 
  192400    -944.7234    49.253847   -895.46956    1764.0942    1791.4601    2.1753882    68.549918   0.13717098 
  192500   -945.16074     50.81222   -894.34852    1819.9095    -6965.247    2.1498583    67.499552   0.12600406 
  192600   -951.46924    47.303733   -904.16551    1694.2482   -1934.6228    2.1799227    64.658029   0.13195943 
  192700   -944.37654    47.533669   -896.84287    1702.4836    9958.0516    2.1906712    67.685162   0.15330348 
  192800   -940.85897    46.039367   -894.81961    1648.9632   -3253.9016     2.149349     77.02338   0.13252795 
  192900   -939.45203     45.92578   -893.52625    1644.8949   -9355.5071      2.13533    72.944142    0.1429509 
  193000   -947.91627     43.87698   -904.03929    1571.5143    16866.944    2.2172386    73.645801   0.13301289 
  193100   -945.09108     47.41374   -897.67734    1698.1882   -164.27785    2.1722855    72.049172    0.1412495 
  193200   -941.25691    45.132419   -896.12449    1616.4796   -10169.061    2.1363257    65.081339   0.13780896 
  193300   -941.85679    46.812244   -895.04454    1676.6448    4254.7711    2.1734507    73.055562   0.13251909 
  193400   -947.92014    42.928801   -904.99134     1537.554    11766.857    2.2100527    71.821297   0.14335455 
  193500     -943.295    45.618182   -897.67682    1633.8778   -7699.1447     2.144362    69.461929     0.122443 
  193600   -945.06639    49.107598   -895.95879    1758.8561   -4866.5618       2.1565    69.583495   0.14324381 
  193700   -944.70123    47.025563   -897.67567    1684.2851    7225.2412    2.1903103    71.102801   0.13971577 
  193800   -949.64465    43.318445   -906.32621    1551.5096    992.28369    2.1844009    66.066462   0.11891261 
  193900   -945.61194     48.78543   -896.82651    1747.3172    -11106.16     2.144369    74.420062   0.12187491 
  194000   -943.94491    48.336619   -895.60829    1731.2424    4206.8396    2.1793763    75.621415   0.13768532 
  194100   -945.17383     45.82744   -899.34639    1641.3727    5315.8594    2.1856073     66.27723   0.12716928 
  194200   -948.52318    42.089404   -906.43377    1507.4898   -5386.8625    2.1661407    68.824081   0.12534033 
  194300   -952.22269    51.630099   -900.59259    1849.2029   -6471.4103    2.1710978    68.822687    0.1185863 
  194400   -945.11636    48.398111   -896.71825    1733.4448    8098.4548    2.1901312    74.251288   0.11976883 
  194500   -944.54892    47.979985   -896.56894    1718.4691   -4604.9111    2.1580514    76.458998   0.12896941 
  194600   -942.99041     49.49154   -893.49887    1772.6075   -4933.0017    2.1515545    69.365748   0.12430765 
  194700   -941.43991    58.553697   -882.88622    2097.1811    545.98428    2.1594641    73.699561   0.12743173 
  194800    -940.6584     48.70369   -891.95471    1744.3896    3618.5742    2.1702337     70.85827   0.13827402 
  194900   -940.97685    45.042691   -895.93416    1613.2659   -5096.1701    2.1533207    73.560427   0.13697705 
  195000   -940.44449    42.971027   -897.47346    1539.0664    2524.8428    2.1711132    68.470937   0.13547812 
  195100    -946.7705    45.238592    -901.5319    1620.2823    3377.7331    2.1864372    69.032883   0.12851199 
  195200    -950.7214    42.626389   -908.09501    1526.7227    364.18308    2.1872524    71.756656     0.117949 
  195300   -946.30763    47.454082   -898.85355    1699.6331   -7609.6929    2.1556128    74.075772   0.13006744 
  195400   -943.27564    46.649853   -896.62579    1670.8286    2380.1104    2.1728821    70.538155     0.128531 
  195500   -943.00773     48.01775   -894.98998    1719.8217    6410.7845     2.178116    77.327776   0.12943193 
  195600   -939.95853    54.660782   -885.29775     1957.751   -3754.5724     2.143326    68.641723   0.12426035 
  195700   -939.44121    47.336784   -892.10442    1695.4319   -2082.9539    2.1542865    73.533553   0.12740672 
  195800   -942.72561    46.647758   -896.07786    1670.7535   -16.245469    2.1664582    65.197818   0.13966837 
  195900   -946.89642    49.934909   -896.96151    1788.4873    2294.1565    2.1781906    66.997769   0.13922183 
  196000   -948.67714     49.47012   -899.20702    1771.8403    -5630.866    2.1657438    73.319305   0.14007554 
  196100   -948.07506    39.754041   -908.32102    1423.8456   -2399.7723    2.1764051    70.778095   0.12873374 
  196200   -950.75332    50.242248   -900.51107    1799.4951   -378.18792    2.1830601    69.303694   0.12272841 
  196300   -943.06516    46.678626   -896.38654    1671.8591    3630.2788    2.1787817    72.592174    0.1327997 
  196400   -941.05807    45.280772   -895.77729     1621.793   -4832.0127    2.1509844    67.522149   0.12793886 
  196500   -948.06671    43.544466   -904.52225    1559.6048   -2742.0518    2.1767155    75.829013   0.12937102 
  196600   -947.29347    45.900791   -901.39268    1643.9999    6885.7461    2.1973996    67.206891   0.14115961 
  196700   -946.30328    50.607573   -895.69571    1812.5797   -204.87991    2.1736158    71.785665   0.13279261 
  196800   -946.91209    50.349583   -896.56251    1803.3395   -8726.7242    2.1486008    70.937615   0.14616156 
  196900   -950.34862    45.080196   -905.26842    1614.6092    1916.0065    2.1884873    68.806953   0.15009977 
  197000   -945.33131    46.483278   -898.84803    1664.8625    7407.6706    2.1958041    73.327117   0.16401493 
  197100   -941.59579    46.273807   -895.32199      1657.36    288.79907    2.1661692    71.404681   0.13896866 
  197200   -945.16645    46.788933   -898.37751    1675.8099   -8727.5896    2.1477482    70.984991   0.11956307 
  197300   -946.57694    44.603479   -901.97347    1597.5349    7307.1603    2.1977791    70.912458   0.12269215 
  197400   -938.34177    46.958928   -891.38284    1681.8985    6803.6595    2.1764598    66.543094   0.15055066 
  197500    -944.2057    49.377834   -894.82786    1768.5349   -8357.1925    2.1461277    71.472586   0.13007531 
  197600   -942.81096    44.317955   -898.49301    1587.3084   -857.38927    2.1651922    66.298861   0.14382345 
  197700    -941.9821      43.8901     -898.092    1571.9842    14343.468    2.2014936    72.512259   0.14182656 
  197800   -941.26456    52.302484   -888.96208    1873.2853    -7146.594    2.1427798     69.07685   0.15606754 
  197900    -943.4512    46.050669   -897.40053     1649.368   -9604.1609    2.1432742    71.762551   0.14416213 
  198000   -946.84243    50.161096   -896.68134    1796.5885    12063.553     2.205746    73.446513   0.14909729 
  198100    -943.2636    49.452911   -893.81069    1771.2239    7972.3165    2.1900862    71.379051   0.13231013 
  198200   -936.04323    45.775533    -890.2677    1639.5136   -19304.255    2.1099714    72.061505   0.13924292 
  198300   -945.92678    45.667682   -900.25909    1635.6508    527.65701    2.1801231    69.510751    0.1348821 
  198400   -947.94508    51.772023   -896.17306    1854.2861    6025.8205    2.1950011    67.172951   0.14334873 
  198500   -945.45295    51.997106   -893.45585    1862.3478   -6500.5347    2.1547379    69.055766   0.14798865 
  198600    -947.1131    43.811627   -903.30147    1569.1736   -1320.6213    2.1753591    68.391162   0.14105568 
  198700   -940.17795    41.836745    -898.3412    1498.4405    7180.3217    2.1791216    68.776178   0.15656377 
  198800   -938.36091    44.637359   -893.72355    1598.7483    4579.2367    2.1731534    68.226095       0.1547 
  198900   -943.97286    43.251659    -900.7212    1549.1176   -2241.9426    2.1662055    68.713923   0.14063338 
  199000    -946.6098    45.723922   -900.88588    1637.6651   -2396.9368    2.1718395    67.797697    0.1311826 
  199100   -941.67191    48.156345   -893.51556    1724.7856    3455.8245     2.177549    65.580215   0.13344446 
  199200   -944.40562    46.231217   -898.17441    1655.8345   -863.86396    2.1716773    67.426083   0.12104936 
  199300   -946.21806    42.960994   -903.25706     1538.707   -2603.6961    2.1715551     71.73016   0.13783673 
  199400   -939.99357     46.74925   -893.24432    1674.3886    1336.9569    2.1634045    69.118457   0.14795163 
  199500   -940.97928    45.658802   -895.32048    1635.3327    7528.8922     2.184881    74.255969   0.16887709 
  199600   -949.11679    48.594197    -900.5226    1740.4679   -3548.9755    2.1683701    73.848733    0.1362237 
  199700   -946.47507    55.044427   -891.43064    1971.4918   -10439.783    2.1434798    69.927437   0.13082583 
  199800   -941.35956    47.812681   -893.54688    1712.4769    8466.8607    2.1871427    69.834784   0.14308577 
  199900   -944.27787    45.898224   -898.37964    1643.9079     2349.336     2.179936    69.122293   0.12606616 
  200000    -942.4123     47.42843   -894.98387    1698.7144   -8745.1259    2.1422252    70.791648   0.13710859 
  200100   -941.00007    51.556554   -889.44351    1846.5688   -1487.7989    2.1561003    68.220782    0.1464474 
  200200   -945.23486    47.258909   -897.97596    1692.6427    12803.746    2.2092411    71.824208   0.15124297 
  200300   -940.57278    43.437982   -897.13479     1555.791   -1.4692563     2.162933    68.403518   0.14555212 
  200400   -941.39846    48.869368   -892.52909    1750.3235   -14835.647    2.1261161     72.42576   0.16138002 
  200500   -947.71024    45.126718   -902.58352    1616.2754    9360.7785    2.2051258    69.070133   0.15126367 
  200600   -946.05506    47.813378   -898.24168    1712.5018    5285.9586    2.1902195    73.124011    0.1576108 
  200700   -942.12961    47.192876   -894.93673    1690.2777   -7893.0625     2.146359    75.683671   0.14015387 
  200800   -945.55893    47.983937   -897.57499    1718.6106   -2743.8422    2.1651855    69.438574   0.13774819 
  200900   -945.90651    42.939365   -902.96715    1537.9323    9010.8634    2.2000072    69.877244   0.15075112 
  201000   -942.96206    48.381173   -894.58089    1732.8382    -425.4701    2.1642961    69.673167   0.14642008 
  201100   -943.03641    46.380842   -896.65557    1661.1935   -4684.7386    2.1579029    76.194383   0.13544124 
  201200   -944.95184    42.053157   -902.89869    1506.1916    3233.5915    2.1874992    72.743442   0.14819713 
  201300   -942.52088    48.382591   -894.13828    1732.8889    4960.4059    2.1772542     76.85215   0.14277471 
  201400   -942.25977    47.487057   -894.77271    1700.8142   -1855.9629    2.1688282    72.864191   0.15640694 
  201500   -944.98804     45.63149   -899.35655    1634.3545   -3251.2612     2.163673    68.842838   0.14077202 
  201600   -941.85598    44.604856   -897.25112    1597.5842    6529.3158    2.1794284    71.797063   0.12225754 
  201700    -941.6093    51.026048   -890.58325     1827.568    328.16531    2.1624314    67.954514   0.13223814 
  201800   -941.88922    44.112972   -897.77625    1579.9667   -3782.8716    2.1549266    67.371077   0.12684737 
  201900   -943.08272    45.724469   -897.35825    1637.6847    2535.1405    2.1720096    72.020626   0.12452012 
  202000   -941.69575    54.125387   -887.57036    1938.5751    6384.9739    2.1748055    68.983144   0.13451017 
  202100   -945.78244    50.281734    -895.5007    1800.9094    -5522.055    2.1583944    72.371077   0.11903792 
  202200   -943.60027    44.393036   -899.20723    1589.9976   -10183.725    2.1429618    68.658766   0.12635537 
  202300   -942.49672     50.11287   -892.38385    1794.8613    7878.3671     2.188043    70.464002   0.13733743 
  202400   -949.19188    53.766639   -895.42524     1925.726    4587.0468    2.1884003     67.07461   0.12597422 
  202500   -951.95567    50.120901   -901.83477    1795.1489   -15392.604    2.1473024    71.481962   0.13150054 
  202600   -945.75717    49.119556   -896.63762    1759.2844   -1695.1818    2.1680363    74.535976   0.13038924 
  202700   -943.20522    50.809544   -892.39567    1819.8136    8073.5207    2.1857848    70.705896   0.14350022 
  202800   -946.59891    45.366365   -901.23254    1624.8587   -3322.0586    2.1653543    70.145086   0.12591413 
  202900   -947.21098    47.288282    -899.9227    1693.6948   -7111.3747    2.1564069    73.487974   0.13033841 
  203000   -941.56516    48.101399   -893.46376    1722.8177    5118.7332    2.1771803    75.345251   0.13241242 
  203100   -944.30212    45.064066   -899.23806    1614.0314    4465.5259    2.1804029    73.564783   0.13303693 
  203200   -946.21441    43.540709    -902.6737    1559.4703   -3389.9115    2.1695274    65.834807   0.13131285 
Loop time of 142.073 on 1 procs for 200000 steps with 217 atoms

Performance: 364.882 ns/day, 0.066 hours/ns, 1407.725 timesteps/s
100.0% CPU use with 1 MPI tasks x no OpenMP threads

MPI task timing breakdown:
Section |  min time  |  avg time  |  max time  |%varavg| %total
---------------------------------------------------------------
Pair    | 136.46     | 136.46     | 136.46     |   0.0 | 96.05
Neigh   | 2.4198     | 2.4198     | 2.4198     |   0.0 |  1.70
Comm    | 0.91322    | 0.91322    | 0.91322    |   0.0 |  0.64
Output  | 0.072423   | 0.072423   | 0.072423   |   0.0 |  0.05
Modify  | 1.892      | 1.892      | 1.892      |   0.0 |  1.33
Other   |            | 0.3185     |            |       |  0.22

Nlocal:    217 ave 217 max 217 min
Histogram: 1 0 0 0 0 0 0 0 0 0
Nghost:    953 ave 953 max 953 min
Histogram: 1 0 0 0 0 0 0 0 0 0
Neighs:    4204 ave 4204 max 4204 min
Histogram: 1 0 0 0 0 0 0 0 0 0
FullNghs:  8408 ave 8408 max 8408 min
Histogram: 1 0 0 0 0 0 0 0 0 0

Total # of neighbors = 8408
Ave neighs/atom = 38.7465
Neighbor list builds = 4094
Dangerous builds = 26
Total wall time: 0:02:24
