LAMMPS (3 Mar 2020)

# ---------- 1. Initialize simulation ----------
units metal
atom_style atomic
dimension 3
boundary p p p
read_data /home/modeler/RemLabs/Project/eval_timestep_npt_fluc/n3_T1800_timestep6.371375e-04_steps31391/20201206-083755/lammps.data
  orthogonal box = (0 0 0) to (17.469 17.469 17.469)
  1 by 1 by 1 MPI processor grid
  reading atoms ...
  217 atoms
  read_data CPU = 0.000934373 secs

pair_style meam/c
pair_coeff * * library.meam Li Si LiSi.meam Li Si
Reading potential file library.meam with DATE: 2012-06-29
Reading potential file LiSi.meam with DATE: 2020-11-07

group Li type 1
1 atoms in group Li

velocity all create 1800 3320 dist gaussian

# ---------- 2. Describe computed properties----------
compute msdli Li msd
thermo_style custom step pe ke etotal temp press density c_msdli[4]
thermo 100

# ---------- 3. Specify ensemble  ----------
fix 1 all npt temp 1800 1800 0.03185687464257833 tchain 2 iso 1.0 1.0 1.0 pchain 2
# fix 1 all nvt temp 1800 1800 0.03185687464257833
# fix 1 all nve

# ---------- 4. Run -------------
timestep 0.0006371374928515666
run 31391
Neighbor list info ...
  update every 1 steps, delay 10 steps, check yes
  max neighbors/atom: 2000, page size: 100000
  master list distance cutoff = 6
  ghost atom cutoff = 6
  binsize = 3, bins = 6 6 6
  2 neighbor lists, perpetual/occasional/extra = 2 0 0
  (1) pair meam/c, perpetual
      attributes: full, newton on
      pair build: full/bin/atomonly
      stencil: full/bin/3d
      bin: standard
  (2) pair meam/c, perpetual, half/full from (1)
      attributes: half, newton on
      pair build: halffull/newton
      stencil: none
      bin: none
Per MPI rank memory allocation (min/avg/max) = 9.27 | 9.27 | 9.27 Mbytes
Step PotEng KinEng TotEng Temp Press Density c_msdli[4] 
       0   -951.04357    50.256344   -900.78722         1800   -114161.75    1.8918427            0 
     100   -938.48095    32.545859   -905.93509    1165.6746   -67201.088    1.9919027   0.25438886 
     200   -950.25167    39.119673     -911.132    1401.1248    2880.3643    2.1878826   0.34420627 
     300   -954.65941    49.098244   -905.56117     1758.521    41924.684    2.2886211    0.4357073 
     400   -954.79014    51.110144      -903.68      1830.58    34179.579    2.2731791   0.53543808 
     500   -945.92419    42.803224   -903.12097    1533.0562     5815.482    2.1884984   0.40027978 
     600   -943.11826    46.009453   -897.10881    1647.8917   -21139.106    2.1065728   0.24546348 
     700   -937.87878    49.386805   -888.49198    1768.8562     -28666.1     2.077324   0.12420942 
     800   -935.73503    47.845098   -887.88994    1713.6379   -12818.858     2.107053   0.19808508 
     900   -942.08858      53.3064   -888.78218    1909.2419    5654.5217    2.1684779   0.61215249 
    1000    -945.7198    48.260676   -897.45913    1728.5224    20638.045    2.2181517   0.14189384 
    1100    -948.2006    47.729696   -900.47091    1709.5046     20183.52    2.2250909   0.42559237 
    1200   -946.45928      52.9372   -893.52208    1896.0185    10342.069      2.18694   0.25988004 
    1300    -937.5247    46.551033   -890.97367    1667.2892    -7691.476    2.1315064   0.14788398 
    1400   -938.97393     54.46632   -884.50761    1950.7861   -19029.855    2.0970743   0.33429555 
    1500   -934.20645     44.71978   -889.48667    1601.7003   -15978.793    2.1035047   0.95082546 
    1600   -940.45494    54.801992   -885.65295    1962.8086   -3940.4473    2.1441948  0.080405172 
    1700   -945.97843    52.087493   -893.89094    1865.5851    8688.6297    2.1896221   0.71597181 
    1800   -944.13693    50.381983   -893.75495    1804.4999      20183.4    2.2131272   0.09258735 
    1900   -944.81243    44.876214   -899.93621    1607.3033    10002.201    2.1963459   0.31123396 
    2000   -943.18851    45.064671   -898.12384    1614.0531    -1992.476    2.1592596   0.36143147 
    2100    -941.2082     51.32815   -889.88005    1838.3882   -11936.947    2.1298399   0.44983798 
    2200   -941.41547    51.648032   -889.76744    1849.8452   -14633.497    2.1226568  0.078947828 
    2300   -937.55824    53.087512   -884.47073    1901.4022   -2885.5244    2.1407978   0.20762705 
    2400   -940.14332    48.924197   -891.21912    1752.2873    4741.2105    2.1672657   0.23895908 
    2500    -944.0351    49.443557   -894.59154    1770.8889    8789.7768      2.18591   0.35572806 
    2600    -942.4895    53.198801    -889.2907    1905.3881     12797.53    2.1857998   0.48275462 
    2700   -941.07976    45.218993   -895.86077    1619.5803   -932.17413    2.1648157   0.19636679 
    2800   -939.53576     50.31758   -889.21818    1802.1932   -4620.8344    2.1439955   0.33202464 
    2900   -936.37765    52.607332   -883.77032    1884.2038   -5014.2285    2.1331349   0.38722864 
    3000   -942.94709    51.148055   -891.79903    1831.9378   -11211.279    2.1359082   0.39343109 
    3100   -939.01073    48.181243   -890.82948    1725.6774    645.48537    2.1580441   0.17227339 
    3200   -936.16742    51.824051   -884.34337    1856.1495    14965.264     2.181195   0.54899639 
    3300   -940.00404    45.602884   -894.40115    1633.3299    10398.486    2.1826345   0.37130147 
    3400   -946.95454    53.592284   -893.36225    1919.4813    -1165.586    2.1682381   0.32825473 
    3500   -939.92145    51.287658   -888.63379    1836.9379   -399.76705    2.1516466   0.22871294 
    3600   -936.91497    47.935393   -888.97958    1716.8719    -5027.852    2.1405862   0.30412059 
    3700   -942.02975    48.625029   -893.40472    1741.5722   -8746.7697    2.1428843   0.15704796 
    3800   -938.39234    53.619641    -884.7727    1920.4611    2603.9602    2.1619138   0.14392678 
    3900   -937.99262    51.162092   -886.83053    1832.4406    8870.6255     2.176263   0.31477032 
    4000   -945.57163    50.759904   -894.81173    1818.0357    1651.4211    2.1749962  0.054042033 
    4100   -943.39436    52.016911   -891.37745    1863.0571    229.69444     2.166461   0.25225399 
    4200    -941.5715    53.603809    -887.9677     1919.894   -2310.1538    2.1546724   0.75527064 
    4300   -943.12265    49.360308   -893.76234    1767.9072    -6908.281    2.1467034   0.10212258 
    4400   -943.26139     44.78761   -898.47378    1604.1298   -7006.1579    2.1552747   0.44101165 
    4500   -939.34047     49.99785   -889.34262    1790.7417    5104.2845    2.1746606   0.15884198 
    4600   -942.15289    48.664498   -893.48839    1742.9859    7382.5621    2.1844783   0.23919033 
    4700   -944.41624    48.667705   -895.74854    1743.1007    2843.6722    2.1805195   0.23862871 
    4800   -942.02805    51.488586   -890.53947    1844.1344    330.95918    2.1672571   0.52089858 
    4900   -943.64613    54.328171   -889.31796    1945.8381   -6017.4422    2.1510049   0.49569154 
    5000   -937.56785    56.148639   -881.41921    2011.0406   -4816.7851    2.1422822   0.14935799 
    5100   -935.81808    44.376154   -891.44193    1589.3929   -4323.8251    2.1415426   0.19050663 
    5200   -944.88111    51.765545   -893.11556    1854.0541   -5974.4058    2.1556519   0.24734881 
    5300   -939.32213    51.167807   -888.15432    1832.6453    6877.0214    2.1783173   0.20578891 
    5400   -944.00536    51.104176   -892.90118    1830.3663    7368.1478    2.1878447   0.38909539 
    5500   -946.01752    53.360679   -892.65684     1911.186    2802.8635    2.1781295   0.27931844 
    5600    -941.1056    49.838495    -891.2671    1785.0341   -2100.5809    2.1591724   0.34614421 
    5700   -933.34612    49.191334   -884.15479    1761.8552   -1022.7279       2.1421   0.15901893 
    5800    -940.4409    45.891922   -894.54898    1643.6822   -11412.137    2.1336546   0.28495945 
    5900   -941.42403    48.876741   -892.54729    1750.5876   -5154.7824    2.1495627   0.18061957 
    6000   -941.64222    52.295275   -889.34694    1873.0271    6354.1989    2.1774969   0.68585141 
    6100   -946.87771    51.283654   -895.59405    1836.7945    7810.2732    2.1931552   0.18848339 
    6200   -948.67701    45.267796   -903.40921    1621.3283    4031.5513    2.1904459   0.63564863 
    6300    -942.1411    49.135463   -893.00564    1759.8541    4866.4326    2.1765438   0.31826211 
    6400   -941.05429    49.208276   -891.84601     1762.462   -2119.9534    2.1547961   0.15474095 
    6500   -936.98285    46.281943   -890.70091    1657.6514   -6664.9699    2.1401648   0.20684644 
    6600   -938.86016    52.828694   -886.03147    1892.1322   -5887.1012    2.1400136   0.83124486 
    6700   -940.53374    50.752084   -889.78165    1817.7556   -3832.2717    2.1505276    0.5381615 
    6800   -946.33313    49.018354   -897.31477    1755.6597   -2218.5906    2.1688808   0.11472536 
    6900   -941.76989    48.576138   -893.19375    1739.8211    9120.5251    2.1875115   0.58802622 
    7000   -943.20176    55.132016   -888.06975    1974.6289    9899.4991    2.1875593   0.16257327 
    7100   -943.49789    50.436285   -893.06161    1806.4448    934.06575    2.1657894   0.30719241 
    7200   -939.38426    48.172622   -891.21164    1725.3686   -5259.9913    2.1435893   0.25453668 
    7300   -933.21744    49.058689   -884.15875    1757.1043   -3836.9899    2.1344287   0.17769533 
    7400   -939.82768    46.965311   -892.86237    1682.1271   -8255.3165    2.1398442   0.18333964 
    7500   -941.99194    51.533244    -890.4587    1845.7339   -240.24959    2.1622074  0.055950679 
    7600    -939.9937    48.061027   -891.93267    1721.3717    9784.1041    2.1829459   0.24351901 
    7700   -948.41532    51.184156   -897.23117    1833.2308    5832.1847    2.1866253   0.35228027 
    7800   -943.16773    53.993587   -889.17414    1933.8545    5212.4176    2.1761031   0.15786083 
    7900   -938.23672    48.926683   -889.31004    1752.3763   -413.09717    2.1531968   0.37363135 
    8000   -942.29125    44.305647    -897.9856    1586.8676   -10620.296    2.1349464   0.20420168 
    8100   -943.98981    53.468531   -890.52128    1915.0489   -9556.9979    2.1427655   0.16664474 
    8200   -941.69181    52.705677   -888.98614    1887.7262    2645.8772    2.1659474   0.25012042 
    8300   -946.03398    52.019827   -894.01415    1863.1616    5640.5282    2.1839464   0.51692688 
    8400   -945.09554     44.55886   -900.53668    1595.9368    5475.7646    2.1869885  0.098620286 
    8500   -941.41644    50.345482   -891.07095    1803.1926    5905.9165    2.1777666   0.27352823 
    8600   -941.75121     51.34027   -890.41094    1838.8223   -971.92247    2.1573853    0.1780346 
    8700   -942.04802     49.72363   -892.32439    1780.9201   -8082.2513    2.1395809   0.17494064 
    8800   -931.50138    50.977826   -880.52355    1825.8409    563.35069    2.1392492    0.1824786 
    8900   -941.96427    56.071643   -885.89262    2008.2829   -5493.7477    2.1470475 0.0096488658 
    9000   -941.26591    48.677376   -892.58853    1743.4471   -1054.4541    2.1607406   0.24652087 
    9100   -943.13059    52.887456   -890.24313    1894.2369    4255.1859    2.1761327   0.28289576 
    9200   -943.81915    47.056898   -896.76226    1685.4074    5538.9602    2.1815147   0.15037576 
    9300   -945.65442    45.194241   -900.46018    1618.6938    2027.3536    2.1782013     0.275508 
    9400   -945.21264    52.369006   -892.84363    1875.6679     83.88619    2.1716809   0.60401776 
    9500   -941.75739    50.444442   -891.31295     1806.737   -1190.9606    2.1612144  0.092037672 
    9600   -939.12719    52.923579   -886.20361    1895.5307   -2145.6357    2.1505194   0.52576828 
    9700   -944.41857    49.478704   -894.93987    1772.1478   -8320.1799     2.146095   0.19886696 
    9800   -940.14719    48.212361   -891.93482    1726.7919   -2153.4942    2.1575272   0.99331543 
    9900   -940.61583    53.067109   -887.54873    1900.6714    4014.5485     2.171906   0.47867404 
   10000   -945.53354    54.234564   -891.29898    1942.4854    3967.3207    2.1743251  0.066360497 
   10100   -943.13155     48.78453   -894.34702    1747.2849   -604.16394    2.1663705   0.38506085 
   10200   -942.26827    54.882472   -887.38579    1965.6911   -2055.2448    2.1568647  0.093549422 
   10300    -941.6206    49.793952   -891.82665    1783.4388   -4604.7283    2.1478702   0.12248322 
   10400   -946.88507    45.565562    -901.3195    1631.9932   -11243.885    2.1503642   0.23751485 
   10500   -943.35627    48.764322   -894.59195    1746.5612     2108.488    2.1701505   0.70068178 
   10600   -943.91979    54.390691    -889.5291    1948.0773    10192.704    2.1862207   0.32504629 
   10700   -947.66477    52.061279   -895.60349    1864.6462    3297.2722    2.1808161  0.089205549 
   10800   -939.36047    44.825958   -894.53451    1605.5032    2527.1361    2.1635927   0.39081493 
   10900   -938.02626    50.898858    -887.1274    1823.0125   -2287.6464    2.1463808   0.53183284 
   11000   -940.92503    50.490206   -890.43482    1808.3761   -8488.0559    2.1358197   0.50571095 
   11100   -948.49588    52.237024   -896.25886    1870.9407   -13676.575    2.1432137   0.31661045 
   11200   -936.89859    50.470831   -886.42776    1807.6821    7858.0866    2.1673906   0.38242035 
   11300   -942.74821    52.334533   -890.41368    1874.4332      7231.31    2.1818963  0.098899489 
   11400   -949.68768    54.313388   -895.37429    1945.3086    509.57546    2.1781779   0.64701446 
   11500   -942.12213    45.441629    -896.6805    1627.5544     1103.184    2.1653747   0.28902824 
   11600   -938.15993    49.547939   -888.61199    1774.6275   -823.44835    2.1520512   0.62167021 
   11700   -943.83413     53.85903    -889.9751    1929.0351   -7512.5716    2.1422661   0.13237981 
   11800   -943.27307    48.855783   -894.41728     1749.837   -6997.8951      2.14612   0.10688837 
   11900   -940.33745    56.388767   -883.94869    2019.6412    3188.7293    2.1634335   0.40207338 
   12000    -942.6684    51.681005    -890.9874    1851.0262    4545.0274    2.1723632   0.59543391 
   12100    -943.1594    47.975691   -895.18371    1718.3153    1811.7807    2.1709674   0.53323906 
   12200   -940.15191    50.469622   -889.68229    1807.6388    2796.7873    2.1646653   0.60986743 
   12300   -942.97376    48.904765   -894.06899    1751.5913   -4726.4164    2.1545641  0.035095741 
   12400   -948.79371    46.882011    -901.9117    1679.1436   -11241.497    2.1521895   0.51708737 
   12500   -943.74219    48.045579   -895.69661    1720.8184     1067.337    2.1680934   0.26170549 
   12600   -941.83096    49.643964   -892.18699    1778.0668     9222.293     2.184722   0.69513944 
   12700   -946.06247    53.052996   -893.00947    1900.1659    5605.6412    2.1833597   0.51325556 
   12800   -944.78747    49.450604   -895.33686    1771.1413    286.05355    2.1674726    0.2079245 
   12900   -938.03379     54.75509    -883.2787    1961.1287    606.84415    2.1493767   0.17089525 
   13000   -939.71493    51.674745   -888.04019     1850.802   -10296.671     2.132673   0.63073218 
   13100   -942.12787    48.590156   -893.53772    1740.3232    -12161.33    2.1341047   0.10175009 
   13200   -936.20315    49.429372   -886.77377    1770.3809    3833.7946    2.1574615   0.35528535 
   13300    -938.6882    45.572249   -893.11595    1632.2327    8444.3733    2.1792596   0.15170882 
   13400    -946.6802    52.683273   -893.99693    1886.9238    7170.5227    2.1869575   0.35993049 
   13500   -939.54145    46.838273   -892.70317    1677.5771    8444.3308    2.1777489   0.21515869 
   13600   -937.25113    53.323265   -883.92787     1909.846    2358.5252    2.1554597   0.79450119 
   13700   -939.46736    46.593999   -892.87336    1668.8281   -9811.2096    2.1322941    0.2252188 
   13800   -944.66335    55.468544    -889.1948    1986.6821     -12669.4    2.1321788  0.056306893 
   13900   -938.75563    53.152046   -885.60358    1903.7135    484.42563    2.1539255   0.38152122 
   14000   -940.95175    46.635629   -894.31612    1670.3191    5549.2071    2.1761517   0.38585064 
   14100   -945.89006    48.162526   -897.72754     1725.007     5196.839    2.1886432   0.53583893 
   14200   -943.29372    53.509926    -889.7838    1916.5315    9109.5453    2.1860252   0.48044742 
   14300   -937.96138    46.409753   -891.55163     1662.229    4042.8751    2.1646182   0.25893495 
   14400   -947.64492    47.026374   -900.61854    1684.3142   -14420.951    2.1417737   0.19114712 
   14500   -941.71835    49.796004   -891.92235    1783.5123     -7870.99    2.1423739   0.17330906 
   14600   -941.91466    52.323881   -889.59078    1874.0517    305.31484    2.1595023  0.093902166 
   14700   -944.96839     51.88591   -893.08249    1858.3651    2470.8087    2.1768193   0.36737689 
   14800   -949.41686    48.747549   -900.66931    1745.9604    2175.7703    2.1865164   0.38203724 
   14900   -943.07267    51.476327   -891.59635    1843.6953    8543.6882    2.1859871   0.36106198 
   15000   -940.10756    48.534417   -891.57315    1738.3268    2569.0461    2.1691152   0.20745494 
   15100   -941.18616    51.773503   -889.41266    1854.3391   -6182.0705    2.1465616   0.23796717 
   15200   -944.45471     47.11265   -897.34206    1687.4043   -12821.134    2.1366108   0.36234703 
   15300   -936.58027    47.921448   -888.65882    1716.3725   -785.61551    2.1523195   0.38915513 
   15400   -939.30814    49.553053   -889.75509    1774.8107    6343.9974    2.1741229    0.0988021 
   15500   -947.76809    52.941651   -894.82644    1896.1779    4093.0225    2.1842899  0.069506317 
   15600   -946.90133    49.622185   -897.27915    1777.2867    2569.6323    2.1815444   0.28594196 
   15700   -938.10995    49.408538   -888.70141    1769.6347    3950.9606     2.169493   0.20239118 
   15800   -939.11901    48.096431   -891.02258    1722.6397   -2137.4258    2.1500634   0.56588114 
   15900   -945.15615    48.022779   -897.13337    1720.0018   -12805.907     2.140447   0.14130078 
   16000   -935.74205    48.857627   -886.88442     1749.903   -1036.0901    2.1529075   0.25068193 
   16100   -940.74486    51.756432   -888.98843    1853.7277    4398.5315    2.1696424   0.12733745 
   16200   -945.26541    51.618628   -893.64678    1848.7921    2323.6017    2.1785508   0.31634507 
   16300   -943.25331    47.942352   -895.31096    1717.1212    2808.3235    2.1780089    0.1118447 
   16400   -941.22853    54.458563   -886.76997    1950.5082    4405.1633    2.1684379   0.28482719 
   16500   -940.76954    51.545555   -889.22398    1846.1749   -2211.7247     2.151456   0.14199186 
   16600   -942.42199    47.335925   -895.08606    1695.4012   -10921.123    2.1417107    0.2053849 
   16700   -942.00384    52.212663   -889.79118    1870.0682   -5149.2135    2.1511567   0.20290674 
   16800   -937.75351    51.244973   -886.50854    1835.4091    6281.1327    2.1676577   0.29006975 
   16900   -944.25475    47.803642   -896.45111    1712.1531    2875.2051    2.1764526   0.47280903 
   17000   -945.38896    52.136735   -893.25222    1867.3488    4286.9239    2.1772998   0.19095062 
   17100   -939.43324    50.148707   -889.28453    1796.1448    3693.1048    2.1678425   0.41371428 
   17200   -937.80848    54.881057   -882.92743    1965.6404   -521.67915      2.14957   0.16050922 
   17300   -939.30734     46.74244    -892.5649    1674.1447   -9619.5101    2.1349977   0.41981166 
   17400    -941.1682    52.159065   -889.00914    1868.1486   -6838.8472    2.1419902   0.37023692 
   17500   -940.70923    53.592041   -887.11719    1919.4726    1223.0726    2.1630596  0.049037807 
   17600   -946.34508    48.447764   -897.89731    1735.2232    3821.6413    2.1821068   0.11954175 
   17700   -941.84739    48.001761   -893.84563     1719.249    9858.6636    2.1905668   0.27756897 
   17800   -937.82962     49.11837   -888.71125    1759.2419    10329.115    2.1788767   0.24169013 
   17900   -941.36352    45.267206   -896.09632    1621.3071   -5312.3001    2.1520462  0.064873157 
   18000   -942.96276    51.581821   -891.38094    1847.4738   -10601.758    2.1371598   0.16193069 
   18100   -938.25731    54.490481   -883.76683    1951.6514   -3818.7351    2.1425226   0.45390246 
   18200   -945.24701    54.649834   -890.59717    1957.3589   -4882.9944    2.1574177   0.28499962 
   18300   -941.26694     44.66951   -896.59743    1599.8998    3707.8593    2.1766056    0.1239267 
   18400    -941.2353      51.2753      -889.96    1836.4953    11187.205    2.1887392   0.27771039 
   18500   -940.07774      43.9497   -896.12804    1574.1189    6065.6924    2.1796022   0.26894634 
   18600   -944.32634    48.622381   -895.70396    1741.4773   -2121.6136     2.161853   0.26034512 
   18700   -938.07229    51.376234   -886.69606    1840.1104   -2625.5769    2.1490604   0.31414364 
   18800    -940.7694    52.212012   -888.55739    1870.0449   -5463.6796    2.1423952  0.042791908 
   18900   -942.52101    47.881791   -894.63922    1714.9521   -5594.3565    2.1497025   0.11929391 
   19000   -940.34128    52.260476    -888.0808    1871.7807    4480.4577    2.1692362   0.47293095 
   19100   -939.89631    45.698567   -894.19774    1636.7569    6722.7099    2.1809037   0.17726532 
   19200   -944.09944     47.95641   -896.14303    1717.6247    5710.1225    2.1791999   0.51022225 
   19300   -944.43578    56.482741   -887.95304    2023.0069    777.21336    2.1687301   0.26079566 
   19400   -937.23192    51.358731   -885.87319    1839.4835    2096.7985    2.1511637   0.23169137 
   19500   -936.88247    42.820736   -894.06173    1533.6835    -7752.422    2.1368392  0.099585407 
   19600   -942.34575    52.292048    -890.0537    1872.9115   -9621.2712    2.1425328   0.32208646 
   19700   -937.36772    48.439695   -888.92802    1734.9342    2017.6588    2.1633127   0.20342322 
   19800   -939.12169     55.80427   -883.31742    1998.7066    11273.181    2.1803209   0.34186699 
   19900   -939.09729    46.734271   -892.36302    1673.8521    7703.1861    2.1771742  0.053286434 
   20000   -945.43241    53.481596   -891.95082    1915.5168   -2271.9195    2.1627242   0.65950275 
   20100   -942.81843    47.155367   -895.66306    1688.9343   -6741.0489    2.1498649  0.074275996 
   20200   -936.98103    51.014403   -885.96663    1827.1509   -611.21934    2.1504136   0.97887104 
   20300   -941.07876    53.459472   -887.61929    1914.7244   -1476.0508     2.156653   0.30419938 
   20400   -941.43484     47.92715   -893.50769    1716.5767      235.382    2.1656077     0.157527 
   20500   -939.37289    48.458803   -890.91409    1735.6186    5964.1225    2.1747132    0.5351657 
   20600   -943.45798      50.7426   -892.71538    1817.4159     3675.363    2.1753719    1.1208664 
   20700   -946.96754    47.968094   -898.99945    1718.0432   -3150.0616    2.1692486    1.1131738 
   20800   -943.39065    49.760758   -893.62989    1782.2499   -643.01366    2.1648247    0.9306175 
   20900   -937.60983    48.031985   -889.57784    1720.3315    1413.7398    2.1606468   0.47934944 
   21000   -936.68978     47.55226   -889.13752    1703.1495   -835.65172    2.1547259   0.18045643 
   21100   -946.16563    53.402565   -892.76306    1912.6862   -7535.2657    2.1526894     0.329885 
   21200   -940.51404    48.317957   -892.19608     1730.574    959.43561    2.1615097   0.25826075 
   21300   -939.67698    54.726444   -884.95054    1960.1027    5407.9019    2.1714336   0.29550406 
   21400   -944.40326    51.101075   -893.30218    1830.2552     307.0394    2.1693588   0.10756731 
   21500   -943.05754    50.356988   -892.70055    1803.6047   -775.03524    2.1645036   0.26595165 
   21600   -936.44006    48.659141   -887.78092     1742.794    1826.3609    2.1610702   0.16471075 
   21700   -939.37992    50.795834   -888.58409    1819.3226   -2108.3302    2.1559477   0.31403462 
   21800   -939.30745    43.788366   -895.51909    1568.3405   -1587.0687    2.1547667   0.10574604 
   21900   -939.95649    49.981399   -889.97509    1790.1525    126.07419    2.1638801   0.45155192 
   22000   -940.43336    51.605335   -888.82802     1848.316    4697.4338    2.1719994  0.042471374 
   22100   -944.49314    49.383675   -895.10946    1768.7442    966.07352    2.1727808   0.40041059 
   22200   -943.70165    53.638375   -890.06328    1921.1321    2808.0071    2.1701445   0.19144384 
   22300   -937.36332    55.973008   -881.39031    2004.7502    3104.1135    2.1599473   0.21232548 
   22400   -945.55271    55.035737   -890.51697    1971.1805   -9845.4668    2.1436036   0.17239948 
   22500   -940.52061    46.001096   -894.51952    1647.5924   -9608.5389    2.1419646   0.33126593 
   22600    -940.8883      52.1973     -888.691     1869.518   -1393.4062    2.1593133   0.17332803 
   22700   -942.12909    49.075745   -893.05334    1757.7152    4727.5105    2.1775817   0.31901057 
   22800    -944.0141    46.316689   -897.69741    1658.8958    5230.8497     2.186524   0.34801445 
   22900   -944.15267     54.13362   -890.01905      1938.87    5634.4646    2.1823766   0.41934586 
   23000   -942.38978    50.142021   -892.24776    1795.9053    1307.1167     2.162919   0.28916312 
   23100   -942.48093     47.22944   -895.25149    1691.5872   -9040.2053    2.1447753   0.20469388 
   23200   -939.32433    49.748684   -889.57565    1781.8174   -6002.4246    2.1444629   0.16084314 
   23300   -940.45553    53.597028    -886.8585    1919.6512   -421.52253    2.1566707  0.092331832 
   23400   -944.09876    48.596284   -895.50248    1740.5427    1546.5878    2.1716443    0.3333352 
   23500    -943.6238    44.798139   -898.82566    1604.5069    4634.0975    2.1854481   0.45406026 
   23600   -941.18546    50.274413   -890.91105    1800.6472    9815.3133    2.1874076   0.10513816 
   23700   -944.78508     53.76107   -891.02401    1925.5266    2377.0293    2.1709589    0.4138474 
   23800   -943.09894    45.325862   -897.77308     1623.408   -8458.3553    2.1505025  0.079947759 
   23900   -940.49627    49.727214   -890.76906    1781.0485   -6466.1338    2.1454613   0.52236488 
   24000    -942.7491    56.794945   -885.95415     2034.189   -2469.5773    2.1537107   0.45015582 
   24100   -941.48926    48.346175   -893.14308    1731.5846    1499.4886    2.1662073  0.067300036 
   24200   -943.17987    48.420884   -894.75899    1734.2605    2771.9368    2.1770995   0.20377177 
   24300   -945.68698    53.847907   -891.83907    1928.6367    5870.9756    2.1810669   0.61698835 
   24400   -939.04298    51.584774   -887.45821    1847.5795    6948.9064    2.1725307   0.16757301 
   24500   -940.70312    45.980628    -894.7225    1646.8593    -6310.459    2.1519047   0.19736937 
   24600   -942.58628    50.656978    -891.9293    1814.3492    -9230.704    2.1407054   0.23187233 
   24700   -936.88668    53.030333   -883.85634    1899.3542   -1037.5937    2.1473742    0.2198234 
   24800   -938.57706    49.648886   -888.92818     1778.243   -1085.3396    2.1597156   0.22261552 
   24900   -944.61959    51.153999   -893.46559    1832.1507    1470.3242    2.1715603   0.52413227 
   25000   -944.95349    51.656985    -893.2965    1850.1659    4631.8071    2.1785458   0.40319284 
   25100   -937.57537    51.987503   -885.58786    1862.0038    8845.9756    2.1744469   0.16091382 
   25200   -940.91219    46.412695   -894.49949    1662.3344   -3266.4501    2.1558333   0.36645603 
   25300   -941.96125    50.096046   -891.86521    1794.2587   -6189.9929    2.1434964   0.42166789 
   25400   -935.43804    47.975244    -887.4628    1718.2993   -95.577323    2.1436899   0.32560335 
   25500   -941.43086    45.857715   -895.57314     1642.457    -4870.889    2.1528007   0.27623418 
   25600    -944.6801    48.737263   -895.94283     1745.592    3845.4362     2.173508   0.27670199 
   25700   -940.51834    54.045527   -886.47282    1935.7148    12999.917    2.1895348   0.12285936 
   25800   -941.26645    46.870832   -894.39561    1678.7432    5987.9178    2.1797418   0.29416342 
   25900   -943.30283    48.920133   -894.38269    1752.1417     -2554.28    2.1574142   0.37676443 
   26000   -937.97848     52.62894   -885.34954    1884.9778   -4854.4317    2.1408506   0.11416539 
   26100   -937.98629    49.382804   -888.60349     1768.713   -8540.6408    2.1349552   0.14367367 
   26200   -946.22123    52.491838    -893.7294    1880.0673   -9400.5376    2.1474124   0.46163828 
   26300   -942.49294    56.530775   -885.96217    2024.7273    4999.3188    2.1733777   0.24669658 
   26400   -942.69768    51.542654   -891.15503    1846.0709    9727.4709    2.1877053   0.65029438 
   26500   -942.01348    44.888757   -897.12472    1607.7525    7296.6514    2.1820687    0.7215658 
   26600   -944.41702    53.351357   -891.06566    1910.8521   -2516.9921    2.1647936   0.21219648 
   26700   -935.31994    51.987222   -883.33272    1861.9938   -586.64947    2.1452759   0.21958456 
   26800   -941.47453    49.407236    -892.0673     1769.588   -11276.718     2.131287   0.32613818 
   26900   -940.02375    49.233251    -890.7905    1763.3565   -8983.2294     2.139567   0.23193148 
   27000   -942.00017     53.03363   -888.96654    1899.4723      575.008     2.166019    0.4805383 
   27100   -945.78882    47.867358   -897.92146    1714.4352    7705.4273    2.1897951   0.43534359 
   27200    -942.9493     50.62903   -892.32027    1813.3483    14856.348    2.1979463   0.47666655 
   27300   -940.90159    48.804018   -892.09757    1747.9829    7260.3812    2.1796658   0.17735827 
   27400   -943.58751    47.987316   -895.60019    1718.7316   -7891.9237     2.148437   0.21507163 
   27500   -939.41991    53.914037   -885.50588    1931.0053   -9785.8628    2.1304762  0.071262439 
   27600   -937.45744    50.229676   -887.22777    1799.0448   -7874.5869    2.1321994   0.13049251 
   27700   -941.67088    48.433886   -893.23699    1734.7261   -3927.0099    2.1516511   0.15877227 
   27800   -948.80809    49.428082   -899.38001    1770.3347    1402.4616    2.1807066   0.50079391 
   27900   -944.49455    54.690783   -889.80377    1958.8255    14626.713    2.2022495   0.13191686 
   28000    -943.9607    52.273163   -891.68753    1872.2351    12492.727    2.1923401   0.11989808 
   28100   -946.85722    49.729368   -897.12785    1781.1256    -5212.614    2.1602424   0.13013625 
   28200   -937.64983    49.064947   -888.58488    1757.3285   -6654.2072     2.134043   0.23770615 
   28300   -939.42872    50.645502   -888.78322    1813.9382   -11474.654    2.1269147    0.3994111 
   28400   -942.34896    46.588521   -895.76044    1668.6319   -8208.3278     2.143954   0.52806618 
   28500   -942.15412    56.530051   -885.62407    2024.7014    6945.6348    2.1753929   0.12853902 
   28600   -945.22254    53.849925   -891.37262     1928.709    9325.8089    2.1904812    0.3113406 
   28700   -947.39745    51.007163   -896.39029    1826.8916    4462.0707    2.1829762   0.33289364 
   28800   -943.11597    53.644745   -889.47123    1921.3602    499.75803    2.1647518   0.32084155 
   28900   -940.77434    53.073695   -887.70065    1900.9073   -5007.0552    2.1433683    0.6684238 
   29000   -940.54057    47.459663   -893.08091     1699.833   -10079.684     2.134356   0.27763195 
   29100    -938.2622    50.806069   -887.45613    1819.6891   -1705.3297    2.1466556   0.18255996 
   29200   -942.71629    48.626413   -894.08987    1741.6218   -92.193587    2.1658685    0.1124692 
   29300    -948.6623    49.221405    -899.4409    1762.9322    2657.9604    2.1841257   0.18205257 
   29400   -942.88609    52.337728   -890.54836    1874.5476    11233.889    2.1915099   0.40273216 
   29500   -944.17984    50.564475   -893.61536    1811.0361    3169.9096    2.1763095   0.26704148 
   29600   -943.45165     48.93505    -894.5166     1752.676   -3951.2358    2.1553496   0.20282823 
   29700    -936.0151    50.876732   -885.13837      1822.22   -2094.2617     2.143151   0.17122676 
   29800   -940.52876    52.169049   -888.35971    1868.5061   -7950.7092    2.1402864   0.55735313 
   29900   -946.48639     48.17526   -898.31113    1725.4631   -7675.9054    2.1526902   0.21271505 
   30000   -944.56511    52.577779   -891.98733    1883.1454     2702.299    2.1764449   0.36978695 
   30100   -942.51585    52.128885   -890.38696    1867.0676    11570.157    2.1878843   0.42439368 
   30200   -946.33189    49.858995    -896.4729    1785.7684    3338.7457    2.1780698   0.33636933 
   30300   -939.85726    51.134621   -888.72264    1831.4567    1694.7459    2.1605292   0.53676868 
   30400    -940.1787    53.971688   -886.20702    1933.0701   -4023.4163    2.1427654   0.35046889 
   30500   -941.88484    46.607121   -895.27772    1669.2981   -11301.192    2.1354793   0.20262855 
   30600   -939.76017    49.556691   -890.20348     1774.941   -2460.7494    2.1489789   0.20661016 
   30700   -946.83747    57.183637   -889.65383    2048.1105    350.34926    2.1686793   0.22877729 
   30800   -946.51723    52.259977   -894.25725    1871.7629    4923.9377    2.1803942   0.36649498 
   30900   -941.94172    47.825276   -894.11644     1712.928    6336.1439    2.1797264    0.4208363 
   31000   -941.25004    57.117699   -884.13234    2045.7488    4088.0777    2.1659133  0.095066158 
   31100   -940.60217    48.415197   -892.18697    1734.0568   -6023.3899     2.143563   0.26238563 
   31200   -944.66589    54.123382   -890.54251    1938.5033   -13062.726    2.1359682   0.19826362 
   31300   -937.61518    50.506592   -887.10859     1808.963   -2530.5504    2.1473631   0.33446065 
   31391   -945.01478    51.191377    -893.8234    1833.4895   -3086.2443    2.1634167   0.42422895 
Loop time of 21.2902 on 1 procs for 31391 steps with 217 atoms

Performance: 81.166 ns/day, 0.296 hours/ns, 1474.434 timesteps/s
101.0% CPU use with 1 MPI tasks x no OpenMP threads

MPI task timing breakdown:
Section |  min time  |  avg time  |  max time  |%varavg| %total
---------------------------------------------------------------
Pair    | 20.746     | 20.746     | 20.746     |   0.0 | 97.44
Neigh   | 0.07735    | 0.07735    | 0.07735    |   0.0 |  0.36
Comm    | 0.13256    | 0.13256    | 0.13256    |   0.0 |  0.62
Output  | 0.0090748  | 0.0090748  | 0.0090748  |   0.0 |  0.04
Modify  | 0.28109    | 0.28109    | 0.28109    |   0.0 |  1.32
Other   |            | 0.04418    |            |       |  0.21

Nlocal:    217 ave 217 max 217 min
Histogram: 1 0 0 0 0 0 0 0 0 0
Nghost:    957 ave 957 max 957 min
Histogram: 1 0 0 0 0 0 0 0 0 0
Neighs:    4143 ave 4143 max 4143 min
Histogram: 1 0 0 0 0 0 0 0 0 0
FullNghs:  8286 ave 8286 max 8286 min
Histogram: 1 0 0 0 0 0 0 0 0 0

Total # of neighbors = 8286
Ave neighs/atom = 38.1843
Neighbor list builds = 132
Dangerous builds = 0
Total wall time: 0:00:21
