LAMMPS (3 Mar 2020)
Reading data file ...
  orthogonal box = (0 0 0) to (16.36 16.36 16.36)
  1 by 1 by 1 MPI processor grid
  reading atoms ...
  256 atoms
  read_data CPU = 0.00100354 secs
Reading potential file /usr/share/lammps-stable/potentials/Ag_u3.eam with DATE: 2007-06-11
Neighbor list info ...
  update every 1 steps, delay 10 steps, check yes
  max neighbors/atom: 2000, page size: 100000
  master list distance cutoff = 7.55
  ghost atom cutoff = 7.55
  binsize = 3.775, bins = 5 5 5
  2 neighbor lists, perpetual/occasional/extra = 1 1 0
  (1) pair eam, perpetual
      attributes: half, newton on
      pair build: half/bin/atomonly/newton
      stencil: half/bin/3d/newton
      bin: standard
  (2) compute rdf, occasional, copy from (1)
      attributes: half, newton on
      pair build: copy
      stencil: none
      bin: none
Setting up Verlet run ...
  Unit style    : metal
  Current step  : 0
  Time step     : 0.005
Per MPI rank memory allocation (min/avg/max) = 3.744 | 3.744 | 3.744 Mbytes
Step PotEng KinEng TotEng Temp Press Density c_msdall[4] 
       0       -729.6    32.961337   -696.63866         1000    8040.2746    10.472245            0 
     100   -710.02306    16.865502   -693.15756     511.6753   -14588.095    9.9743228  0.061110676 
     200   -709.63513     19.45197   -690.18316    590.14504    9397.1675    10.211566   0.05634674 
     300    -708.0156    20.745777   -687.26982     629.3973    -9697.672    9.9803848  0.069971475 
     400   -708.16997    23.683043   -684.48693    718.50979    5005.0277     10.13247  0.061269397 
     500   -703.26938    21.425301   -681.84408    650.01309   -5674.6866     9.944881  0.086736927 
     600   -704.76277      25.7136   -679.04918    780.11398    2853.2402    10.044987  0.080935308 
     700   -701.83214    25.435586   -676.39655    771.67945   -4797.7768    9.9210579  0.096483016 
     800   -700.96795    27.363519   -673.60443    830.17018    96.406196    9.9513401  0.093379347 
     900   -697.42096    26.480324   -670.94063    803.37529    1064.1975    9.9134816   0.11258669 
    1000    -696.4682    28.192062   -668.27614    855.30699   -3651.4532     9.834663   0.12055353 
    1100   -696.03877    30.499049   -665.53972    925.29771    2435.6706     9.885928   0.10613507 
    1200   -692.85891    29.516961   -663.34194    895.50253   -882.07069    9.8061073   0.14261378 
    1300    -690.9625    30.126817   -660.83568    914.00469   -2059.9394    9.7567919   0.16889784 
    1400   -692.52907      34.4345   -658.09457    1044.6937     1903.645    9.8167804   0.14169896 
    1500   -690.65185    33.387564   -657.26429    1012.9311   -9412.2742    9.6638254   0.17105339 
    1600    -694.0611    32.222874   -661.83823    977.59608    4420.1916    9.8736925   0.12293897 
    1700   -691.76034     30.10167   -661.65867    913.24179    333.75391    9.8000008   0.13240561 
    1800   -690.42006    33.020406   -657.39965    1001.7921   -5247.2687    9.7100884   0.15922881 
    1900    -691.6654    34.784869   -656.88053    1055.3234    11350.909    9.8979661    0.1341569 
    2000   -693.18909    31.291753   -661.89734    949.34719   -7410.0189    9.7433076   0.14471903 
    2100   -692.78829    31.258906   -661.52938    948.35066    8464.6457    9.9002011   0.10982408 
    2200   -688.73357    30.941059   -657.79251    938.70764   -1911.0319    9.7289079   0.15943654 
    2300   -690.45062     33.39334   -657.05728    1013.1064   -3341.3138    9.7291435   0.15573639 
    2400   -693.26132    32.919528   -660.34179    998.73157    2040.8924    9.8356891   0.13898917 
    2500   -693.68756    30.709533   -662.97803    931.68348   -351.47225    9.8175387   0.13302553 
    2600   -692.66214    34.591359   -658.07078    1049.4525   -2947.9713    9.7631445   0.13535971 
    2700    -691.7403    34.068448   -657.67185    1033.5882     -2802.31    9.7616841   0.14396247 
    2800   -691.06298    34.940657   -656.12232    1060.0497    697.26233    9.7680944   0.14024321 
    2900   -686.28129    36.075006   -650.20628    1094.4643   -664.69646    9.6760568   0.17887467 
    3000   -689.63404    33.361679   -656.27236    1012.1458    1576.9353    9.7596295   0.15612683 
    3100   -689.34455    31.522488   -657.82206    956.34737    2097.7629    9.7828826   0.13995814 
    3200    -690.5598    30.887819   -659.67198    937.09241    3482.1426     9.801109    0.1300031 
    3300   -695.18931    33.623045   -661.56627    1020.0753   -6099.9859    9.7734686    0.1240388 
    3400   -691.45472     37.02588   -654.42884    1123.3124   -592.84606    9.7646418   0.15206162 
    3500   -692.31299     36.28951   -656.02348     1100.972    231.29552    9.7868467    0.1360236 
    3600   -693.08637    34.959044   -658.12733    1060.6076   -6213.2693    9.7382339   0.13963578 
    3700   -692.31868    32.683933   -659.63474    991.58397   -586.99703     9.790708   0.12709441 
    3800   -687.03467    34.039742   -652.99493    1032.7173    917.26836    9.7045218   0.15539559 
    3900   -686.93573    31.235012   -655.70071    947.62576    2532.7773    9.7208482   0.16372189 
    4000   -692.76047    34.097069    -658.6634    1034.4565    -3682.009    9.7565638   0.14192456 
    4100    -693.9883    36.361847   -657.62645    1103.1666    861.83264    9.8246472   0.12532365 
    4200   -683.88596    33.093916   -650.79204    1004.0223   -1104.9486    9.6366034    0.1764835 
    4300   -688.68302    33.393829   -655.28919    1013.1212    6377.7807    9.8085056   0.14472744 
    4400   -689.44508    31.443861   -658.00122    953.96193   -5449.8964    9.6874475    0.1680002 
    4500   -689.89602    32.326099   -657.56992     980.7278    1941.0356    9.7767303    0.1489922 
    4600   -691.13081    34.423561   -656.70725    1044.3618    4305.6996    9.8268294   0.13380877 
    4700   -685.18558    34.892825   -650.29276    1058.5986   -3174.5423    9.6320784   0.18430258 
    4800   -690.55275    34.936415   -655.61634    1059.9211    1023.0538    9.7695279   0.14185821 
    4900   -690.71999    32.695627   -658.02437    991.93874   -2096.7173    9.7373273   0.15346636 
    5000   -690.31558    30.876864   -659.43871    936.76005   -92.086781    9.7711369   0.15264858 
    5100   -689.72063    34.724937   -654.99569    1053.5051    3579.0913    9.7911624   0.15103628 
    5200   -688.69967    35.262702   -653.43697    1069.8201   -6265.1184    9.6522776   0.16647761 
    5300   -692.49905    34.439479   -658.05957    1044.8447   -40.177414    9.7884101   0.14748864 
    5400   -692.18294    33.353365   -658.82958    1011.8936    2068.7884    9.8185808   0.13858058 
    5500   -687.03257    33.722639   -653.30993    1023.0968   -1762.5198    9.6902741   0.15819793 
    5600   -690.95492    34.586089   -656.36884    1049.2927    4254.2623    9.8117587   0.13870276 
    5700   -690.08182    30.470486   -659.61133    924.43112    416.50175    9.7690851    0.1345334 
    5800    -689.1774    33.039201   -656.13819    1002.3623   -932.72236    9.7273306    0.1528723 
    5900    -690.4763    34.645117   -655.83118    1051.0835   -612.31797    9.7523163   0.14622562 
    6000   -695.83128    34.755326   -661.07596    1054.4271    3662.3408    9.8822161   0.12669109 
    6100   -690.09047    31.944406   -658.14606    969.14777    -2402.919    9.7442288   0.17131915 
    6200   -688.76184     33.97384     -654.788    1030.7179   -403.84441    9.7301248    0.1708559 
    6300   -691.18057    31.585471    -659.5951    958.25819   -7505.4497    9.7070198   0.16551648 
    6400   -691.96125    31.266706   -660.69454    948.58732    9659.2356    9.9029791   0.15248219 
    6500   -688.55453    32.631336    -655.9232    989.98823   -12223.884    9.6162518   0.19026952 
    6600   -690.35454    33.414483   -656.94005    1013.7478    5432.4984    9.8183262   0.14525569 
    6700   -692.61649    30.580731   -662.03576    927.77581     1446.236    9.8145138    0.1342611 
    6800    -690.4321    32.464449   -657.96765    984.92513     -1001.08    9.7494773   0.15441161 
    6900   -691.22253    34.967344   -656.25519    1060.8594    3305.7556    9.8108877   0.14050886 
    7000   -691.64588     31.97956   -659.66632    970.21428    2746.3775      9.80256    0.1307154 
    7100   -691.65611    29.653154   -662.00295    899.63445   -3293.1188    9.7480058   0.13599682 
    7200   -689.48109    34.618072   -654.86302     1050.263    4063.2908    9.7805134   0.15392937 
    7300   -689.22626    32.360962    -656.8653    981.78548   -5725.2781    9.6924381   0.16765693 
    7400   -692.06461    30.909699   -661.15491    937.75621    6003.6205    9.8535751   0.13861899 
    7500   -689.71886    33.261957   -656.45691    1009.1204    4109.4752    9.8000762    0.1651279 
    7600   -688.36752    33.077137   -655.29038    1003.5132   -2000.0331    9.7026243   0.19275121 
    7700   -692.23685    32.084292   -660.15256    973.39171    1893.6066    9.8160001   0.13985843 
    7800    -691.3301    32.133281   -659.19682    974.87797    6478.9407    9.8390659   0.12895233 
    7900   -687.97677    33.088532   -654.88824    1003.8589   -546.09017    9.7226996   0.18013374 
    8000   -690.34974    30.726809   -659.62293     932.2076    2843.4616    9.7938539   0.13995577 
    8100   -692.47876    33.360932   -659.11783    1012.1231     4842.358    9.8424909   0.11602356 
    8200   -689.56609    33.987966   -655.57812    1031.1465   -1712.7908    9.7271769   0.14640389 
    8300   -690.58899    31.947752   -658.64124    969.24928   -1740.9833    9.7484999   0.15258053 
    8400   -693.58988     32.93167   -660.65821    999.09996    8665.1294    9.9061725   0.12442512 
    8500   -687.72832    31.295868   -656.43245    949.47204   -12349.468    9.5819651   0.18346374 
    8600   -690.71564    33.499111   -657.21652    1016.3153    7797.5273    9.8503125   0.13895051 
    8700    -693.7373    31.972821   -661.76448    970.00983   -6102.9195    9.7573508   0.14484488 
    8800   -688.96491    32.637515   -656.32739    990.17572    1883.5048     9.771505   0.15152952 
    8900   -691.73697    33.868614   -657.86836    1027.5255   -3323.3503    9.7478346   0.16243574 
    9000   -692.81557    32.040755   -660.77481    972.07086    1909.8092    9.8291089   0.12902536 
    9100   -690.90619    34.494125   -656.41207    1046.5026     4331.703    9.8128916   0.12670478 
    9200   -687.62736    32.207923   -655.41944    977.14249   -1248.3075    9.7023365   0.17005971 
    9300   -691.98386     32.62386      -659.36    989.76142    4569.6651    9.8418339   0.14612592 
    9400   -688.40205    31.050921   -657.35113    942.04069   -4306.4605    9.6861357   0.17367347 
    9500   -687.33875    33.828693   -653.51006    1026.3143   -1522.0178    9.6907866   0.17098569 
    9600   -693.76724    34.796604   -658.97064    1055.6794    6339.2868    9.8857993   0.13167344 
    9700   -689.64415    31.639568   -658.00458     959.8994   -9272.7737    9.6639587   0.16416623 
    9800   -691.09588    37.193229   -653.90265    1128.3896     4835.379    9.8225155   0.13411461 
    9900   -688.83257    32.903436   -655.92914    998.24336   -1987.8485    9.7144309   0.16395001 
   10000   -691.50304    31.605324   -659.89771    958.86049   -7787.3632    9.7030561   0.15782744 
Loop time of 7.0324 on 1 procs for 10000 steps with 256 atoms

Performance: 614.300 ns/day, 0.039 hours/ns, 1421.990 timesteps/s
100.0% CPU use with 1 MPI tasks x no OpenMP threads

MPI task timing breakdown:
Section |  min time  |  avg time  |  max time  |%varavg| %total
---------------------------------------------------------------
Pair    | 4.2745     | 4.2745     | 4.2745     |   0.0 | 60.78
Neigh   | 0.21356    | 0.21356    | 0.21356    |   0.0 |  3.04
Comm    | 0.07463    | 0.07463    | 0.07463    |   0.0 |  1.06
Output  | 0.0030201  | 0.0030201  | 0.0030201  |   0.0 |  0.04
Modify  | 2.4498     | 2.4498     | 2.4498     |   0.0 | 34.84
Other   |            | 0.01687    |            |       |  0.24

Nlocal:    256 ave 256 max 256 min
Histogram: 1 0 0 0 0 0 0 0 0 0
Nghost:    1431 ave 1431 max 1431 min
Histogram: 1 0 0 0 0 0 0 0 0 0
Neighs:    11604 ave 11604 max 11604 min
Histogram: 1 0 0 0 0 0 0 0 0 0

Total # of neighbors = 11604
Ave neighs/atom = 45.3281
Neighbor list builds = 388
Dangerous builds = 0
Total wall time: 0:00:07
