LAMMPS (3 Mar 2020)
Reading data file ...
  orthogonal box = (0 0 0) to (16.36 16.36 16.36)
  1 by 1 by 1 MPI processor grid
  reading atoms ...
  256 atoms
  read_data CPU = 0.00103498 secs
Reading potential file /usr/share/lammps-stable/potentials/Ag_u3.eam with DATE: 2007-06-11
Neighbor list info ...
  update every 1 steps, delay 10 steps, check yes
  max neighbors/atom: 2000, page size: 100000
  master list distance cutoff = 7.55
  ghost atom cutoff = 7.55
  binsize = 3.775, bins = 5 5 5
  2 neighbor lists, perpetual/occasional/extra = 1 1 0
  (1) pair eam, perpetual
      attributes: half, newton on
      pair build: half/bin/atomonly/newton
      stencil: half/bin/3d/newton
      bin: standard
  (2) compute rdf, occasional, copy from (1)
      attributes: half, newton on
      pair build: copy
      stencil: none
      bin: none
Setting up Verlet run ...
  Unit style    : metal
  Current step  : 0
  Time step     : 0.005
Per MPI rank memory allocation (min/avg/max) = 3.744 | 3.744 | 3.744 Mbytes
Step PotEng KinEng TotEng Temp Press Density c_msdall[4] 
       0       -729.6    40.377638   -689.22236         1225    9849.3494    10.472245            0 
     100    -707.3675    21.704235   -685.66326    658.47556   -5987.4377    10.009576  0.065544818 
     200   -703.28552     21.59946   -681.68606    655.29684   -6366.5533    9.9399605  0.091332678 
     300   -703.27356    25.194242   -678.07931    764.35741    3742.6166    10.036102  0.084510096 
     400   -702.01466    27.373605   -674.64106    830.47617    911.54717    9.9813951  0.090217855 
     500   -698.54725    27.271324   -671.27593    827.37311   -1642.2001    9.8989478   0.10415915 
     600   -697.22525    29.337572   -667.88768    890.06013   -1072.0146    9.8794218   0.11929347 
     700   -695.06629    30.461287     -664.605    924.15204    3685.0025    9.8932598   0.12212673 
     800     -691.699     30.44214   -661.25686    923.57115    10086.468    9.8959372   0.12913791 
     900   -691.26601    33.276096   -657.98992    1009.5493    -8522.375    9.6963129    0.1453731 
    1000   -687.52798    33.013067   -654.51491    1001.5694    -7529.944    9.6403302   0.18142962 
    1100   -687.33577    36.150645   -651.18513    1096.7591     3229.022    9.7396387   0.17071692 
    1200   -685.78384     38.03956   -647.74428     1154.066     9161.757    9.7716809   0.16728259 
    1300     -684.066    39.190536   -644.87546     1188.985   -605.51507    9.6394213   0.19014622 
    1400    -679.9413     38.44592   -641.49538    1166.3944   -4013.8315    9.5313981     0.213494 
    1500   -680.32895    40.762559   -639.56639     1236.678    740.92507     9.584084   0.19115622 
    1600   -680.73741    46.170418     -634.567    1400.7447    3667.5416    9.6069261   0.20244674 
    1700   -678.92188    41.774799   -637.14708    1267.3879    2449.1347    9.5790735   0.21396611 
    1800   -680.13836     37.73745   -642.40091    1144.9005   -6225.2388    9.5063906   0.22918886 
    1900   -677.84441    41.803885   -636.04053    1268.2703   -9577.7085    9.4282063   0.28049547 
    2000   -678.53765     41.86022   -636.67743    1269.9794    5906.0278    9.6027076   0.23691977 
    2100    -681.4004    39.984177   -641.41622     1213.063    -468.9006    9.5817113   0.23957851 
    2200   -677.14517    40.943844   -636.20133    1242.1779   -7126.5453    9.4320018    0.2406199 
    2300   -676.66339    41.788214   -634.87518    1267.7949    56.172352    9.5006775   0.28980589 
    2400   -681.94632    38.879573   -643.06675    1179.5509    6485.6428    9.6834989   0.19215386 
    2500   -679.67909     38.76966   -640.90943    1176.2162   -921.12821    9.5807997   0.22527882 
    2600    -678.7682    42.332825   -636.43538    1284.3176   -9200.2586    9.4448985   0.24155539 
    2700   -679.95297    41.241903   -638.71106    1251.2206    2010.1802     9.580493   0.22742973 
    2800    -682.5624    39.871472   -642.69093    1209.6437    7700.5073    9.7117764   0.20466777 
    2900   -677.63309    39.643885    -637.9892     1202.739    2326.2243    9.5508866   0.24534264 
    3000     -673.051    39.756286   -633.29471    1206.1491   -11824.575    9.3149282   0.36067634 
    3100   -675.06309    39.877091     -635.186    1209.8141    5447.7475    9.5391964   0.25923781 
    3200    -678.3015    39.106496     -639.195    1186.4354    7115.2679    9.6244423   0.20897686 
    3300   -680.46968    40.565975    -639.9037    1230.7139    2373.9022    9.6016491   0.20960741 
    3400   -674.54746    40.650767    -633.8967    1233.2864   -1992.8625    9.4428165   0.27880647 
    3500   -672.88626    38.569515   -634.31675    1170.1441   -6248.1839    9.3692712   0.31822976 
    3600   -680.07646    40.238212   -639.83825      1220.77   -1261.1772    9.5571022   0.23159553 
    3700    -682.7837    42.454452   -640.32925    1288.0076    908.35958    9.6324432   0.19937984 
    3800   -675.42134    42.503702   -632.91763    1289.5018    6001.4566    9.5502582   0.24827724 
    3900   -676.73746     38.58618   -638.15128    1170.6497    5449.2093    9.5694202   0.19234205 
    4000   -679.48066    38.686475   -640.79418    1173.6925   -5497.9917    9.5008175   0.21230779 
    4100   -678.04765    42.756904   -635.29075    1297.1835   -1021.9106    9.5179181   0.25977391 
    4200   -676.55113    44.744249   -631.80688    1357.4768    3133.2396    9.5373647   0.26532195 
    4300   -682.32409    41.593811   -640.73028     1261.897   -1466.4635    9.5896474   0.20350998 
    4400   -678.43918    39.087847   -639.35133    1185.8696   -5008.0374    9.4888574   0.24360776 
    4500   -676.93045     40.43591   -636.49454    1226.7679    5258.8133    9.5774025   0.22089665 
    4600   -682.06414    40.725085   -641.33905     1235.541    23431.404    9.8668581   0.17557932 
    4700   -683.22724    38.598259   -644.62898    1171.0162   -3504.3621    9.5926144   0.22294272 
    4800   -677.56047    37.455395   -640.10507    1136.3433   -9215.3526     9.434614   0.26752302 
    4900   -675.49846    37.991051    -637.5074    1152.5944    1201.1552    9.5096261   0.25495072 
    5000   -679.28913    42.015348   -637.27378    1274.6858   -1485.7679    9.5228373   0.22952738 
    5100   -681.15075    35.911939   -645.23881    1089.5171    53.475406    9.6047724   0.19492327 
    5200   -681.49982    40.248168   -641.25165    1221.0721   -2196.7312    9.5622865   0.19493503 
    5300   -679.29585    40.932862   -638.36299    1241.8447    2700.1116    9.5654747   0.20838676 
    5400   -677.53482     39.89684   -637.63798    1210.4133    10434.917     9.635652   0.22151955 
    5500   -671.43115    42.609395   -628.82175    1292.7083     4653.915    9.4583799   0.30257779 
    5600   -678.27856    43.641332   -634.63722    1324.0158   -4905.4347    9.4606583   0.23693478 
    5700   -676.72311    38.718779   -638.00433    1174.6726   -11379.225    9.3905638   0.27894325 
    5800   -676.83836    37.878973   -638.95939    1149.1941   -2525.8415    9.4889507   0.26696039 
    5900   -680.06813    40.785907   -639.28222    1237.3863    4326.9027    9.6133176   0.23182415 
    6000   -685.53453    37.918718   -647.61581    1150.3999    2763.8254    9.6987202   0.15062701 
    6100   -681.22854    38.648298   -642.58025    1172.5343   -3870.1933    9.5546327   0.21874586 
    6200   -678.11877    39.681341   -638.43743    1203.8754    2930.5853    9.5733842   0.24430577 
    6300   -678.49186    39.778591   -638.71327    1206.8258    10250.487    9.6559903   0.23751254 
    6400   -680.83186    39.685017   -641.14684    1203.9869    9117.6956    9.6823576   0.20374389 
    6500   -681.38019    38.050214   -643.32998    1154.3893     89.11134    9.6020713   0.22505272 
    6600   -675.68673    39.986653   -635.70008    1213.1381   -7030.0617    9.4285012   0.26594534 
    6700   -677.16776     39.21107   -637.95669     1189.608    4104.1084     9.567183   0.26382041 
    6800   -679.11127     40.79949   -638.31178    1237.7984    2068.7216      9.57208    0.2463487 
    6900   -680.72277    36.149841   -644.57293    1096.7347   -3906.4001    9.5567162   0.23176263 
    7000   -680.53328    38.559196   -641.97408    1169.8311   -1185.7802    9.5598832   0.20085626 
    7100   -675.88495    39.862001   -636.02295    1209.3563    1858.7847    9.5163363   0.25276468 
    7200   -678.77686    42.615482   -636.16138     1292.893   -1328.0253    9.5275072   0.23121039 
    7300   -684.55161    42.009391   -642.54222    1274.5051   -680.06585    9.6274393   0.19583373 
    7400    -679.7037    42.362682   -637.34102    1285.2234    9404.4821    9.6744817   0.20486764 
    7500   -678.37829    42.409643   -635.96865    1286.6481   -5455.5487    9.4770023   0.24770962 
    7600   -679.67981    36.125151   -643.55466    1095.9856   -8234.4636    9.4865556   0.23573409 
    7700   -680.68122    39.340659   -641.34056    1193.5395    3184.7554    9.6233686   0.20529142 
    7800   -679.61851     42.87638   -636.74213    1300.8083    12225.019     9.683092   0.18784489 
    7900   -680.74302    43.620155   -637.12286    1323.3733   -5091.0889    9.5014663     0.214212 
    8000    -681.9082    37.173712   -644.73449    1127.7974   -1255.5454     9.598614   0.18610969 
    8100   -682.73178    42.493989    -640.2378    1289.2071   -4745.8124     9.550234   0.20173002 
    8200   -680.06233    42.967317   -637.09501    1303.5672    641.01692    9.5750999   0.22933727 
    8300    -678.6864    39.856864   -638.82954    1209.2005   -765.34159    9.5423357   0.28220679 
    8400    -674.6441    42.072937   -632.57117     1276.433    778.04216      9.45269   0.28220351 
    8500   -676.36427    42.101048   -634.26323    1277.2858   -2400.2577    9.4742039    0.2633055 
    8600   -678.46237    40.062525   -638.39984    1215.4399    941.20726    9.5495331   0.21139202 
    8700    -680.3605    40.875441   -639.48506    1240.1026    6270.2388    9.6496256   0.21088771 
    8800   -680.29038    37.889827   -642.40055    1149.5234    1040.7164    9.5996103   0.22917851 
    8900   -680.53932     31.94496   -648.59436    969.16457    1893.3349    9.6072269   0.21059081 
    9000   -680.95449     39.87297   -641.08152    1209.6891   -6172.9172    9.5143962   0.19339386 
    9100    -678.8166    39.641573   -639.17503    1202.6689    4710.0593    9.5956062   0.22182106 
    9200   -681.91237    43.881788   -638.03059    1331.3109   -6343.2279    9.5173668   0.22333952 
    9300   -685.09279    39.362949   -645.72984    1194.2158    392.17749    9.6541609   0.17089313 
    9400   -680.71439    37.510257   -643.20414    1138.0078    1477.5626    9.6132244   0.20264841 
    9500   -678.73303    39.442821   -639.29021     1196.639   -7485.1703    9.4704785    0.2653665 
    9600   -677.01762    41.693918    -635.3237    1264.9341   -280.98375    9.5074543    0.2608305 
    9700   -681.36222    41.580457   -639.78176    1261.4918    14949.065    9.7405933   0.22020661 
    9800   -682.60361    40.325154   -642.27845    1223.4077   -4354.0664     9.563918   0.20805361 
    9900    -677.4675    39.694343   -637.77316    1204.2698   -8144.4517    9.4403399   0.23331155 
   10000    -677.9643    41.395533   -636.56877    1255.8815    1084.8697    9.5412376   0.23918917 
   10100    -680.8829    37.443065   -643.43984    1135.9693   -167.65922    9.5964115   0.21814661 
   10200   -680.93809    41.165411   -639.77268    1248.8999   -7881.2217    9.4934484   0.23667909 
   10300   -674.75918    38.727727   -636.03145     1174.944   -4844.6216    9.4135102   0.27047281 
   10400   -678.10184    41.956468   -636.14538    1272.8995   -2820.0931    9.5017055    0.2485503 
   10500   -682.93826    40.026747   -642.91151    1214.3545    6644.0599    9.7037934   0.20554501 
   10600   -678.53033    39.802246   -638.72809    1207.5434   -2041.0227    9.5191411   0.24422852 
   10700   -676.31166    38.330931   -637.98073    1162.9058   -3174.2783    9.4770622   0.24698556 
   10800   -682.05931    39.914041   -642.14526    1210.9351    7897.6305    9.6877736   0.19295227 
   10900   -686.44497    41.966433   -644.47853    1273.2018    13594.945    9.8238903   0.14919856 
   11000   -678.43722    41.627433   -636.80979     1262.917    -9412.313    9.4365321   0.21987039 
   11100   -676.82035    38.351253   -638.46909    1163.5224   -550.03469    9.5061254   0.25691338 
   11200    -682.1643    41.800634   -640.36367    1268.1717    7263.1535    9.6846346   0.21039138 
   11300   -683.01542    38.042496   -644.97293    1154.1551    3377.3865    9.6623777   0.20099941 
   11400    -684.8258    34.730035   -650.09576    1053.6598   -859.52881    9.6569258   0.17027919 
   11500   -679.67792    38.289514   -641.38841    1161.6493   -2383.8294    9.5385284   0.19172515 
   11600   -679.74426    39.316857    -640.4274    1192.8174    5927.8568    9.6296968   0.19687035 
   11700   -678.59945    40.367938   -638.23151    1224.7057    2564.6916    9.5726308   0.23385684 
   11800   -678.70324     44.10418   -634.59906     1338.058   -4265.2561    9.5008549   0.24944787 
   11900   -679.54156    41.519117   -638.02244    1259.6309   -6394.9783    9.4835624   0.24961369 
   12000   -681.32019    39.422093    -641.8981    1196.0101   -4727.8411    9.5366274   0.23428569 
   12100    -678.2153    38.856995    -639.3583    1178.8659     4562.973    9.5908618   0.24292535 
   12200     -678.251    43.625409   -634.62559    1323.5328   -4408.4732    9.4837783   0.24106662 
   12300   -678.95696    38.449924   -640.50703    1166.5159    2891.6577    9.5670528   0.22457354 
   12400   -680.08887    39.337474    -640.7514    1193.4429    613.76919    9.5751739   0.22253173 
   12500   -676.30007     39.66542   -636.63465    1203.3923    -3418.414    9.4629101   0.24804156 
   12600   -680.72965    40.625427   -640.10422    1232.5176   -19536.737    9.3559167   0.26030957 
   12700   -681.97285    38.825379   -643.14747    1177.9067    6512.3643    9.6461482    0.2204058 
   12800   -675.20036     39.78364   -635.41672    1206.9789    10036.893    9.5927616   0.25659879 
   12900   -678.00974    40.094935    -637.9148    1216.4232   -4805.6138    9.4727878   0.26788116 
   13000   -677.75518     36.87714   -640.87804    1118.7999   -2463.4203    9.5028497   0.22936899 
   13100   -683.04161    36.153798   -646.88781    1096.8547    -221.2915    9.6240153   0.18827406 
   13200   -680.07495    39.657482   -640.41746    1203.1515    3472.7619    9.6021707   0.19941471 
   13300   -678.98664    41.556436    -637.4302     1260.763    3023.4556    9.5824049   0.22618818 
   13400   -682.73862    41.876783   -640.86184    1270.4819    5841.6325    9.6605412   0.20852194 
   13500   -680.35977    34.955769   -645.40401    1060.5082   -768.31253    9.5666647   0.22040525 
   13600    -678.1933    40.458102    -637.7352    1227.4412   -14512.788    9.3806657   0.24280403 
   13700   -681.64851    42.889112    -638.7594    1301.1946    338.69726    9.5977056   0.19541387 
   13800   -683.67531    41.865301   -641.81001    1270.1336    4006.6321    9.6710669    0.1719469 
   13900   -678.94052    36.034683   -642.90583    1093.2409    7447.2913     9.645611   0.19386888 
   14000    -676.3703    41.211165   -635.15913     1250.288    -4651.862    9.4412003   0.28253644 
   14100   -676.27066     38.81907   -637.45159    1177.7153   -3625.9679    9.4561657   0.26351883 
   14200    -678.4133     37.31196   -641.10134    1131.9917   -4527.4927    9.4913615   0.24267546 
   14300   -677.81007    42.268578   -635.54149    1282.3684    2914.9215    9.5546637   0.23822544 
   14400   -676.26286    42.368775   -633.89408    1285.4083    2574.2686    9.5347317   0.26357573 
   14500   -681.48203    41.056274   -640.42576    1245.5888   -6881.2526     9.510102   0.23984421 
   14600   -682.26073    43.238068   -639.02267    1311.7814   -365.87928    9.6038786   0.20555917 
   14700    -674.2433    41.638917   -632.60438    1263.2654    4530.1378    9.5188786   0.27562643 
   14800   -673.01075    39.492769   -633.51798    1198.1544    488.75755    9.4669577   0.25348874 
   14900   -678.52487    39.587029   -638.93784    1201.0141   -2726.7032    9.5065015   0.24207903 
   15000   -679.30651    40.981649   -638.32486    1243.3248    838.04173    9.5603049   0.21361253 
   15100   -679.08327    39.546699   -639.53657    1199.7905   -378.01197    9.5572748   0.27055638 
   15200    -684.2048    37.444517   -646.76029    1136.0133   -6428.9247    9.5777876   0.21477236 
   15300   -679.15173      38.4071   -640.74463    1165.2167    1019.0559    9.5497069   0.23268827 
   15400   -679.01299    41.947929   -637.06506    1272.6404   -2644.3263    9.5111523   0.24094461 
   15500   -680.68533      42.8971   -637.78823    1301.4369    7469.6457    9.6542228   0.20860875 
   15600    -684.2126    41.513148   -642.69945    1259.4498     9248.625    9.7364187   0.17672449 
   15700   -677.43553    40.525873   -636.90965    1229.4972    3773.9722    9.5657671   0.21727414 
   15800   -678.31671    41.908907    -636.4078    1271.4565   -845.01876    9.5175137   0.26283583 
   15900    -682.2275      42.2281    -639.9994    1281.1404   -3455.9945    9.5609588   0.21580901 
   16000   -680.93941    35.815291   -645.12412    1086.5849    4427.4262    9.6433492   0.20226164 
   16100   -678.22098     40.93972   -637.28126    1242.0528   -1168.2714    9.5186832   0.27210981 
   16200   -677.58081    41.104876   -636.47593    1247.0634   -2152.9323     9.500232   0.24940683 
   16300   -682.50429    41.525546   -640.97874    1259.8259    2962.1904    9.6363308   0.20444335 
   16400   -683.65437    39.325231   -644.32914    1193.0715     7005.185    9.7091674   0.19733413 
   16500   -675.58584    38.674435    -636.9114    1173.3272   -14107.086    9.3431012   0.30117984 
   16600   -678.55586    40.463506   -638.09235    1227.6051   -4163.0432     9.490233   0.22290853 
   16700   -680.60433    40.640386   -639.96395    1232.9714    7931.9345    9.6683364   0.19828025 
   16800   -682.65881    41.409362   -641.24945     1256.301   -6422.1936    9.5319656   0.19608895 
   16900   -673.54501    39.686514   -633.85849    1204.0323     1919.251    9.4620802   0.28124078 
   17000   -676.68012     39.21263   -637.46749    1189.6553   -1655.1657    9.4878432   0.25124114 
   17100   -681.42143    39.446619   -641.97481    1196.7542   -959.48926    9.5859116   0.22166855 
   17200   -675.06737    39.519173    -635.5482    1198.9554    12399.351    9.6246904   0.23006282 
   17300   -677.94881    41.562294   -636.38652    1260.9408   -10074.522    9.4339227   0.24632096 
   17400   -680.40457    38.372022   -642.03255    1164.1525   -2025.0631    9.5586077   0.19986288 
   17500   -676.60412    38.473139   -638.13098    1167.2202    8520.0214    9.6049713   0.22469245 
   17600   -676.88924    43.453135    -633.4361    1318.3062    610.23282    9.5177295   0.24805067 
   17700   -677.05979    36.645055   -640.41473    1111.7587    6707.3211    9.6011014   0.23756143 
   17800   -679.38354    39.908653   -639.47489    1210.7717    1337.8648    9.5642595   0.23034185 
   17900    -674.7662     41.64694   -633.11926    1263.5088   -1794.9945    9.4557792   0.26535209 
   18000   -679.18076    40.205442   -638.97532    1219.7758    3161.5672    9.5845259   0.23183071 
   18100   -678.79317    38.015285   -640.77789    1153.3296     7906.917    9.6350844   0.22270972 
   18200   -674.74321    39.065431   -635.67777    1185.1895   -2283.2276    9.4567967   0.27569497 
   18300     -673.668    42.908478   -630.75952    1301.7821   -1393.1019    9.4168096   0.30400037 
   18400   -679.50799    42.756375   -636.75161    1297.1675   -1459.2736    9.5335812   0.25335857 
   18500   -680.45937    43.061422   -637.39795    1306.4222      17431.8     9.760306   0.17587476 
   18600   -681.47568    41.493376   -639.98231    1258.8499    2021.9383     9.621153   0.22084231 
   18700   -677.06299    42.303728   -634.75926    1283.4348   -6643.2144    9.4448536   0.26247772 
   18800   -675.87239     37.90343   -637.96896     1149.936    2037.2449    9.5178079   0.28248635 
   18900   -680.16604    39.200343    -640.9657    1189.2826   -2519.8055    9.5584682   0.22351957 
   19000   -677.90355    40.915234   -636.98831    1241.3099   -360.09243    9.5275221   0.24206789 
   19100   -675.86307    42.549127   -633.31394    1290.8799   -3180.7335    9.4593284   0.24740521 
   19200   -678.58154    39.641587   -638.93996    1202.6693    2301.9659    9.5634689    0.2178751 
   19300   -683.45658    42.194296   -641.26228    1280.1148   -7914.0752    9.5353704   0.19715329 
   19400   -677.36051    41.125234   -636.23527     1247.681    3823.3767    9.5546126   0.21206438 
   19500   -674.13814    39.624834   -634.51331     1202.161    3354.3641     9.496615   0.26333908 
   19600   -680.74885    41.177293   -639.57156    1249.2604   -7235.4698    9.4973692   0.22214114 
   19700   -683.29861    41.216695   -642.08191    1250.4558   -992.75422     9.607916   0.19372183 
   19800   -679.08776    44.089887   -634.99788    1337.6243    2843.7096      9.57654   0.22130451 
   19900   -677.16104    40.601936    -636.5591    1231.8049    898.57618    9.5328068   0.25072414 
   20000   -681.70024    39.852676   -641.84756    1209.0734    6025.6271    9.6588945   0.18257872 
   20100   -679.47464    36.642564   -642.83208    1111.6832   -2808.9595    9.5316701   0.21858364 
   20200   -674.50966    38.254852   -636.25481    1160.5977    2562.5331     9.503169   0.28021576 
   20300   -679.76785    42.469618   -637.29823    1288.4677     5455.338    9.6192263   0.23842016 
   20400   -680.30464    36.484611   -643.82003    1106.8911    5831.9028    9.6459408   0.20260237 
   20500   -679.65737    41.059298   -638.59807    1245.6806   -4870.7655    9.5130777   0.22579658 
   20600   -678.05623    42.622897   -635.43334     1293.118    437.45901    9.5347876     0.218655 
   20700   -682.22314     42.27735   -639.94579    1282.6346    4513.6005    9.6476081   0.20495184 
   20800   -683.02467    40.471098   -642.55357    1227.8354    -94.25763    9.6191345   0.19175126 
   20900   -675.13848    40.946267   -634.19221    1242.2514    1114.5579    9.4874743   0.25299024 
   21000    -676.2195    40.251066   -635.96844      1221.16   -1108.9071    9.4855958   0.26344613 
   21100   -680.77972    41.037137   -639.74259    1245.0083    3396.0724    9.6134888   0.21491624 
   21200   -681.42435    41.923499   -639.50085    1271.8992    6722.5034    9.6589538   0.20142351 
   21300   -672.34695    41.058502   -631.28844    1245.6565   -8112.4229     9.326425   0.30062826 
   21400   -675.83543    39.649457   -636.18598     1202.908   -7449.5274    9.4079155   0.26579696 
   21500   -677.01803     38.11652   -638.90151    1156.4009    8301.4422    9.6079538   0.21790692 
   21600   -681.65055    39.544235   -642.10631    1199.7158    1795.3159    9.6296876   0.22834905 
   21700   -684.45023     37.22817   -647.22206    1129.4496   -3018.6825    9.6190333   0.21224484 
   21800   -681.01236    38.484942   -642.52742    1167.5783    6718.0244    9.6573553   0.20910756 
   21900    -680.5758    40.856448   -639.71935    1239.5264    -2114.731    9.5508086   0.19968243 
   22000   -679.09565     39.82122   -639.27443    1208.1191   -9093.4515    9.4645869   0.22850476 
   22100   -677.70111    40.830185   -636.87093    1238.7296   -1874.7984    9.4924399   0.24727281 
   22200   -674.46177    44.453572    -630.0082    1348.6581    -5481.689    9.3913051   0.27207289 
   22300   -678.95543    42.091859   -636.86357     1277.007    16767.345    9.7424254    0.2176813 
   22400   -680.05887    40.614498   -639.44438     1232.186    1434.9916    9.5929569   0.22610072 
   22500    -679.3132    38.651224   -640.66197    1172.6231   -3237.5116    9.5260958    0.2244343 
   22600   -676.58679    43.088984   -633.49781    1307.2584   -9399.2928    9.3809529   0.24937515 
   22700   -676.89671    42.892394   -634.00432    1301.2941   -6367.1243    9.4284204    0.2443814 
   22800   -679.73251    40.640489   -639.09202    1232.9745    6611.6426    9.6336865   0.23121379 
   22900   -682.69904    45.882399   -636.81664    1392.0066    3207.3605    9.6190097    0.1801776 
   23000   -679.81386    39.311078   -640.50279    1192.6421   -1691.0966    9.5519664   0.21813349 
   23100    -683.2307    38.119664   -645.11104    1156.4963   -1349.9182    9.6141989   0.20915978 
   23200   -680.03508    41.849742   -638.18534    1269.6615   -4014.3667    9.5262101    0.2397129 
   23300     -674.916    39.126136   -635.78987    1187.0312    5676.1204    9.5458718   0.24877157 
   23400   -681.95032    40.602299   -641.34802    1231.8159     1285.811    9.6111472   0.19591785 
   23500   -683.35431    42.297075   -641.05724     1283.233    190.80654    9.6373495   0.18690246 
   23600   -678.45453    42.175849   -636.27868    1279.5552    1205.1563     9.547846   0.23363088 
   23700   -677.55853    41.456486   -636.10204    1257.7307   -8446.0555     9.412779   0.23220919 
   23800   -682.52405    40.066547   -642.45751    1215.5619   -1124.4984    9.6014581   0.22472458 
   23900   -680.44171    42.594506    -637.8472    1292.2566    2519.4602    9.5939937   0.22065751 
   24000   -675.16811    39.530783   -635.63733    1199.3076    5915.9529    9.5361883   0.27408119 
   24100   -683.22094    39.593496   -643.62745    1201.2103   -6981.8764    9.5548094   0.19972673 
   24200   -680.07877     37.70375   -642.37502     1143.878   -2476.8563     9.542117   0.23256504 
   24300   -676.83619    37.915932   -638.92026    1150.3153    3994.5647    9.5576741   0.22019425 
   24400   -678.32821    41.257485   -637.07073    1251.6933    1939.1781    9.5493284    0.2218481 
   24500   -679.49533    35.466836    -644.0285    1076.0133    4626.3165    9.6253794   0.22959949 
   24600   -683.27777    40.954198   -642.32357     1242.492   -3042.0962    9.5851089   0.21174895 
   24700   -678.07255    41.280836   -636.79171    1252.4017    1840.5187    9.5536024   0.21197102 
   24800   -681.71151    41.736007    -639.9755     1266.211    2604.2885      9.62443   0.20471039 
   24900   -683.87328    40.673878    -643.1994    1233.9875    1451.0046    9.6487669   0.17126248 
   25000   -681.85184     45.76894    -636.0829    1388.5644    845.98152    9.5926088   0.19778592 
   25100   -680.70259    43.458712   -637.24387    1318.4754     2065.285    9.5898033   0.21502043 
   25200   -679.13276    40.870381   -638.26238    1239.9491   -2109.2145    9.5240054   0.22638516 
   25300   -681.21431    38.030542   -643.18377    1153.7924    3271.3383    9.6355216   0.20641769 
   25400   -683.61173    37.407402   -646.20432    1134.8873    6545.9741    9.7091953   0.18439906 
   25500   -678.09871    39.561603   -638.53711    1200.2427   -4096.1162    9.5017388   0.23051331 
   25600   -678.41368    39.671103   -638.74258    1203.5647    -92.82305    9.5325242   0.23942027 
   25700   -676.38831    39.688952   -636.69936    1204.1063    1198.4572    9.5054741   0.26207845 
   25800   -669.74075     39.27217   -630.46858    1191.4617   -4922.5367    9.3317752   0.34175006 
   25900   -678.62208    42.479331   -636.14275    1288.7624   -3650.3375    9.5013867   0.24970476 
   26000   -678.61646    40.474109   -638.14235    1227.9268      12454.6    9.6783917   0.21282812 
   26100   -678.60642    41.719451   -636.88697    1265.7087   -2361.9087    9.5148546   0.24589416 
   26200   -676.91013    40.548172   -636.36196    1230.1738   -4937.3529    9.4723182   0.23307471 
   26300   -681.22652    37.543982   -643.68253    1139.0309    2262.0434     9.623189   0.20110132 
   26400   -682.93481    43.281493   -639.65331    1313.0988   -2090.8926    9.5943763    0.2013419 
   26500   -677.78869    43.456784    -634.3319    1318.4169    6409.0585    9.5882661   0.23646104 
   26600   -678.48834    40.214257   -638.27408    1220.0433    3864.7393    9.5815051   0.27476456 
   26700   -682.33518    41.401425   -640.93375    1256.0603   -3269.9924    9.5644177   0.21415897 
   26800   -679.45542    42.104786   -637.35064    1277.3992     -1100.88    9.5526766   0.22549918 
   26900   -674.74019    44.222219   -630.51797    1341.6391   -3731.2341     9.426683   0.29389713 
   27000   -679.89242    41.995457   -637.89696    1274.0823     7511.418    9.6493584   0.20569446 
   27100   -679.81918    41.082974   -638.73621    1246.3989    6466.2831    9.6287661   0.20144023 
   27200   -675.22873    37.850048   -637.37868    1148.3165    1983.9336     9.508874   0.24474587 
   27300   -673.16834    42.749227   -630.41912    1296.9506   -4493.4783    9.3887287   0.27219768 
   27400   -679.78289    41.556367   -638.22652     1260.761    -813.2404    9.5444605   0.25644775 
   27500    -678.4948    39.580819   -638.91398    1200.8257    5371.4916    9.6044544   0.23845704 
   27600   -677.78789    41.747464   -636.04043    1266.5586    4641.0919    9.5802914   0.24741052 
   27700   -673.72447    41.325888   -632.39858    1253.7686    -8542.196    9.3503878   0.28333538 
   27800   -680.81301    40.008402   -640.80461    1213.7979   -532.34308    9.5731956   0.22583741 
   27900   -680.94325    41.158798   -639.78445    1248.6993   -5071.6476    9.5188687   0.22924264 
   28000   -677.79536    43.939674   -633.85569    1333.0671    3947.7105    9.5534019   0.22831632 
   28100   -681.40263    43.341689   -638.06094    1314.9251    2223.5192    9.6025593   0.21687402 
   28200   -679.08557    35.547777    -643.5378    1078.4689   -3048.5842    9.5289677   0.21976237 
   28300   -676.17351    38.572111    -637.6014    1170.2229   -5489.0811    9.4475822   0.24915109 
   28400   -677.23893    41.229967   -636.00896    1250.8584    2368.2575     9.520375   0.25981829 
   28500   -683.62717     40.83256   -642.79461    1238.8017    2698.9366    9.6506075   0.20962785 
   28600   -679.67341     39.40473   -640.26868    1195.4834    2416.0118    9.5834258   0.22021292 
   28700   -672.85418    37.328391   -635.52579    1132.4902    -4530.594    9.3978551   0.30157915 
   28800   -676.22829    38.485664   -637.74263    1167.6002   -3231.8914    9.4733254   0.25253526 
   28900   -682.36144    39.575029   -642.78641      1200.65     4429.405    9.6585324   0.20811327 
   29000    -677.0617    39.660469   -637.40123    1203.2421    8644.0211    9.6055561   0.24621664 
   29100   -673.45656    39.743032   -633.71353     1205.747   -3081.5752    9.4204791   0.28618267 
   29200   -673.28772    38.964426   -634.32329    1182.1252   -4006.4142    9.3979484   0.26751757 
   29300   -679.12725    37.647859   -641.47939    1142.1824    -2634.626    9.5222729   0.25387803 
   29400   -681.50618    42.578041   -638.92814    1291.7571    5893.8961    9.6529804   0.21727877 
   29500   -680.49216     43.09464   -637.39752      1307.43    5775.4858    9.6269547   0.20114429 
   29600   -685.20826    40.639479   -644.56878    1232.9439   -12130.498     9.529152   0.23664594 
   29700   -681.61715    39.289102   -642.32805    1191.9754    2571.4934    9.6179957   0.22014375 
   29800   -678.66137     40.72993   -637.93144     1235.688    2214.5434      9.55664    0.2090279 
   29900   -679.01513    40.356998   -638.65813    1224.3738   -1396.0117    9.5264384   0.22146044 
   30000   -684.17607    39.167903   -645.00816    1188.2984    8216.4127    9.7294642   0.17466663 
   30100   -680.09746    40.521791   -639.57567    1229.3734    8588.8411     9.664317   0.19400017 
   30200   -680.07348    42.388681    -637.6848    1286.0122   -6837.1795    9.4910693   0.24585241 
   30300   -679.13477    40.507842   -638.62693    1228.9502    712.21735    9.5500471   0.21007041 
   30400   -685.95476     40.51176     -645.443    1229.0691   -913.99408    9.6579125   0.17524233 
   30500   -680.50906    40.626098   -639.88297    1232.5379   -891.38301    9.5773211   0.22398243 
   30600   -679.55379     41.86443   -637.68936    1270.1072    1661.2029    9.5802117   0.21157713 
   30700   -678.76883     39.34999   -639.41884    1193.8226   -6257.9733    9.4881282   0.23021439 
   30800   -681.68685    37.653741   -644.03311    1142.3608   -7901.1245    9.5233123   0.21284023 
   30900   -684.68254    39.561062   -645.12148    1200.2262    12952.458    9.8045623   0.16448385 
   31000   -677.38733     38.10202   -639.28531     1155.961    4935.0616    9.5964105   0.23076863 
   31100   -678.21596    40.682335   -637.53363    1234.2441   -6798.2814    9.4687031   0.22006292 
   31200   -682.05202    39.184092   -642.86793    1188.7895    -5718.735      9.54571   0.21797525 
   31300   -680.51639    36.794521   -643.72187    1116.2933     184.3232    9.5845755    0.2164499 
   31400   -678.05352    41.383964   -636.66956    1255.5305   -5981.8563    9.4611762   0.26626831 
   31500   -677.73052    39.961978   -637.76854    1212.3895    4312.2474    9.5665351    0.2503109 
   31600    -684.7692    41.397109   -643.37209    1255.9293   -1114.3666    9.6249544   0.19138892 
   31700   -682.47158    42.433928   -640.03765    1287.3849   -5403.0164    9.5601381   0.19756176 
   31800   -678.47815    43.241829   -635.23632    1311.8955    175.00104    9.5299979   0.22977636 
   31900   -677.78222    37.528031   -640.25419     1138.547   -4240.2136    9.4959694   0.26150359 
   32000   -679.95625    36.583216   -643.37304    1109.8826   -6491.7002    9.4982021   0.23395589 
   32100   -677.02783    39.414189   -637.61364    1195.7703   -2526.7916    9.4963318   0.21801531 
   32200   -677.76184    42.238127   -635.52371    1281.4446    4588.5615    9.5604841   0.24378789 
   32300   -680.56756    41.012825   -639.55474    1244.2707   -3172.1229    9.5242422   0.21124846 
   32400   -679.61648    38.129278    -641.4872     1156.788    -5487.072     9.506084   0.24861256 
   32500   -676.48299    42.782427   -633.70056    1297.9579    10743.759    9.6125671   0.25263398 
   32600   -677.03264    40.256756   -636.77588    1221.3326    2198.3921    9.5632003    0.2311301 
   32700   -680.83177    39.509566   -641.32221    1198.6639   -5055.0174    9.5224992   0.20970808 
   32800   -676.38313    39.828414   -636.55472    1208.3373   -176.54419    9.4996511   0.22588011 
   32900    -674.8941    41.085104   -633.80899    1246.4635    973.15456    9.4939099    0.2859032 
   33000   -679.71389    37.784611   -641.92928    1146.3313   -327.14409    9.5700504   0.26328486 
   33100   -678.99575    38.453423   -640.54233    1166.6221   -2160.7735    9.5275844   0.23982813 
   33200   -678.80443    41.726639   -637.07779    1265.9268   -910.36227    9.5318478   0.23802629 
   33300   -675.97217    41.754778   -634.21739    1266.7805   -8784.5994    9.4002495    0.2624803 
   33400   -671.82826    42.925883   -628.90237    1302.3101   -10662.051    9.2908824   0.32283424 
   33500    -679.0516     41.38439   -637.66721    1255.5434   -4281.6114    9.4990003   0.25844153 
   33600   -681.13326    42.666333   -638.46693    1294.4358      9205.27      9.68756   0.19438095 
   33700   -680.05433    40.361416   -639.69292    1224.5079    3447.9235     9.607589   0.22613095 
   33800   -675.91477    41.862217   -634.05255      1270.04   -2911.8811     9.465498   0.24725502 
   33900   -673.98023    36.634972   -637.34526    1111.4529    -4544.143    9.4096499   0.29647616 
   34000   -678.81094    37.718734   -641.09221    1144.3326   -7667.9927    9.4679013   0.25642283 
   34100   -681.78927    39.156352   -642.63292    1187.9479    3083.0886    9.6399008   0.18559324 
   34200   -673.06903    38.367444   -634.70158    1164.0136    3451.8201    9.4867783   0.25971079 
   34300   -674.76771    37.304475   -637.46323    1131.7646    1208.0957    9.5025069   0.28049902 
   34400    -678.9252      38.0394    -640.8858    1154.0612    153.36129    9.5458403    0.2530211 
   34500   -680.13705    37.792876   -642.34418     1146.582    294.02288    9.5685962   0.21416456 
   34600   -673.61288    39.342967   -634.26992    1193.6096    4615.2427    9.4956274     0.255801 
   34700   -680.09696    43.856548   -636.24041    1330.5452    4886.5394     9.607116   0.22761314 
   34800   -681.33633    40.562602   -640.77372    1230.6115   -5878.1684    9.5300332   0.21285223 
   34900   -677.85987    38.200858   -639.65901    1158.9596   -8439.8202    9.4352087   0.23752482 
   35000    -672.9335     40.63349   -632.30001    1232.7622    500.96502    9.4473044   0.25840548 
   35100   -679.69097    41.455791   -638.23518    1257.7096    16901.845     9.742575   0.20752989 
   35200   -680.41873    40.241092   -640.17764    1220.8574    593.12704    9.5801453   0.22199492 
   35300   -676.31328    37.908071   -638.40521    1150.0769   -1746.1203    9.4925341   0.28818236 
   35400    -675.1352    41.132944   -634.00226    1247.9149    1055.9032    9.4957759   0.27257813 
   35500   -678.12014    38.983711   -639.13643    1182.7102    4923.1713    9.5957943   0.22626433 
   35600   -680.35184    37.213501   -643.13834    1129.0046   -1541.6732    9.5507289   0.21956437 
   35700   -676.16776    40.454182   -635.71358    1227.3222   -6372.4446    9.4202763   0.25095726 
   35800   -676.14433    40.452794   -635.69154    1227.2801   -4852.2999    9.4455432   0.25601075 
   35900   -682.86481    42.024139   -640.84067    1274.9525   -2632.4846    9.5819459   0.20716699 
   36000   -679.63067    38.815235   -640.81543    1177.5989    9144.7986    9.6731087   0.18800651 
   36100   -675.57697    42.454915   -633.12206    1288.0216   -4240.6725    9.4567071   0.26104166 
   36200   -675.11561    37.080217   -638.03539    1124.9609    121.37116    9.4771385   0.25819749 
   36300   -681.49634    41.704326   -639.79202    1265.2498    5784.8304     9.643597   0.22454631 
   36400   -677.94555    45.368691   -632.57686    1376.4214    7170.1736    9.6014365   0.25640318 
   36500   -675.64891    43.820008   -631.82891    1329.4366   -8106.7269    9.4000539   0.28731383 
   36600   -679.05213    39.759552   -639.29257    1206.2481   -6378.2083    9.4925407   0.21960097 
   36700   -681.91839    41.838792   -640.07959    1269.3293   -1735.4386    9.5801823   0.25075994 
   36800   -678.89004    43.366803   -635.52324     1315.687    1382.7439    9.5669438   0.21183158 
   36900   -682.91985    39.779537   -643.14032    1206.8545    3302.7873    9.6702931   0.19899174 
   37000   -680.02406    38.051698   -641.97236    1154.4343   -1829.9815    9.5389206    0.2152405 
   37100   -677.73708    41.086802   -636.65028     1246.515     -6375.99    9.4449465    0.2476557 
   37200   -678.27316    39.998566    -638.2746    1213.4995   -2122.1279    9.5183217   0.22873288 
   37300   -682.46948    38.930817   -643.53867    1181.1055    1455.8397    9.6162567   0.20398816 
   37400   -677.09763    39.694752   -637.40288    1204.2822    6172.7525    9.5806946   0.23582577 
   37500   -675.67357    38.390986   -637.28258    1164.7278   -8359.3756    9.3864721   0.27093332 
   37600    -678.4035    37.252458   -641.15104    1130.1865   -4729.5092    9.4949193   0.27029431 
   37700   -684.02262    39.461674   -644.56094     1197.211    -2632.931    9.6161704   0.20507744 
   37800   -679.75727    42.005756   -637.75151    1274.3948    2050.1113    9.5823485   0.22668053 
   37900   -675.17888    38.194438   -636.98444    1158.7648   -3295.9787    9.4563347   0.28385706 
   38000   -677.41148    38.532984    -638.8785    1169.0358   -11463.781    9.4169826   0.29472517 
   38100   -678.45266    41.759047   -636.69361      1266.91   -1705.7769    9.5286437   0.24190477 
   38200   -675.99161    41.288903   -634.70271    1252.6465     -179.172    9.4887173   0.26870575 
   38300    -682.6557    39.640978   -643.01472    1202.6508   -4617.7162     9.575601   0.18550475 
   38400   -680.29248    40.049215   -640.24327    1215.0361    5472.8341    9.6337319   0.20545314 
   38500   -678.87712    44.463975   -634.41315    1348.9736    1867.6741    9.5607786   0.22438736 
   38600   -677.55441    38.321367   -639.23304    1162.6157   -2318.4366    9.5000205   0.25018103 
   38700   -680.47365     37.37887   -643.09478    1134.0217   -3289.4106    9.5362482   0.23228752 
   38800   -676.54955    39.913473   -636.63608    1210.9179    8944.5526    9.5775419   0.24056534 
   38900   -678.63277    43.951739   -634.68103    1333.4331   -6801.9056    9.4571217   0.25338266 
   39000   -677.74899    37.785908   -639.96308    1146.3706   -2734.6427    9.5043053   0.25734361 
   39100   -680.87084    40.238973   -640.63187    1220.7931    745.57553    9.5894214   0.20979799 
   39200   -676.21629    44.063319   -632.15297    1336.8183    3764.2539    9.5364579    0.2283386 
   39300   -676.62217    40.697146   -635.92502    1234.6934    1911.2372    9.5380795   0.26015206 
   39400   -682.78369    41.540205   -641.24349    1260.2706     3176.646    9.6425116   0.21020979 
   39500   -681.59607    44.193081   -637.40299    1340.7551   -1516.9433    9.5626664   0.21133687 
   39600   -676.70154    40.437117   -636.26442    1226.8045   -4690.2105    9.4552786   0.24458815 
   39700   -682.80134     39.90627   -642.89507    1210.6994    1636.5706    9.6342656   0.16740237 
   39800   -681.40175    39.680664   -641.72109    1203.8548    7722.9621    9.6748645    0.1913659 
   39900   -679.21898    41.394924   -637.82405     1255.863    4628.0927    9.6063674   0.22328848 
   40000   -680.63288    41.135457   -639.49743    1247.9912   -4300.4859    9.5204831   0.23733091 
   40100   -683.98966    37.898582   -646.09108     1149.789   -4606.9714    9.5848139   0.20784465 
   40200   -677.82626    38.121445   -639.70482    1156.5503    392.45928    9.5367091    0.2469021 
   40300   -677.56477    40.368335   -637.19643    1224.7178    328.61997    9.5170074   0.22775183 
   40400   -680.77447     38.35506   -642.41941    1163.6379    4223.5834    9.6273127   0.21065072 
   40500   -679.51103    38.949637    -640.5614    1181.6765   -1428.5669    9.5508461   0.21356615 
   40600    -674.4629    39.833993   -634.62891    1208.5066   -3090.9038    9.4249943     0.300062 
   40700   -677.83718    38.365884    -639.4713    1163.9663    4048.4944    9.5714287   0.24093998 
   40800   -681.49046    39.026693   -642.46377    1184.0143   -3413.2512    9.5559941   0.23159655 
   40900    -676.9798    40.862312   -636.11749    1239.7043    889.61715    9.5270105   0.24908168 
   41000   -677.28259       40.869   -636.41359    1239.9072    2687.7219    9.5506816   0.22700991 
   41100   -682.65906    40.326684   -642.33238    1223.4541   -11640.168    9.4857589   0.20922922 
   41200    -678.5383    39.027092   -639.51121    1184.0264   -1892.7386    9.5184767   0.24945437 
   41300   -679.84647    44.821368    -635.0251    1359.8165    5213.4287    9.6112802   0.21884879 
   41400   -681.82275    42.416578   -639.40617    1286.8585    3433.2373    9.6483136   0.16830601 
   41500   -679.19881    37.786421   -641.41239    1146.3862    1339.0109     9.566579   0.20615807 
   41600   -677.46853    42.736035   -634.73249    1296.5504   -3817.3676    9.4861981   0.22716171 
   41700   -681.65418    42.514323   -639.13986     1289.824   -1768.9465     9.581148    0.2064521 
   41800    -682.6868    40.513763   -642.17304    1229.1298    4159.5802    9.6694633   0.18746089 
   41900    -676.8372    41.382558   -635.45464    1255.4879   -2940.3251    9.4799129   0.25346919 
   42000   -676.89768    40.943597   -635.95409    1242.1704   -7094.3308    9.4257676   0.24880309 
   42100   -683.45369    41.867219   -641.58647    1270.1918   -982.55547    9.6041606   0.20276709 
   42200   -677.07125    38.410761   -638.66049    1165.3278     8051.265    9.6155036   0.24790612 
   42300   -673.99705    39.575978   -634.42107    1200.6788   -246.46925    9.4710019   0.28891308 
   42400   -681.00263    41.157897   -639.84474    1248.6719    1716.6106     9.590639   0.25054824 
   42500   -681.66215    40.167562   -641.49459    1218.6266    3487.2236    9.6427699   0.24001221 
   42600   -676.45923    40.617169   -635.84206     1232.267    4827.4014    9.5501231   0.23410827 
   42700   -679.12112    39.984561   -639.13656    1213.0746   -5306.4745    9.4905841   0.23568767 
   42800   -679.99198    37.984229   -642.00775    1152.3874    -4083.093    9.5194533   0.22435169 
   42900   -674.41196    39.758513   -634.65345    1206.2166    4413.3819    9.5138458   0.24409456 
   43000   -677.37572    41.317983   -636.05774    1253.5287   -1515.7407    9.4946072      0.22358 
   43100   -683.49951      41.1757   -642.32381    1249.2121    2688.2693    9.6581305   0.18086852 
   43200   -680.03252    40.183476   -639.84905    1219.1094    2139.7922    9.5956685   0.21530349 
   43300   -677.50204    43.113872   -634.38817    1308.0135   -3141.1698    9.4659321   0.26416431 
   43400   -682.64506    41.475842   -641.16922     1258.318    3064.2322    9.6494029   0.23197897 
   43500   -678.07948    37.700873   -640.37861    1143.7908    221.05107    9.5572854    0.2220369 
   43600   -673.15392    37.882948   -635.27097    1149.3147   -5916.2675    9.3772063   0.30699598 
   43700   -670.31827    36.489821   -633.82844    1107.0492    -6117.599    9.3393807   0.32770259 
   43800   -678.05928    38.446306   -639.61298    1166.4061    6908.9129    9.6191895   0.24641184 
   43900   -680.75642    41.184049   -639.57237    1249.4654    11280.506    9.7012552   0.20728107 
   44000   -678.22286    41.693238   -636.52962    1264.9134    -5807.722    9.4727625   0.23898486 
   44100   -676.56393    43.707272   -632.85666    1326.0163   -11066.141    9.3837331   0.25522475 
   44200   -678.22574    40.035773   -638.18997    1214.6283   -1794.8807    9.5091968   0.23926179 
   44300   -681.28499    40.901432   -640.38356    1240.8912   -29.076948    9.6031742   0.20695877 
   44400   -678.86187    39.907014   -638.95486    1210.7219    8031.2745    9.6441807   0.19916286 
   44500   -674.10244     42.68539   -631.41705    1295.0139   -1634.6157    9.4401032   0.27529372 
   44600   -677.12016    39.013392   -638.10677    1183.6107   -1626.5609    9.4996717   0.23643874 
   44700   -678.09018    38.406686   -639.68349    1165.2041   -5348.2478    9.4816544   0.26246306 
   44800   -675.99209    39.291976   -636.70012    1192.0626    1309.2613    9.5069931    0.2399066 
   44900   -672.19379     44.30003   -627.89376    1343.9998   -1718.7887    9.3947375   0.28844994 
   45000   -673.73454    40.862684   -632.87185    1239.7156    4826.1704    9.4992245   0.28562501 
   45100   -677.61718    41.270477    -636.3467    1252.0875    5129.5018     9.586455   0.25832311 
   45200   -678.44768    40.137026   -638.31065    1217.7002   -4154.2593    9.4907071   0.24127455 
   45300   -679.72592    38.252851   -641.47307     1160.537    2057.4571     9.584187   0.26213636 
   45400   -683.43612    38.473058   -644.96306    1167.2178    5479.0856    9.6938682   0.20359824 
   45500   -679.33859    40.606864   -638.73172    1231.9544   -1616.5459    9.5352709   0.22163071 
   45600   -679.13018    41.148622   -637.98156    1248.3906   -2560.9925     9.512435   0.22067132 
   45700   -679.50702    36.939181   -642.56783    1120.6821   -1137.1141    9.5566012   0.21751943 
   45800   -683.19771    37.703892   -645.49382    1143.8824   -1636.9707    9.6135735   0.19918995 
   45900   -677.53712    39.157503   -638.37962    1187.9829    7561.6577    9.6138806   0.22393293 
   46000   -679.95422     42.64794   -637.30628    1293.8777   -37.595479    9.5478444   0.21317557 
   46100   -679.73843     36.89674   -642.84169    1119.3945    1414.2747     9.583204   0.21359832 
   46200   -682.53895    37.695289   -644.84366    1143.6214   -3609.8482     9.560936   0.21682851 
   46300   -676.81146    38.018736   -638.79273    1153.4343   -1308.0936    9.5028166    0.2527066 
   46400   -675.51798    39.705204   -635.81277    1204.5993    1615.9265    9.5305959   0.28353221 
   46500   -674.31361    39.700142   -634.61347    1204.4457     10412.05    9.5997262   0.25076642 
   46600   -681.87304    39.862088   -642.01095     1209.359    3437.0094    9.6408742    0.1863166 
   46700   -678.65269    38.866072   -639.78662    1179.1413    302.33779    9.5421267   0.23187892 
   46800   -675.19345    41.696543   -633.49691    1265.0137   -3902.1802    9.4419352   0.24756209 
   46900   -680.83894    42.865825   -637.97311     1300.488    12193.883    9.7123249   0.19376327 
   47000   -682.30377    42.128589   -640.17518    1278.1214    1636.5754    9.6187672   0.20332384 
   47100   -678.24993    41.791104   -636.45882    1267.8825   -12906.024    9.3859495   0.26835086 
   47200   -675.26879    40.731659   -634.53713    1235.7405   -6571.3171    9.4121715   0.28437712 
   47300    -682.2039      39.8627    -642.3412    1209.3775   -2228.2684    9.5805169   0.21629496 
   47400   -681.31171    40.482975   -640.82874    1228.1958   -2461.4348    9.5658496    0.2241321 
   47500   -676.62636    40.817414   -635.80895    1238.3422   -5677.5231    9.4383434   0.25889257 
   47600   -675.23117    37.860132   -637.37103    1148.6225   -7440.8648    9.4024692   0.28033494 
   47700    -683.3921    39.241737   -644.15036    1190.5384     3640.185    9.6802302    0.1961419 
   47800   -680.39004    41.224266   -639.16578    1250.6855    4169.4846    9.6241245   0.22720487 
   47900   -676.29952    41.451582   -634.84794    1257.5819   -4251.0872    9.4501452   0.26455653 
   48000   -678.77565    39.741914   -639.03374    1205.7131    1509.6702    9.5591394   0.23398338 
   48100   -682.15015    37.950594   -644.19955    1151.3669    6862.8214     9.670694   0.18356358 
   48200    -675.8323    38.634161   -637.19814    1172.1054    265.00597    9.5059906   0.23553428 
   48300   -677.31881    41.700391   -635.61842    1265.1305    65.249148    9.5238726   0.23530281 
   48400   -684.47442    44.216148   -640.25827    1341.4549     10576.69    9.7574797   0.16874117 
   48500    -683.5018    40.088646   -643.41316    1216.2324    7843.9153     9.715125   0.17494435 
   48600   -675.84742    39.011793   -636.83563    1183.5622   -2898.2647    9.4824548   0.25136528 
   48700    -677.6212    38.943002    -638.6782    1181.4752     2309.126    9.5545597   0.25027634 
   48800   -683.72744    40.704917   -643.02252    1234.9292   -1485.3817    9.6172463   0.20041254 
   48900   -675.27828    39.435691   -635.84258    1196.4227    10250.637    9.6027858   0.23624204 
   49000   -677.74616    41.448883   -636.29727    1257.5001    4207.5218    9.5795253   0.22861533 
   49100    -681.5854    38.732272   -642.85313     1175.082   -6546.9269    9.5338996   0.21761654 
   49200   -678.53398    39.513952   -639.02002     1198.797    530.81169    9.5448907   0.23692841 
   49300   -678.03575    42.795409   -635.24034    1298.3517   -633.67936    9.5272798   0.24430671 
   49400   -680.06861    39.192583   -640.87603    1189.0471    10777.279    9.6962935   0.20798417 
   49500   -682.44718    41.224444   -641.22273    1250.6909   -1811.3515    9.5847541   0.19904235 
   49600   -672.72324    38.873316   -633.84992     1179.361   -11419.253    9.3201376   0.30666998 
   49700    -677.9163    39.850863   -638.06544    1209.0184   -2485.7941    9.5009388    0.2893423 
   49800   -677.99298    37.809831   -640.18315    1147.0964    3741.8126    9.5830365   0.23726664 
   49900   -679.91112    35.912509   -643.99861    1089.5344    2421.7533    9.6072483   0.19766729 
   50000   -684.26055    34.169143   -650.09141    1036.6431   -3525.5075    9.6181425   0.17291889 
   50100   -682.29194    40.349526   -641.94241    1224.1471   -987.57202    9.5827154   0.20193821 
   50200   -681.51757    41.612537   -639.90503    1262.4651    -828.9153    9.5833935   0.22359165 
   50300   -678.55813    40.268888   -638.28924    1221.7007    8247.2492    9.6318933    0.2365961 
   50400    -681.0099    44.575802   -636.43409    1352.3663    1594.0964    9.5818648   0.21202084 
   50500   -674.52902    45.245593   -629.28343    1372.6868   -2229.5894    9.4389757   0.26434692 
   50600   -677.55048    40.974282    -636.5762    1243.1013    8567.2765    9.6005789   0.23111953 
   50700   -680.90889    42.099132   -638.80976    1277.2277   -2658.0753    9.5488297   0.22160043 
   50800   -681.75421    38.667067   -643.08714    1173.1037   -5758.8236    9.5370703   0.22327934 
   50900   -681.90517    39.193473   -642.71169    1189.0741   -7384.9783    9.5340563   0.21622791 
   51000   -678.98205    41.880044     -637.102    1270.5809    2371.7845    9.5609799   0.23088265 
   51100   -680.19797    41.033988   -639.16399    1244.9127    2053.2234    9.5897618   0.21866435 
   51200   -682.07225    39.789689   -642.28256    1207.1625   -976.26921    9.5906238   0.21843924 
   51300   -674.39167    40.576031   -633.81564     1231.019   -9195.9484     9.356387   0.29758533 
   51400   -674.44613    39.631762   -634.81437    1202.3712    3737.6986    9.5091204   0.27955175 
   51500   -682.00311    43.454213    -638.5489    1318.3389   -4524.9152    9.5405528   0.22053461 
   51600    -680.0951    37.896434   -642.19867    1149.7238   -6335.0825     9.495215   0.24430856 
   51700   -674.65331    38.695771   -635.95754    1173.9745   -3065.2463    9.4309997   0.29830707 
   51800   -674.16277    41.430806   -632.73197    1256.9516    7674.4974    9.5347237   0.26395246 
   51900   -681.71318    41.344652   -640.36853    1254.3378    3995.4706    9.6267797   0.23529855 
   52000    -679.3569     38.53709   -640.81981    1169.1604    -8224.533    9.4713825   0.25403533 
   52100   -674.23234    40.224189   -634.00816    1220.3446   -5443.0354    9.3989886   0.26334959 
   52200   -680.67821    43.555797   -637.12241    1321.4208   -7569.9011    9.4854927   0.21206129 
   52300   -678.83807    36.494536   -642.34353    1107.1922    2441.4466    9.5908059   0.21529623 
   52400    -677.7514    40.518243   -637.23315    1229.2658    984.29287    9.5350607   0.22659566 
   52500   -677.11639    40.194111   -636.92228    1219.4321    735.30162    9.5226025   0.23533265 
   52600   -682.14798    37.742887   -644.40509    1145.0654   -1856.4799     9.594905   0.19709519 
   52700   -680.08473    41.146612   -638.93811    1248.3296   -2136.7991     9.543356   0.23145887 
   52800   -681.44934    44.330114   -637.11923    1344.9125    4484.7507    9.6321023   0.21932278 
   52900   -680.59887    39.108378   -641.49049    1186.4925    368.55452     9.576763   0.22630074 
   53000   -681.66065    38.484052   -643.17659    1167.5513    -8208.883    9.5142755   0.20395711 
   53100   -676.62563    41.096473   -635.52916    1246.8084    988.74498    9.5110366   0.26448623 
   53200   -676.92928    40.272057   -636.65722    1221.7968     16465.38    9.7033829   0.22878999 
   53300    -681.4246    37.924463   -643.50014    1150.5742    5137.1658    9.6607853   0.20256552 
   53400   -679.68216    38.272805   -641.40935    1161.1424    1466.8978    9.5765158   0.20351302 
   53500   -677.00031    40.704111   -636.29619    1234.9047    2846.1045    9.5462001   0.22688113 
   53600   -680.69036    40.958584   -639.73177    1242.6251   -9203.5332    9.4827156   0.24182652 
   53700   -682.93502    40.631318    -642.3037    1232.6963    -5620.235    9.5388198   0.18961513 
   53800   -673.34823    39.390442   -633.95779    1195.0499    2004.4203    9.4855782    0.3049043 
   53900    -677.3029    42.521062   -634.78184    1290.0284    1368.1515    9.5382326   0.26739293 
   54000   -676.90748    38.233447   -638.67403    1159.9483   -2772.4777    9.4840355   0.25183142 
   54100   -676.66388    35.099967   -641.56392     1064.883   -11162.657    9.3944839   0.27747234 
   54200   -677.13778    42.256047   -634.88173    1281.9883   -6099.7724    9.4429627   0.28168994 
   54300   -677.07853     42.23977   -634.83876    1281.4944    9512.2183     9.605785   0.23480893 
   54400   -680.62728    40.844527   -639.78276    1239.1648      1969.29    9.6109154   0.21725629 
   54500   -678.76391    40.027836   -638.73608    1214.3875    6004.3838    9.6124614   0.23616211 
   54600   -670.61941    38.197591   -632.42182    1158.8605   -3009.6217    9.3865945   0.32955762 
   54700   -676.73955    39.766606   -636.97295    1206.4622   -8053.4427    9.4322322   0.24197355 
   54800   -679.15694    38.675221   -640.48172    1173.3511    1560.8915    9.5689757    0.2221987 
   54900   -680.38895    43.205249    -637.1837    1310.7857    4074.6309    9.6156495   0.20180673 
   55000   -678.45093    43.402736   -635.04819    1316.7772   -2853.3533    9.4947794   0.25943368 
   55100   -672.90554    46.037333    -626.8682    1396.7071   -867.46884    9.4213914   0.28654529 
   55200   -676.74515    42.374972   -634.37018    1285.5963    4151.2773    9.5475982   0.23747902 
   55300   -676.67554    40.145521   -636.53002    1217.9579   -1584.0826    9.4883366    0.2367811 
   55400   -680.78673    42.327979   -638.45875    1284.1706    435.12258    9.5825824   0.22604142 
   55500   -682.44788    37.634955   -644.81292    1141.7909    8736.4007    9.7101392   0.19625355 
   55600   -678.37042    39.334285   -639.03613    1193.3462     537.8279    9.5592589   0.24238104 
   55700   -673.93905    36.745386   -637.19366    1114.8027   -4955.9392    9.4157664   0.27222766 
   55800   -679.01866    40.106958    -638.9117     1216.788   -7262.9385    9.4636092   0.23945793 
   55900   -684.55219    39.765405   -644.78679    1206.4257    8748.8447    9.7445497   0.18028343 
   56000   -679.31922    41.590611   -637.72861    1261.7999   -4814.3141    9.4974834    0.2404757 
   56100   -677.25128    39.759051   -637.49223    1206.2329   -450.56688    9.5164245   0.23512407 
   56200   -681.38808    40.155375   -641.23271    1218.2569    2940.8188    9.6292376    0.1984214 
   56300   -683.47345    41.997432   -641.47602    1274.1422    7310.7395    9.7000347   0.18237947 
   56400   -676.20941    42.467298   -633.74212    1288.3973    1585.2955    9.5049394   0.24805712 
   56500   -680.26116    40.843527   -639.41763    1239.1344    324.83678    9.5744758     0.238149 
   56600   -683.08807    44.068059   -639.02001    1336.9621   -5071.9892    9.5587675   0.20394696 
   56700   -680.65975    42.978568   -637.68119    1303.9085    -4559.423    9.5183071   0.22113654 
   56800   -673.31371    41.127793   -632.18591    1247.7586   -3799.0287    9.4023915    0.2752594 
   56900   -671.73554    40.511813   -631.22373    1229.0707   -2140.6638    9.3927481   0.27047324 
   57000   -680.99105     44.71239   -636.27866    1356.5102    2238.5803    9.6050314   0.22195967 
   57100   -679.07146    40.981607   -638.08985    1243.3236    7842.2686    9.6226261   0.23517596 
   57200   -678.97357     39.10641   -639.86716    1186.4328   -7388.7707    9.4728488   0.25681756 
   57300   -686.15193    39.110883   -647.04105    1186.5685   -2037.9036    9.6526069   0.18100424 
   57400   -681.10055    41.202897   -639.89765    1250.0372    3710.5418    9.6098218   0.23001961 
   57500   -676.37598    38.644179    -637.7318    1172.4093   -1478.5109    9.4994685   0.25674303 
   57600   -680.23334    39.882876   -640.35046    1209.9896   -1638.5368    9.5585599   0.19977674 
   57700   -686.62006    43.196596   -643.42346    1310.5232    2860.4462    9.7017682   0.16151832 
   57800   -678.28775    42.422636   -635.86511    1287.0423     2415.751     9.552639   0.24705368 
   57900    -678.3796    40.932149   -637.44745    1241.8231   -8078.6346    9.4463069   0.24988889 
   58000   -676.74973    35.945618   -640.80411    1090.5388   -7442.1989    9.4446034   0.25044809 
   58100   -680.20325    41.132285   -639.07097    1247.8949    4189.6425    9.6096288   0.19356846 
   58200   -677.84551    44.724112   -633.12139    1356.8658    4119.8315    9.5513918   0.23983597 
   58300   -679.59562      40.7476   -638.84802    1236.2241    262.20908    9.5484346   0.25714063 
   58400   -679.22802    40.397087   -638.83094    1225.5901    651.21805    9.5581908   0.23221186 
   58500   -675.07001    43.309926   -631.76008    1313.9614    -2811.756    9.4414109    0.2276911 
   58600   -680.62788    41.722802   -638.90508    1265.8104    4833.4372    9.6175395   0.21472175 
   58700   -681.68298    42.011632   -639.67134     1274.573   -1856.4653    9.5801944    0.2174828 
   58800   -675.78137    42.208496   -633.57288    1280.5456    -11505.44    9.3442681   0.26339851 
   58900   -675.70461    39.499658   -636.20495    1198.3634   -4266.3259    9.4315646   0.25494151 
   59000   -680.53387    40.639881   -639.89399    1232.9561     7456.149    9.6470642   0.20405851 
   59100   -682.29521    41.321122   -640.97409     1253.624   -1022.3848    9.5905212   0.21291888 
   59200   -680.54652    40.890511   -639.65601    1240.5598   -3068.1273    9.5366403   0.22264382 
   59300   -676.18795    42.850359   -633.33759    1300.0188    2736.5884    9.5249883   0.28198844 
   59400   -678.32225    41.889839   -636.43241     1270.878    2189.1792    9.5525497   0.22263223 
   59500   -682.36822    41.584473   -640.78375    1261.6137    -30.36454    9.5994206   0.19770303 
   59600   -682.34541    45.284221   -637.06119    1373.8587   -4130.2169    9.5465699   0.22050699 
   59700   -676.23973     43.38358   -632.85615     1316.196    -173.1978    9.4957483   0.25243529 
   59800   -676.58388    37.052046   -639.53183    1124.1063   -1276.7886    9.5004078   0.24879001 
   59900   -681.17327    40.890806   -640.28247    1240.5688   -7480.9902    9.4980586   0.21121248 
   60000   -676.25461    41.321655   -634.93295    1253.6401     6246.692    9.5435287   0.21976555 
   60100   -676.44947    40.118243   -636.33122    1217.1303   -782.27254    9.4842944    0.2699468 
   60200   -678.32386     38.35521   -639.96865    1163.6424   -8521.3081    9.4511202   0.23141945 
   60300   -680.01233    38.829434    -641.1829    1178.0297    8825.4743    9.6645767   0.23174918 
   60400   -677.97536    44.119885   -633.85548    1338.5344    8166.3064    9.6122475   0.24962494 
   60500   -676.94855     42.25666   -634.69189    1282.0069   -7916.0221    9.4186198   0.25323715 
   60600   -680.30953    40.729528      -639.58    1235.6758   -4940.5743    9.5267074   0.22773274 
   60700    -680.7358    40.672561   -640.06324    1233.9475    5130.4029    9.6413314    0.2113373 
   60800   -680.04856    44.217223   -635.83133    1341.4875     6787.937    9.6423238   0.21403546 
   60900   -678.11204    44.758463   -633.35357     1357.908   -6657.2727    9.4562196   0.26694242 
   61000   -677.99328    38.893156   -639.10013    1179.9629    2350.9621    9.5670239   0.25375182 
   61100   -678.65185    38.959134   -639.69272    1181.9646     2253.871    9.5797524   0.25209624 
   61200   -673.30482    40.921485   -632.38334    1241.4995   -3744.8852    9.3995519   0.30431806 
   61300   -677.45439    40.983845   -636.47054    1243.3915   -8833.0947    9.4179619   0.26998216 
   61400   -677.71296    38.269666   -639.44329    1161.0471   -2799.9569    9.5186924   0.23090904 
   61500   -677.49132    37.908079   -639.58324    1150.0771    6739.4497    9.6027563   0.25569575 
   61600   -674.16849     42.29253   -631.87596    1283.0951   -6655.3018    9.3722957   0.29946634 
   61700   -676.39581    40.628324   -635.76748    1232.6055   -7192.8374    9.4148916   0.27673891 
   61800    -680.9754    39.757146   -641.21825    1206.1752    2154.2342    9.6005702   0.19307156 
   61900   -681.92323    42.952262   -638.97097    1303.1104    9607.1387    9.6973976    0.1903694 
   62000   -673.10412    39.863229   -633.24089    1209.3936   -862.95347    9.4435894   0.29638405 
   62100   -675.13102     41.43739   -633.69363    1257.1514   -2907.3856    9.4454118   0.28620475 
   62200   -681.24007    41.334789   -639.90528    1254.0386    785.83798    9.5970056   0.21853622 
   62300   -681.19252    41.688286   -639.50423    1264.7632   -1811.0939    9.5582265   0.21415306 
   62400    -671.8919    40.111949   -631.77995    1216.9394   -2650.3296    9.4015748    0.3014012 
   62500   -675.12618    41.004626   -634.12155    1244.0219    3190.6276    9.5197392    0.2512491 
   62600   -682.65297    43.513132   -639.13984    1320.1264     4087.706    9.6404021   0.20778817 
   62700   -681.88959    42.375883   -639.51371    1285.6239     2431.862    9.6224001   0.20108117 
   62800   -675.23417    38.801609   -636.43256    1177.1855    -2727.477    9.4499184   0.27120741 
   62900   -671.86773    40.018474   -631.84926    1214.1035    50.611937    9.4269208   0.28915133 
   63000   -677.62303    40.877384   -636.74564    1240.1616    8343.1599     9.627044   0.25126582 
   63100    -683.3798    43.496732   -639.88307    1319.6289    677.22549      9.61874    0.1996467 
   63200   -682.65948     39.70391   -642.95557    1204.5601    2539.7969    9.6526742   0.21476019 
   63300   -677.73654    42.011844    -635.7247    1274.5795   -7926.0016    9.4329547   0.25471759 
   63400   -675.49807    37.858583   -637.63949    1148.5755   -1276.8635    9.4743599   0.26702586 
   63500   -682.32726    39.927944   -642.39931    1211.3569   -7621.2875    9.5247417   0.24213568 
   63600   -681.67169    43.967588    -637.7041     1333.914   -2048.4045    9.5644075   0.22248129 
   63700   -676.41089    41.250524   -635.16037    1251.4821   -95.830488    9.5110814   0.24004412 
   63800   -680.47961    40.516118   -639.96349    1229.2013    1896.5328    9.5992678   0.20960962 
   63900   -679.31101    38.104833   -641.20618    1156.0463    1181.2117    9.5680097   0.23588356 
   64000   -674.64901    41.013571   -633.63544    1244.2933   -14051.887    9.3120757    0.2776436 
   64100   -674.41307     38.47605   -635.93702    1167.3085    4434.6811    9.5253353   0.28245957 
   64200   -678.12615    38.552445   -639.57371    1169.6263     9969.431    9.6554486   0.20239607 
   64300   -683.95406    40.582382   -643.37168    1231.2116     1909.212     9.650846   0.18518831 
   64400   -675.66589    39.309542   -636.35635    1192.5955   -3957.9647    9.4529392   0.24219321 
   64500   -678.76368     41.46117   -637.30251    1257.8728   -1278.7203    9.5288001   0.20121314 
   64600   -681.79395    40.151238   -641.64271    1218.1314    5064.6192    9.6653559   0.20066978 
   64700     -675.924    39.799105    -636.1249    1207.4481     5811.615    9.5495552   0.22749736 
   64800   -677.66306    42.409996   -635.25307    1286.6588   -3422.0213    9.4693993   0.23626603 
   64900    -678.5303    37.125702   -641.40459    1126.3409    4566.1455    9.5895459   0.24218859 
   65000   -679.09739     40.70113   -638.39626    1234.8143   -3550.0683    9.5094347   0.23185329 
   65100   -678.77559    46.486842   -632.28874    1410.3446   -2792.7018     9.492985    0.2257729 
   65200   -680.12739    39.773177   -640.35421    1206.6615    10671.577    9.7000256   0.20227188 
   65300   -680.43625    40.925592   -639.51065    1241.6242   -2560.9982    9.5460211     0.187112 
   65400   -679.37363    43.181101   -636.19253    1310.0531   -11868.566    9.4395685   0.24887231 
   65500   -672.82972    40.909833   -631.91989     1241.146    806.14615    9.4626407   0.29501897 
   65600   -678.49504    39.440407   -639.05464    1196.5658    10569.415    9.6572124   0.21778562 
   65700   -680.85814      40.3271   -640.53104    1223.4668   -788.80279    9.5773338   0.22326213 
   65800   -676.24505    40.985722   -635.25933    1243.4484    -296.0402    9.4913332   0.29289108 
   65900   -675.29277    42.665991   -632.62678    1294.4254   -1593.4789    9.4583213   0.28515997 
   66000   -679.84981    40.426527   -639.42329    1226.4832    2181.0589    9.5876172   0.21413515 
   66100   -678.81251    40.138958   -638.67355    1217.7588    14930.739    9.7198362   0.21800208 
   66200   -676.47716    44.084404   -632.39275     1337.458   -2861.5995    9.4622468    0.2370769 
   66300   -678.85886    41.257965   -637.60089    1251.7079   -13263.909    9.3912132   0.27385407 
   66400   -680.25176    38.801073   -641.45069    1177.1693    752.34656    9.5803786    0.2201271 
   66500   -678.70345    39.321668   -639.38178    1192.9634    6453.0616    9.6028356   0.22395916 
   66600   -675.60175    41.508526   -634.09322    1259.3095   -9535.1499    9.3959352   0.28044118 
   66700   -679.04563    39.918926    -639.1267    1211.0833   -2581.5191    9.5178384   0.25328333 
   66800   -681.51005    41.925346   -639.58471    1271.9553    2445.5834    9.6098398   0.23533613 
   66900   -675.49336    41.924195   -633.56916    1271.9203   -4979.1862    9.4192505   0.25084579 
   67000   -676.73877    37.781061   -638.95771    1146.2236   -2658.7261    9.4821751   0.24794344 
   67100   -679.06664    38.590605   -640.47603     1170.784    4938.5311    9.6158574   0.20215918 
   67200   -677.25065    40.692718   -636.55793    1234.5591   -1233.6635     9.516022   0.23503485 
   67300   -672.11796    39.882507   -632.23545    1209.9784   -4741.7513    9.3613474   0.30454378 
   67400   -677.29134    37.956266   -639.33508     1151.539   -8589.2626    9.4334846   0.25877219 
   67500   -680.59159    40.981146   -639.61044    1243.3096    3233.4688    9.6119952   0.21303291 
   67600   -680.30231    42.865448   -637.43686    1300.4766    2354.1445    9.5883357   0.21822679 
   67700   -671.69168    41.035995   -630.65568    1244.9736    8411.7964    9.5132034   0.27518599 
   67800   -680.48115    42.371377   -638.10977    1285.4872   -4717.2215    9.5091176   0.21959534 
   67900   -680.18406    40.120188   -640.06387    1217.1893   -3019.8195    9.5319962    0.2313261 
   68000   -678.20775    40.529814   -637.67794    1229.6168   -791.90755     9.524364   0.27354336 
   68100   -673.59087    41.856856   -631.73401    1269.8774    -1725.157    9.4410538   0.28321796 
   68200   -679.12304     39.10226   -640.02078    1186.3069    531.00879    9.5496668   0.20815062 
   68300   -676.96087    37.736469    -639.2244    1144.8707    6252.3093    9.5788323   0.20405014 
   68400   -678.55447    40.076455   -638.47801    1215.8626     -4267.57    9.4888704   0.23479452 
   68500   -680.17121    35.695013    -644.4762    1082.9358   -812.84463     9.581723   0.21792628 
   68600   -684.23958    39.936231   -644.30335    1211.6083    4110.1214    9.6789467   0.19141273 
   68700   -679.84925    41.084811   -638.76444    1246.4546   -5833.4749    9.5047481   0.24158243 
   68800    -677.7514    39.813837   -637.93757    1207.8951   -5080.1395    9.4664195   0.25127804 
   68900    -677.0073    36.536742   -640.47056    1108.4727   -2464.9016    9.4869611   0.22925042 
   69000   -680.59542    35.357647   -645.23777    1072.7006    548.40852    9.6108925   0.20709324 
   69100   -679.74263    41.204037    -638.5386    1250.0718    4133.1738    9.6097167   0.21488734 
   69200   -679.09427      41.6985   -637.39577    1265.0731    8607.0225     9.644866   0.21097216 
   69300   -680.96819    37.885674   -643.08251    1149.3974   -6562.2633    9.5133154   0.27102615 
   69400   -680.35502    41.166437   -639.18859     1248.931   -4694.5305    9.5147477   0.21002823 
   69500   -677.45268    42.751353   -634.70133    1297.0151    12266.769    9.6419263   0.20202438 
   69600   -682.77871    42.226556   -640.55216    1281.0935    3191.0445    9.6459557   0.18527975 
   69700   -683.72147    40.827655   -642.89381    1238.6529   -5761.6804    9.5686157   0.19570439 
   69800   -675.57601    39.382569   -636.19344     1194.811   -225.47661    9.4845455   0.29069011 
   69900   -677.75747    43.057464   -634.70001    1306.3021   -1845.8043    9.5100452   0.25818717 
   70000   -679.59578    38.229289   -641.36649    1159.8222    4292.9086    9.6129257   0.22774998 
   70100   -679.58471    40.512299   -639.07241    1229.0854   -1830.8623    9.5468729    0.2292769 
   70200   -673.88207     41.23116   -632.65091    1250.8947   -449.00287    9.4430532   0.27286917 
   70300    -675.8371    41.508181   -634.32891    1259.2991    4421.2836    9.5371894   0.24316866 
   70400   -680.42467     41.39691   -639.02776    1255.9233    647.00375    9.5867327   0.23042024 
   70500   -676.50808    38.726695   -637.78139    1174.9127   -2604.8869    9.4588224   0.26194889 
   70600    -672.4829    37.246038   -635.23686    1129.9917   -5701.0092    9.3710765   0.28465924 
   70700   -677.88239    35.660596   -642.22179    1081.8917    277.16238    9.5541451   0.21984229 
   70800   -680.37147    41.336402   -639.03506    1254.0876    5251.5636    9.6265069   0.20735895 
   70900   -677.66944    42.337568   -635.33187    1284.4615   -5884.9424      9.45924   0.27231219 
   71000   -680.53779    39.695569   -640.84222     1204.307   -5504.4371    9.5020566   0.23720726 
   71100   -679.24659    36.488725   -642.75787    1107.0159   -1935.9815    9.5489589     0.208922 
   71200   -675.74418    39.251879    -636.4923    1190.8461    5139.9373    9.5502333   0.24235319 
   71300   -675.78055    40.833663   -634.94689    1238.8351    1777.5263    9.4970566   0.24409719 
   71400   -680.81162    38.457656   -642.35396    1166.7505   -404.57008    9.5825897   0.22213982 
   71500   -678.41299    39.985845   -638.42715    1213.1136    1137.8903    9.5388871   0.22922833 
   71600   -677.26683    40.721798   -636.54503    1235.4413    680.57437    9.5289155   0.24686228 
   71700   -683.46325    40.323565   -643.13968    1223.3595    6036.5856     9.695918   0.18274376 
   71800   -684.66092    42.397111   -642.26381    1286.2679    7086.3122    9.7200053   0.16992501 
   71900   -678.37698    40.310943   -638.06604    1222.9766   -4150.6903    9.4822425   0.24400311 
   72000    -678.5801    41.738702    -636.8414    1266.2928   -6874.3072    9.4410481   0.25755759 
   72100   -682.99869    38.417207   -644.58148    1165.5233   -2397.9121    9.6123242   0.20940085 
   72200   -680.30952    38.896522   -641.41299    1180.0651    6896.3949    9.6498639   0.22734656 
   72300   -676.99103    39.746724   -637.24431     1205.859    2792.7981    9.5478732   0.24987716 
   72400   -678.34221    38.824967   -639.51725    1177.8942   -185.17928    9.5291117   0.23753704 
   72500   -682.15336    36.664356     -645.489    1112.3443    3675.7287    9.6524847   0.19156038 
   72600   -677.25949    39.456466   -637.80302     1197.053    277.71683    9.5242276   0.23440171 
   72700    -677.2229    39.843343   -637.37956    1208.7903    2211.1785    9.5501389   0.23002992 
   72800   -677.26669    38.219253   -639.04744    1159.5177    1022.7758    9.5356683   0.24361474 
   72900   -685.09555    39.227496   -645.86805    1190.1063   -3527.7566    9.6170878   0.18245227 
   73000   -683.18105    38.844306   -644.33674    1178.4809    298.94968    9.6300371   0.22129826 
   73100   -681.33906    41.488986   -639.85008    1258.7167   -4982.8421    9.5191353    0.2313382 
   73200   -676.27613     38.39985   -637.87628    1164.9967    3445.0067    9.5469677    0.2493612 
   73300   -674.65948    40.819251   -633.84023    1238.3979     2178.142    9.5063295   0.25774885 
   73400   -681.33623    39.605718   -641.73052    1201.5811   -7618.1113    9.5168544   0.21550536 
   73500   -680.02538    39.020084   -641.00529    1183.8138    -937.6198    9.5633127   0.24682449 
   73600   -679.45678    42.314243   -637.14254    1283.7538    454.73524    9.5545884   0.21069686 
   73700   -682.82177    43.068417   -639.75335    1306.6344   -2833.2523    9.5842189   0.19871771 
   73800   -683.08976    37.319802   -645.76996    1132.2296    2433.4334    9.6508455   0.19359546 
   73900   -680.03382    40.958707   -639.07512    1242.6288    2338.2006    9.5926562   0.21472184 
   74000   -678.51164    40.666444    -637.8452     1233.762    165.87372    9.5433234   0.23458265 
   74100   -677.93949    38.253676   -639.68581     1160.562   -2441.4582    9.5036493   0.24960401 
   74200   -682.42794    35.535349   -646.89259    1078.0918   -5412.6817    9.5645972   0.21588552 
   74300   -679.19547    38.817095   -640.37837    1177.6554   -1733.7222    9.5353303   0.23170509 
   74400   -678.86929    40.742137   -638.12716    1236.0584    729.86736    9.5453033   0.19863554 
   74500   -682.10417    39.545178     -642.559    1199.7444    2071.8372    9.6206755   0.19063303 
   74600   -684.31617    41.286273    -643.0299    1252.5667   -3072.7684    9.6084345   0.18761343 
   74700   -677.78459    40.862576   -636.92202    1239.7123    2695.7339    9.5511585    0.2474405 
   74800   -676.93781    40.439804   -636.49801     1226.886   -1720.3678    9.4988531   0.26559312 
   74900   -681.66193    38.111643   -643.55029    1156.2529   -7321.0394    9.5106929    0.2333767 
   75000   -675.97901    36.297636   -639.68137    1101.2186    1157.1998    9.5071839   0.26009291 
   75100   -679.04961    42.183582   -636.86603    1279.7898   -5025.3505    9.4952459    0.2247575 
   75200   -679.16198    38.959723   -640.20225    1181.9825    9318.7552    9.6575142   0.21015623 
   75300   -680.37195    40.303067   -640.06888    1222.7376    936.51381    9.5808398   0.22235185 
   75400   -674.97136     42.87667   -632.09469    1300.8171   -9479.3845     9.373211   0.31212256 
   75500   -678.94688    40.601997   -638.34488    1231.8067    1735.0392     9.573535    0.2267679 
   75600   -681.52426    42.152526   -639.37173    1278.8476    3968.4324    9.6288602   0.20434486 
   75700   -676.35091    40.374806    -635.9761    1224.9141    4408.8042    9.5577182    0.2298276 
   75800   -675.84085    42.825449    -633.0154    1299.2631   -9432.7987    9.3783682   0.26211266 
   75900   -679.48857    38.708588   -640.77998    1174.3634   -2174.3972    9.5269643   0.22473929 
   76000   -679.81411    42.480449   -637.33366    1288.7963    4744.9235     9.605351    0.2098568 
   76100   -676.67498    42.672667   -634.00231    1294.6279    223.43786     9.509885   0.27225596 
   76200   -673.44603    43.615202   -629.83083    1323.2231    437.06596    9.4571766    0.2907356 
   76300   -680.05919    41.436773   -638.62242    1257.1327    10288.098    9.6766143   0.20951046 
   76400   -679.59378    40.936739   -638.65704    1241.9623   -1793.3205    9.5396358   0.23121376 
   76500   -677.64283    40.975671   -636.66716    1243.1435   -16886.784    9.3342929   0.27269309 
   76600   -676.15698    40.907294   -635.24969     1241.069   -4820.3327    9.4499135   0.28191629 
   76700   -683.38797    40.235774    -643.1522    1220.6961    9531.2374    9.7303537   0.19198192 
   76800   -682.03103    41.343708   -640.68732    1254.3092     -4906.36    9.5435735   0.23813877 
   76900   -677.67897    41.064367    -636.6146    1245.8344   -1994.2579    9.4929267   0.23718655 
   77000   -682.46124    43.927109   -638.53413    1332.6859    2501.4761    9.6292876   0.21367271 
   77100   -681.86013    36.973985   -644.88614     1121.738    9321.8168    9.7135135   0.18276004 
   77200   -683.88265    38.898178   -644.98448    1180.1153    -7292.988    9.5650864   0.19374016 
   77300   -678.14104    38.238115   -639.90293    1160.0899    8331.9397    9.6266137   0.21053826 
   77400   -680.20583    43.454181   -636.75165    1318.3379   -1575.7574    9.5537162   0.20327377 
   77500   -679.57147    39.215123   -640.35635     1189.731   -1019.2467    9.5340859   0.21926383 
   77600   -681.87848    38.112388   -643.76609    1156.2756   -9447.4438    9.4857264   0.23831385 
   77700   -679.46878    41.121932   -638.34685    1247.5808    -3469.214    9.5063508   0.23785537 
   77800    -679.0584    41.602737   -637.45566    1262.1678    3564.6673    9.5784246   0.20925843 
   77900   -684.70832    40.844604   -643.86372    1239.1671    3718.6784    9.6779867   0.18160958 
   78000   -681.98823    39.443103   -642.54513    1196.6475     1108.821    9.6012366   0.21709296 
[...]
  481400   -681.05352    39.849237   -641.20428    1208.9691   -5250.1856     9.535513   0.20905312 
  481500   -681.92066     40.48079   -641.43987    1228.1295    13638.797    9.7502143    0.1834513 
  481600   -676.46864     42.16565   -634.30299    1279.2458    636.83305    9.5171593   0.22013303 
  481700   -679.20505    41.013804   -638.19125    1244.3004   -2960.0139    9.5127118   0.20757656 
  481800   -678.57585    36.667273   -641.90858    1112.4328     3607.071    9.5759854   0.21651181 
  481900   -679.60271    42.002631   -637.60008       1274.3    -1057.313    9.5553935   0.23757855 
  482000   -674.66717    39.600284   -635.06689    1201.4162    5697.1608    9.5145284   0.27183251 
  482100   -681.38231      40.2031   -641.17921    1219.7048   -7481.4107    9.5022945   0.22105761 
  482200   -680.79411    39.317323   -641.47679    1192.8316   -9850.2387    9.4766918   0.21195988 
  482300   -678.01928    43.061993   -634.95729    1306.4395    3044.0037    9.5562827   0.22450299 
  482400   -680.51461     43.11047   -637.40414    1307.9102    8037.3076    9.6555087     0.209398 
  482500   -681.60135    38.392809   -643.20854    1164.7831   -1695.3508    9.5900384   0.21594946 
  482600   -680.84674    42.135707   -638.71104    1278.3373   -11088.077    9.4439754   0.27723762 
  482700   -675.32795     40.79941   -634.52854     1237.796     4492.137      9.54345    0.2497629 
  482800   -679.20459    38.446819   -640.75777    1166.4217    269.00389      9.55579   0.24026106 
  482900   -677.05429    37.846689    -639.2076    1148.2146    4819.3322    9.5660216   0.24002156 
  483000   -671.27624    37.383659   -633.89258     1134.167   -3116.9424    9.3885811   0.32753449 
  483100   -678.79662    38.920337   -639.87628    1180.7876   -6637.4614    9.4833875    0.2454188 
  483200   -680.80267    39.784936   -641.01773    1207.0183    12302.008    9.7250796   0.18472596 
  483300   -679.06121    42.715817   -636.34539     1295.937    5550.8574     9.605348    0.2401052 
  483400   -674.18971    40.342588   -633.84712    1223.9366    3.5755348    9.4491575   0.27684174 
  483500    -681.0387    40.446448   -640.59225    1227.0876   -8623.1266     9.492341   0.22994591 
  483600   -681.41918     39.79652   -641.62266    1207.3697    2210.9927    9.6127696   0.20820341 
  483700   -677.46874    42.884931   -634.58381    1301.0677     5945.774    9.5902602   0.22483813 
  483800   -678.80447    39.783556   -639.02091    1206.9764    10159.756    9.6622143   0.19832896 
  483900   -679.10402    37.288116    -641.8159    1131.2683   -2121.8282    9.5353779   0.23995416 
  484000    -674.9585     39.34044   -635.61806    1193.5329   -5584.5005    9.4183122   0.27600206 
  484100   -678.06276    40.747348   -637.31541    1236.2165    2314.8008    9.5395148   0.28308333 
  484200   -684.43942    41.398015    -643.0414    1255.9568    1712.2527    9.6539816   0.19471826 
  484300   -678.91273    40.795987   -638.11675    1237.6921    5421.7907    9.6141439   0.21309636 
  484400   -678.54975    42.562021   -635.98773    1291.2711    92.184518    9.5322474   0.21462934 
  484500   -679.68253     38.67784   -641.00469    1173.4306     1580.142    9.5768422   0.21083491 
  484600   -678.75723    39.108859   -639.64837    1186.5071   -1487.1779    9.5416547   0.21388143 
  484700   -677.65079    44.027811   -633.62298    1335.7411   -1489.0184     9.498891   0.24197984 
  484800   -680.95746    42.539903   -638.41756       1290.6    2211.2777    9.6059273   0.23440594 
  484900   -684.12014    42.423577   -641.69657    1287.0709    3559.1852     9.682127   0.20352453 
  485000   -676.79345    40.255611   -636.53784    1221.2979    2809.3698    9.5368824   0.22153607 
  485100    -674.0111    40.942071   -633.06903    1242.1241   -8966.1484    9.3556793   0.27633993 
  485200   -677.20811    37.778807    -639.4293    1146.1552    -1997.632    9.4986929   0.23491182 
  485300   -678.36735    38.742625   -639.62473     1175.396    8817.6915    9.6360619   0.23403351 
  485400   -678.88803    45.178653   -633.70937     1370.656    2263.9508    9.5532497   0.23001827 
  485500   -680.43887     42.67877    -637.7601    1294.8131    1956.2924    9.5707166   0.23517604 
  485600      -681.73    38.505418   -643.22458    1168.1995   -2324.9968    9.5772477   0.22531164 
  485700   -674.81106    38.574763    -636.2363    1170.3034   -1547.9058    9.4761177   0.26675901 
  485800   -677.79172    41.952481   -635.83924    1272.7785   -1823.7631      9.50205   0.24897212 
  485900   -684.38867    41.989363   -642.39931    1273.8974    10250.992    9.7522328   0.17378912 
  486000   -680.64506    41.072275   -639.57278    1246.0743    3871.3578    9.6086373   0.20316426 
  486100   -676.51966    39.662669     -636.857    1203.3089   -3740.6887    9.4573759   0.25463119 
  486200    -678.3393    38.641596   -639.69771     1172.331   -6112.4087      9.47642   0.22984335 
  486300   -686.04528    41.640232   -644.40504    1263.3053    3517.0107    9.6930998   0.17812034 
  486400   -677.83559     39.62998   -638.20561    1202.3171    53.266508    9.5380252   0.22067446 
  486500   -676.39482    38.425222   -637.96959    1165.7665   -5560.2771    9.4484869   0.24449888 
  486600   -682.04813    38.295281   -643.75285    1161.8243   -2481.2794    9.5965675   0.21129653 
  486700   -680.95156    40.502077   -640.44949    1228.7753    6881.4389    9.6635483    0.1790591 
  486800   -675.95143    39.948281   -636.00315    1211.9739   -757.42996    9.4974773   0.25848757 
  486900   -676.73188    40.094886   -636.63699    1216.4217     4945.164    9.5536628   0.25255488 
  487000    -684.7722    41.008801    -643.7634    1244.1486    5413.9643    9.7105916   0.18796057 
  487100   -679.11828    39.423406   -639.69487      1196.05    2739.8096    9.5902645   0.20526955 
  487200   -678.04275    40.614043   -637.42871    1232.1722    1602.9738    9.5442885    0.2155279 
  487300   -683.04253    40.893592   -642.14894    1240.6533   -10832.258    9.5086037   0.21533499 
  487400   -682.59796    37.611358   -644.98661     1141.075    3728.6612    9.6564214   0.18476595 
  487500   -678.39741    40.248306   -638.14911    1221.0763   -390.21868    9.5210795   0.24355749 
  487600   -679.78372    41.607045   -638.17668    1262.2985   -2170.5466    9.5141639   0.21992919 
  487700   -680.75259    36.753385    -643.9992    1115.0453    2553.9576    9.6134119   0.19313119 
  487800   -678.13782    40.402057   -637.73577    1225.7408    5265.1744    9.5999929   0.20627549 
  487900   -675.27392    38.898514    -636.3754    1180.1255    11442.218    9.6164546   0.23367395 
  488000   -677.79899     36.34008    -641.4589    1102.5063   -12144.213     9.417626    0.2756007 
  488100   -676.63912    37.787024    -638.8521    1146.4045   -914.16336    9.4991453   0.26228257 
  488200   -674.32658    41.757011   -632.56957    1266.8482    2606.4488     9.489226   0.27373529 
  488300   -678.02986    39.811427   -638.21843     1207.822    2804.8946     9.565166   0.23804498 
  488400   -680.71344    39.682101   -641.03134    1203.8984    -2237.058    9.5546343   0.22845721 
  488500    -677.1847    42.657064   -634.52764    1294.1545   -2910.3914    9.4830432   0.26144893 
  488600   -676.06613    38.985905   -637.08022    1182.7768   -369.30322    9.4931585    0.2412284 
  488700   -679.69924    37.631009   -642.06823    1141.6712   -8280.7036    9.4785418   0.24408271 
  488800   -677.63241     39.96029   -637.67212    1212.3383    10768.958    9.6482584   0.22742199 
  488900   -680.13967    42.394689   -637.74498    1286.1945   -2406.0488    9.5322033   0.22291828 
  489000   -682.41888    39.263389   -643.15549    1191.1953   -1544.7005    9.5839266   0.23155161 
  489100   -676.97783    40.971762   -636.00606    1243.0249   -1189.5891    9.4891727   0.25228638 
  489200   -679.12266    41.891547   -637.23111    1270.9298   -256.57333    9.5404898   0.22839364 
  489300   -679.91612      39.4617   -640.45442    1197.2117    2486.0199    9.5946755   0.22790402 
  489400   -675.48111    40.018888   -635.46222    1214.1161    2989.0897    9.5253313   0.29814873 
  489500   -675.38942    43.149694   -632.23973    1309.1002     6174.235    9.5397996   0.23233683 
  489600   -680.21312    42.430624    -637.7825    1287.2847   -1129.1033    9.5542587   0.21596173 
  489700   -678.73105    38.630211   -640.10084    1171.9856    2977.1049     9.578191   0.21465032 
  489800    -678.8735    41.622298    -637.2512    1262.7612   -829.58773    9.5321579   0.23863937 
  489900    -673.6004    40.714633   -632.88577    1235.2239   -6523.9876    9.3940209   0.28036633 
  490000   -676.08347    37.651347   -638.43212    1142.2882   -9428.5903     9.397876   0.28453142 
  490100   -679.52829     39.73525   -639.79304    1205.5109   -3822.6087    9.5133344   0.25104884 
  490200   -677.71567    40.992117   -636.72356    1243.6424    5264.7879    9.5755654   0.24426475 
  490300   -669.99403    40.015353   -629.97867    1214.0088    5009.8095    9.4517001   0.29918391 
  490400   -676.90364    38.876606   -638.02704    1179.4608   -1658.1364    9.5000017   0.24229254 
  490500   -679.99383    39.804206   -640.18963    1207.6029   -11633.299     9.435206   0.21144024 
  490600   -680.08299    41.879235   -638.20376    1270.5563    6759.9455    9.6372091   0.20411571 
  490700   -675.70054    44.966035    -630.7345    1364.2054    877.03593    9.5017389   0.26153025 
  490800   -677.72949    41.652205   -636.07728    1263.6686   -1509.0097    9.5238432   0.26069397 
  490900    -681.0598    38.983443   -642.07635    1182.7021    2.5630233    9.5889356   0.21687229 
  491000   -679.73019    40.942494    -638.7877    1242.1369   -2928.1164    9.5302042    0.2347305 
  491100   -672.64533    39.138034    -633.5073    1187.3922    1550.3525    9.4640047   0.27059826 
  491200   -680.56132    40.021843   -640.53947    1214.2057    3190.4512    9.6071849    0.2019433 
  491300   -679.03165    39.392756   -639.63889    1195.1201   -394.64107    9.5495764    0.2557109 
  491400   -675.99099    40.232246   -635.75875     1220.589   -2500.3186    9.4728523   0.25614205 
  491500   -679.88059    39.249207   -640.63138     1190.765    6425.5677    9.6358696   0.21485373 
  491600   -681.14086    38.265328   -642.87553    1160.9155    2108.8548    9.6158679    0.1915383 
  491700   -679.03862    42.545659   -636.49296    1290.7747    2960.6765    9.5677403    0.2425001 
  491800    -676.2942    39.201955   -637.09224    1189.3315    645.72268    9.4979245   0.24408681 
  491900   -681.93897    36.878712   -645.06026    1118.8476   -3170.7005    9.5832078     0.180683 
  492000   -678.39803     36.82834   -641.56969    1117.3194    4883.2857    9.5999314   0.22017572 
  492100   -682.35156    44.157566   -638.19399    1339.6776    171.10477    9.5932604    0.2023307 
  492200   -680.83328    40.409947   -640.42333    1225.9802   -4679.8046    9.5252286   0.22875419 
  492300   -684.20476    37.873875   -646.33088    1149.0394   -8602.0252    9.5546619   0.20901333 
  492400   -678.89425    40.330146    -638.5641    1223.5592    4387.0103    9.5958468   0.21826219 
  492500   -678.67299    40.953184   -637.71981    1242.4613    6198.4349    9.6183897   0.23490319 
  492600   -680.51241    41.506101   -639.00631     1259.236   -9831.4345    9.4783874   0.23681954 
  492700   -681.92877     37.83792   -644.09085    1147.9486    1428.3808    9.6265635   0.21778092 
  492800   -680.70482    38.233236   -642.47158    1159.9419   -1017.3227    9.5758584   0.21524093 
  492900   -678.41805    39.498926   -638.91913    1198.3411   -1816.1345     9.513385   0.23565721 
  493000    -678.3959    42.418335   -635.97757    1286.9118    2886.4302    9.5718873   0.23540378 
  493100   -679.51909     41.87152   -637.64757    1270.3223    1180.2954    9.5664496   0.23095287 
  493200   -680.57753    38.042504   -642.53502    1154.1554   -5741.1195    9.5125228   0.23758502 
  493300   -678.26694    39.537612   -638.72933    1199.5148   -3238.9194    9.4868868   0.24336977 
  493400   -677.66655    41.895952    -635.7706    1271.0635   -6886.5208     9.432147    0.2482958 
  493500   -680.18686    40.463064    -639.7238    1227.5917   -4515.4047    9.5139288   0.24305755 
  493600   -682.77653    40.823981   -641.95255    1238.5414    1926.5732    9.6297272   0.18646144 
  493700   -680.16681    43.799825   -636.36698    1328.8243   -2640.1393    9.5306639   0.22881342 
  493800   -677.61529    40.572108   -637.04318    1230.8999    7054.8671    9.5967051   0.23665591 
  493900   -681.92999    38.338358   -643.59163    1163.1311   -2402.2225    9.5711642   0.20140006 
  494000   -677.72031    38.907998   -638.81232    1180.4132   -10296.032    9.4133241   0.23682994 
  494100   -676.26675    41.726407   -634.54034    1265.9197      3181.59    9.5223647   0.25975645 
  494200   -676.70684    39.712619   -636.99422    1204.8243    2752.7049    9.5370182    0.2622318 
  494300   -682.52125     41.48866   -641.03259    1258.7068   -4724.0956    9.5538792   0.21227217 
  494400   -675.63377    37.671272    -637.9625    1142.8927    3114.6977    9.5154975   0.21483695 
  494500   -672.34437    38.748784   -633.59558    1175.5829    783.67069    9.4513816   0.28297125 
  494600   -682.35919    41.219656   -641.13953    1250.5456   -1011.5492    9.6020206   0.22527085 
  494700   -679.33081    39.831628   -639.49918    1208.4348   -1064.3456    9.5322748   0.25795585 
  494800    -675.3371    40.830215   -634.50689    1238.7306    -2979.069    9.4348964   0.25356254 
  494900   -679.50945    40.264075   -639.24537    1221.5547   -2049.3431    9.5421792   0.22365122 
  495000   -682.79514    39.575118   -643.22002    1200.6527    11042.016    9.7330534   0.19063533 
  495100   -681.55014    45.426875   -636.12326    1378.1867   -2993.5849     9.543536   0.21525951 
  495200   -677.64655    40.378872   -637.26768    1225.0375     180.8957    9.5292731   0.23880991 
  495300   -680.94581     39.46881     -641.477    1197.4275    4907.2732    9.6418393   0.22683178 
  495400   -681.74185    41.742253    -639.9996    1266.4005    691.49854    9.6117548   0.21853358 
  495500   -673.32314     39.44913   -633.87401    1196.8304   -7995.9118    9.3489234   0.29524165 
  495600   -676.01333    38.756681   -637.25665    1175.8225    -2047.352    9.4742495   0.29097965 
  495700   -680.41987    40.484376    -639.9355    1228.2383      6608.74    9.6299401   0.21651389 
  495800   -683.18428    37.164325   -646.01995    1127.5127   -6172.6639    9.5539017   0.22371898 
  495900   -679.54793    40.544267   -639.00366    1230.0553   -3775.0688    9.5103637   0.22257066 
  496000   -679.61645     41.59612   -638.02033     1261.967     5281.838    9.6209136    0.2129394 
  496100   -679.78065    37.884175   -641.89647    1149.3519    1731.3387    9.5897161   0.23187299 
  496200   -682.96225    35.519453    -647.4428    1077.6096    2730.5654    9.6636325   0.17650069 
  496300   -680.76991    40.400626   -640.36928    1225.6974    1182.7302    9.5837795   0.20350057 
  496400   -675.55614    36.317374   -639.23877    1101.8174    1122.5267    9.5060423   0.22606796 
  496500   -677.76004    38.539814   -639.22022    1169.2431   -498.54995    9.5223507   0.21843011 
  496600   -680.33671      42.3211   -638.01561    1283.9619    9675.1419    9.6698539   0.21037103 
  496700   -684.57474    38.938978   -645.63576    1181.3531    4341.6421    9.6922937     0.168476 
  496800   -682.64833    37.447264   -645.20107    1136.0966    2800.3111    9.6528314   0.20156164 
  496900   -680.76309    39.062094     -641.701    1185.0883     1663.165    9.6008023   0.23245229 
  497000    -679.8955    40.911183   -638.98432     1241.187   -5408.8646    9.5128173   0.23245882 
  497100    -677.8103    42.396764   -635.41354    1286.2574   -10071.609    9.4103092   0.28264664 
  497200    -675.4822    41.402823   -634.07938    1256.1026    3326.3664    9.5179636   0.25846188 
  497300   -682.47492     42.04291   -640.43201     1275.522    1543.5056    9.6366701   0.20568968 
  497400   -681.38341    43.694696   -637.68872    1325.6348    2596.3049    9.6187306   0.19308875 
  497500   -677.18504    43.049089   -634.13595     1306.048   -8254.4334     9.425058   0.26029097 
  497600   -672.87744    41.958423   -630.91902    1272.9588    3157.9079    9.4663723   0.27435845 
  497700   -681.58757    43.063383   -638.52418    1306.4817    2400.1384    9.5992915   0.19029024 
  497800    -679.9698    40.325416   -639.64438    1223.4157    3729.2781    9.6109847   0.23190621 
  497900   -678.57306     42.83674   -635.73632    1299.6056   -2532.5095     9.520595   0.23028452 
  498000   -675.07715    43.807327   -631.26982    1329.0519    804.99778    9.4861141   0.27482056 
  498100   -680.95643    40.981567   -639.97486    1243.3224   -1943.8762    9.5623502   0.23598906 
  498200   -679.37637    39.122454   -640.25391    1186.9195   -4693.2145    9.5077585   0.22800352 
  498300   -675.83185    37.654195   -638.17765    1142.3746    3412.7663    9.5345788   0.23039648 
  498400   -675.53653    42.912289   -632.62424    1301.8977    2956.3435    9.5193925    0.2368045 
  498500   -680.35139    39.329476   -641.02192    1193.2003   -2263.2857    9.5420984   0.23123669 
  498600    -681.2147    40.069182   -641.14552    1215.6419   -9702.0834    9.4891841   0.23071064 
  498700   -676.88109    41.775396   -635.10569     1267.406    976.86121    9.5237166   0.23817862 
  498800   -674.37827    41.025382   -633.35288    1244.6516    10521.275    9.5857775   0.24936691 
  498900   -681.45751    41.663437   -639.79408    1264.0093   -8230.2087    9.4879285   0.22443326 
  499000   -678.69973    38.998018   -639.70171    1183.1443   -6558.0378    9.4776126   0.26252938 
  499100   -676.28768    42.344221   -633.94346    1284.6633    302.72824    9.4900805   0.28131338 
  499200   -679.98962    47.317834   -632.67179    1435.5557   -3670.8945    9.5244678   0.21981822 
  499300   -679.72503    42.229119   -637.49592    1281.1713    6493.8274    9.6292679   0.22128285 
  499400    -680.3464    41.106967   -639.23943    1247.1268   -9415.7322    9.4710871    0.2310619 
  499500   -677.72167     36.83283   -640.88884    1117.4556   -3976.4238    9.4913181   0.22439854 
  499600   -684.03338    36.349835   -647.68354    1102.8022    6333.5948    9.7232858   0.17929751 
  499700     -681.093    40.382629   -640.71037    1225.1514   -691.15349    9.5692299   0.20279409 
  499800    -678.7741    40.241314   -638.53279    1220.8641    961.37172    9.5604049   0.24264338 
  499900   -678.89988    42.724262   -636.17561    1296.1932   -1463.7974    9.5282538   0.27016503 
  500000   -672.39572    42.695165   -629.70055    1295.3105    632.93277    9.4255678   0.30793779 
Loop time of 351.814 on 1 procs for 500000 steps with 256 atoms

Performance: 613.961 ns/day, 0.039 hours/ns, 1421.205 timesteps/s
100.0% CPU use with 1 MPI tasks x no OpenMP threads

MPI task timing breakdown:
Section |  min time  |  avg time  |  max time  |%varavg| %total
---------------------------------------------------------------
Pair    | 211.09     | 211.09     | 211.09     |   0.0 | 60.00
Neigh   | 13.632     | 13.632     | 13.632     |   0.0 |  3.87
Comm    | 3.8383     | 3.8383     | 3.8383     |   0.0 |  1.09
Output  | 0.15186    | 0.15186    | 0.15186    |   0.0 |  0.04
Modify  | 122.3      | 122.3      | 122.3      |   0.0 | 34.76
Other   |            | 0.8071     |            |       |  0.23

Nlocal:    256 ave 256 max 256 min
Histogram: 1 0 0 0 0 0 0 0 0 0
Nghost:    1431 ave 1431 max 1431 min
Histogram: 1 0 0 0 0 0 0 0 0 0
Neighs:    11501 ave 11501 max 11501 min
Histogram: 1 0 0 0 0 0 0 0 0 0

Total # of neighbors = 11501
Ave neighs/atom = 44.9258
Neighbor list builds = 24831
Dangerous builds = 0
Total wall time: 0:05:51
