LAMMPS (3 Mar 2020)

    # ---------- Initialize simulation ---------------------
    units metal
    atom_style atomic
    dimension  3
    boundary   p p p
    read_data /home/modeler/RemLabs/Lab4/Problem2A_size_3/temp_1050/lammps.data
  orthogonal box = (0 0 0) to (12.27 12.27 12.27)
  1 by 1 by 1 MPI processor grid
  reading atoms ...
  108 atoms
  read_data CPU = 0.000937337 secs

    pair_style eam
    pair_coeff * * /usr/share/lammps-stable/potentials/Ag_u3.eam
Reading potential file /usr/share/lammps-stable/potentials/Ag_u3.eam with DATE: 2007-06-11

    velocity  all create 1050 87287 dist gaussian

    # ---------- Describe computed properties------------------
    compute msdall all msd
    thermo_style custom step pe ke etotal temp press density c_msdall[4]
    thermo 100

    # ---------- Specify ensemble  ---------------------
    #fix  1 all nve
    fix  1 all nvt temp 1050 1050 0.05

    # --------- Compute RDF ---------------
    compute rdfall all rdf 100 1 1
    fix 2 all ave/time 1 2500 2500 c_rdfall[*] file /home/modeler/RemLabs/Lab4/Problem2A_size_3/temp_1050/lammps.rdf mode vector

    # --------- Run -------------
    timestep 0.001
    run 10000
Neighbor list info ...
  update every 1 steps, delay 10 steps, check yes
  max neighbors/atom: 2000, page size: 100000
  master list distance cutoff = 7.55
  ghost atom cutoff = 7.55
  binsize = 3.775, bins = 4 4 4
  2 neighbor lists, perpetual/occasional/extra = 1 1 0
  (1) pair eam, perpetual
      attributes: half, newton on
      pair build: half/bin/atomonly/newton
      stencil: half/bin/3d/newton
      bin: standard
  (2) compute rdf, occasional, copy from (1)
      attributes: half, newton on
      pair build: copy
      stencil: none
      bin: none
Per MPI rank memory allocation (min/avg/max) = 3.723 | 3.723 | 3.723 Mbytes
Step PotEng KinEng TotEng Temp Press Density c_msdall[4] 
       0       -307.8    14.522377   -293.27762         1050     8396.922    10.472245            0 
     100   -298.58439    8.9321511   -289.65224    645.81428    36422.514    10.472245  0.056839988 
     200   -295.79426    14.924089   -280.87017    1079.0446     49837.43    10.472245  0.064877522 
     300   -292.71881    18.226099   -274.49271    1317.7872    62136.615    10.472245  0.075197529 
     400   -293.51577    13.900512   -279.61526    1005.0378     56669.33    10.472245  0.080296952 
     500   -295.26181     16.22426   -279.03755    1173.0499    53551.948    10.472245   0.06132538 
     600   -293.70542    13.093226   -280.61219    946.66917    54816.851    10.472245  0.076866197 
     700   -292.66571    15.532535   -277.13317    1123.0367    61128.651    10.472245  0.079734514 
     800    -294.2454    15.008662   -279.23674    1085.1595    54927.131    10.472245  0.067625197 
     900   -292.94947    12.557652   -280.39182    907.94602    57800.392    10.472245  0.076601035 
    1000   -292.29191    14.404552   -277.88736    1041.4809      62181.2    10.472245   0.07219143 
    1100   -294.03022     13.89012    -280.1401    1004.2864    56313.308    10.472245  0.070629662 
    1200   -295.33227    12.496736   -282.83554    903.54167    50745.767    10.472245  0.068327751 
    1300   -293.18508    14.814237   -278.37084    1071.1021    59631.898    10.472245  0.067586797 
    1400   -294.32997     16.40826   -277.92171    1186.3535    57030.885    10.472245  0.064142433 
    1500   -293.74367    13.833162   -279.91051    1000.1682    56277.074    10.472245  0.080390658 
    1600   -293.31843    16.489875   -276.82856    1192.2544    59245.563    10.472245  0.079004232 
    1700   -292.63344    14.171246   -278.46219    1024.6124     58899.68    10.472245  0.077241016 
    1800   -294.26733    14.290824   -279.97651    1033.2582    54741.908    10.472245  0.073373257 
    1900   -292.45788    16.094409   -276.36347    1163.6614     60784.95    10.472245  0.076439438 
    2000   -293.12615    15.438201   -277.68795     1116.216    59812.451    10.472245  0.074614155 
    2100   -293.03686    13.107732   -279.92912      947.718    57780.396    10.472245  0.077538584 
    2200   -292.97993    14.755378   -278.22455    1066.8465    59232.586    10.472245  0.079732229 
    2300   -291.33654    16.350921   -274.98562    1182.2077    65756.171    10.472245  0.082999072 
    2400   -293.00563    13.817953   -279.18767     999.0686    58697.121    10.472245  0.079875472 
    2500     -293.344     13.19505   -280.14895    954.03127    57952.617    10.472245  0.076812966 
    2600   -295.24569    17.343896   -277.90179    1254.0021    52790.752    10.472245  0.063869101 
    2700   -294.26187    15.022266    -279.2396     1086.143    55323.599    10.472245  0.078123627 
    2800   -293.06169    15.418261   -277.64343    1114.7744    59669.295    10.472245  0.074077878 
    2900   -292.69983     13.30211   -279.39772    961.77198    60117.465    10.472245     0.073166 
    3000   -293.44571    12.858563   -280.58715    929.70252     57146.28    10.472245  0.075521981 
    3100   -292.49379    15.784682   -276.70911    1141.2675     61952.07    10.472245  0.077812489 
    3200   -292.94728    13.784747   -279.16254    996.66769    59878.235    10.472245  0.079813393 
    3300   -293.94144    14.782205   -279.15923    1068.7861     56940.35    10.472245  0.073078363 
    3400   -295.22396    15.452159    -279.7718    1117.2253    52871.389    10.472245  0.064189919 
    3500   -292.59451    16.235155   -276.35935    1173.8376    61332.319    10.472245  0.068476716 
    3600   -293.23258    14.818638   -278.41394    1071.4203    59412.097    10.472245  0.077691547 
    3700   -292.12139    13.167899   -278.95349    952.06822    60943.655    10.472245  0.083443208 
    3800   -293.36374    15.732555   -277.63118    1137.4985    59413.232    10.472245   0.07307575 
    3900   -294.92607    14.108552   -280.81752    1020.0795    53187.122    10.472245  0.073138903 
    4000   -292.52764    15.300707   -277.22693    1106.2749    60343.235    10.472245  0.076782889 
    4100    -293.9393     15.18384   -278.75546    1097.8252    56270.466    10.472245  0.072375393 
    4200   -293.38237    13.555884   -279.82649    980.12043    57789.187    10.472245  0.080316966 
    4300    -292.8448    14.590843   -278.25396    1054.9503    58867.334    10.472245  0.077070791 
    4400   -293.66271    15.868973   -277.79373    1147.3619    57415.959    10.472245  0.066599293 
    4500   -295.69361    14.925325   -280.76828     1079.134    50414.997    10.472245   0.05871563 
    4600   -294.54584     16.05105   -278.49479    1160.5264    54589.352    10.472245  0.064504959 
    4700   -293.22908    16.794335   -276.43474    1214.2675    60243.085    10.472245  0.075398789 
    4800   -292.96473    14.962204   -278.00252    1081.8005    59664.867    10.472245  0.080634516 
    4900   -293.93966    14.192532   -279.74713    1026.1515    56502.939    10.472245  0.069984299 
    5000    -295.6306     14.78313   -280.84747     1068.853    51277.774    10.472245  0.057363906 
    5100   -293.49579    14.976072   -278.51971    1082.8032    57969.815    10.472245   0.07609269 
    5200   -289.21874    16.212986   -273.00576    1172.2348    74822.297    10.472245  0.097564958 
    5300   -291.45819    13.294457   -278.16373    961.21866    63948.894    10.472245  0.090322985 
    5400   -294.55446    14.402382   -280.15208     1041.324    53636.324    10.472245  0.060090923 
    5500   -294.27923    13.081303   -281.19792    945.80717    53987.116    10.472245  0.062937864 
    5600   -292.89027    15.028762    -277.8615    1086.6127    59803.582    10.472245  0.071226613 
    5700   -292.22423    12.907931    -279.3163    933.27198    61248.617    10.472245  0.074232531 
    5800   -292.94024    12.949403   -279.99084     936.2705    59148.404    10.472245  0.074352316 
    5900   -293.04268    14.217645   -278.82503    1027.9672    58168.865    10.472245  0.076698763 
    6000   -292.33047    15.292182   -277.03829    1105.6586    61787.993    10.472245  0.084586811 
    6100   -295.80477    14.135975   -281.66879    1022.0623    50058.518    10.472245  0.064399613 
    6200   -294.22663    14.144894   -280.08174    1022.7071    54279.775    10.472245  0.069131592 
    6300   -291.90277    13.425454   -278.47731       970.69    61850.606    10.472245  0.088382219 
    6400   -293.08216    14.688742   -278.39341    1062.0285    59287.818    10.472245  0.083971608 
    6500   -293.45672    14.404451   -279.05226    1041.4737    57519.072    10.472245   0.08265884 
    6600    -293.2663    13.472883   -279.79342    974.11926    57040.983    10.472245  0.089348738 
    6700   -293.66619    15.896872   -277.76932     1149.379    57552.613    10.472245  0.080375192 
    6800   -292.42768    13.056514   -279.37117    944.01482    59708.815    10.472245   0.09323016 
    6900   -293.06542     15.21355   -277.85187    1099.9733    58665.337    10.472245  0.090329815 
    7000   -292.27981    14.232243   -278.04757    1029.0227     60559.19    10.472245  0.096711665 
    7100   -293.12151    14.148396   -278.97311    1022.9603    58531.979    10.472245  0.082910599 
    7200   -294.57267    11.441567    -283.1311    827.25061    51230.219    10.472245  0.075354599 
    7300   -292.07914      13.5676   -278.51154    980.96747     61559.36    10.472245  0.085900754 
    7400   -291.70715    15.093223   -276.61392    1091.2734     63886.02    10.472245  0.097065861 
    7500   -294.38348    13.903055   -280.48043    1005.2217    53689.455    10.472245  0.086196494 
    7600    -295.2004    16.228379   -278.97202    1173.3477     53561.18    10.472245  0.060716468 
    7700   -293.80478    12.889929   -280.91485     931.9704     54997.32    10.472245  0.082634663 
    7800   -294.11237    16.051421   -278.06095    1160.5532    55908.898    10.472245  0.084285879 
    7900   -293.91445    15.058433   -278.85601     1088.758    56198.866    10.472245   0.08347551 
    8000   -293.70069    17.354636   -276.34605    1254.7786     58357.36    10.472245  0.078746475 
    8100   -293.94069    16.007604   -277.93309    1157.3852    56457.653    10.472245  0.076665864 
    8200   -293.44675    13.884968   -279.56178    1003.9139    57359.488    10.472245  0.071325544 
    8300   -293.35166    14.550428   -278.80123    1052.0282    59088.326    10.472245  0.072290992 
    8400   -291.78947    16.323698   -275.46577    1180.2395    64769.541    10.472245  0.074246345 
    8500   -292.62837    12.891082   -279.73729    932.05371    59874.939    10.472245  0.079980444 
    8600   -292.74578    13.826931   -278.91884    999.71769    60381.169    10.472245  0.074400858 
    8700   -292.23386    14.401732   -277.83212    1041.2771    61258.038    10.472245  0.079692135 
    8800   -292.88667    12.641232   -280.24543    913.98903    59156.347    10.472245  0.080497181 
    8900   -293.13603    14.701686   -278.43434    1062.9644    59068.262    10.472245  0.067554071 
    9000    -291.9094    12.884641   -279.02476    931.58806    61677.667    10.472245  0.085676694 
    9100   -292.21647     13.66237    -278.5541     987.8196    60737.587    10.472245  0.086807521 
    9200   -293.40008    14.605785    -278.7943    1056.0305    59222.266    10.472245  0.070259149 
    9300   -292.69977    12.423215   -280.27656     898.2259    59395.081    10.472245  0.081827034 
    9400   -293.41302    15.375499   -278.03752    1111.6826     58459.75    10.472245  0.077925101 
    9500   -294.05215    14.314901   -279.73725     1034.999    56013.056    10.472245  0.079117281 
    9600   -293.30047    14.987914   -278.31256    1083.6594    58681.108    10.472245  0.079304668 
    9700   -291.78333    14.485016   -277.29831    1047.2987    63636.525    10.472245  0.086745233 
    9800   -294.04501    15.150065   -278.89494    1095.3832    54791.063    10.472245  0.075429766 
    9900   -295.68507    14.294251   -281.39082    1033.5059    50262.843    10.472245  0.061020756 
   10000   -293.13666    14.009363    -279.1273    1012.9079    58982.885    10.472245  0.077370471 
Loop time of 2.08995 on 1 procs for 10000 steps with 108 atoms

Performance: 413.408 ns/day, 0.058 hours/ns, 4784.811 timesteps/s
99.7% CPU use with 1 MPI tasks x no OpenMP threads

MPI task timing breakdown:
Section |  min time  |  avg time  |  max time  |%varavg| %total
---------------------------------------------------------------
Pair    | 1.3891     | 1.3891     | 1.3891     |   0.0 | 66.47
Neigh   | 0          | 0          | 0          |   0.0 |  0.00
Comm    | 0.041945   | 0.041945   | 0.041945   |   0.0 |  2.01
Output  | 0.001911   | 0.001911   | 0.001911   |   0.0 |  0.09
Modify  | 0.64714    | 0.64714    | 0.64714    |   0.0 | 30.96
Other   |            | 0.009825   |            |       |  0.47

Nlocal:    108 ave 108 max 108 min
Histogram: 1 0 0 0 0 0 0 0 0 0
Nghost:    990 ave 990 max 990 min
Histogram: 1 0 0 0 0 0 0 0 0 0
Neighs:    4644 ave 4644 max 4644 min
Histogram: 1 0 0 0 0 0 0 0 0 0

Total # of neighbors = 4644
Ave neighs/atom = 43
Neighbor list builds = 0
Dangerous builds = 0
    
Total wall time: 0:00:02
