LAMMPS (3 Mar 2020)
Reading data file ...
  orthogonal box = (0 0 0) to (17.469 17.469 17.469)
  1 by 1 by 1 MPI processor grid
  reading atoms ...
  217 atoms
  read_data CPU = 0.00103646 secs
Reading potential file library.meam with DATE: 2012-06-29
Reading potential file LiSi.meam with DATE: 2020-11-07
1 atoms in group Li
216 atoms in group Si
Neighbor list info ...
  update every 1 steps, delay 10 steps, check yes
  max neighbors/atom: 2000, page size: 100000
  master list distance cutoff = 6
  ghost atom cutoff = 6
  binsize = 3, bins = 6 6 6
  2 neighbor lists, perpetual/occasional/extra = 2 0 0
  (1) pair meam/c, perpetual
      attributes: full, newton on
      pair build: full/bin/atomonly
      stencil: full/bin/3d
      bin: standard
  (2) pair meam/c, perpetual, half/full from (1)
      attributes: half, newton on
      pair build: halffull/newton
      stencil: none
      bin: none
Setting up Verlet run ...
  Unit style    : metal
  Current step  : 0
  Time step     : 0.003
Per MPI rank memory allocation (min/avg/max) = 8.895 | 8.895 | 8.895 Mbytes
Step Temp E_pair E_mol TotEng Press Volume 
       0         1300   -951.04357            0   -914.74732   -116958.82    5330.9442 
    3200     1376.227   -957.64676            0   -919.22224    7848.2836    4536.3722 
Loop time of 2.35907 on 1 procs for 3200 steps with 217 atoms

Performance: 351.596 ns/day, 0.068 hours/ns, 1356.468 timesteps/s
100.0% CPU use with 1 MPI tasks x no OpenMP threads

MPI task timing breakdown:
Section |  min time  |  avg time  |  max time  |%varavg| %total
---------------------------------------------------------------
Pair    | 2.3035     | 2.3035     | 2.3035     |   0.0 | 97.65
Neigh   | 0.0077925  | 0.0077925  | 0.0077925  |   0.0 |  0.33
Comm    | 0.013599   | 0.013599   | 0.013599   |   0.0 |  0.58
Output  | 2.441e-05  | 2.441e-05  | 2.441e-05  |   0.0 |  0.00
Modify  | 0.029415   | 0.029415   | 0.029415   |   0.0 |  1.25
Other   |            | 0.00471    |            |       |  0.20

Nlocal:    217 ave 217 max 217 min
Histogram: 1 0 0 0 0 0 0 0 0 0
Nghost:    957 ave 957 max 957 min
Histogram: 1 0 0 0 0 0 0 0 0 0
Neighs:    4149 ave 4149 max 4149 min
Histogram: 1 0 0 0 0 0 0 0 0 0
FullNghs:  8298 ave 8298 max 8298 min
Histogram: 1 0 0 0 0 0 0 0 0 0

Total # of neighbors = 8298
Ave neighs/atom = 38.2396
Neighbor list builds = 13
Dangerous builds = 0
Setting up Verlet run ...
  Unit style    : metal
  Current step  : 3200
  Time step     : 0.003
Per MPI rank memory allocation (min/avg/max) = 9.667 | 9.667 | 9.667 Mbytes
Step PotEng KinEng TotEng Temp Press Density c_msdli[4] c_msdsi[4] 
    3200   -957.64676    38.424522   -919.22224     1376.227    7848.2836      2.22321            0 3.3767972e-32 
    3300   -960.36336    38.030657   -922.33271    1362.1202   -1618.7458    2.2040498    0.1687731  0.075582736 
    3400   -960.69089    34.911762   -925.77913    1250.4127   -8825.7499    2.1909378  0.046968192  0.090637111 
    3500   -954.17303    33.213038   -920.95999    1189.5706   -4776.1789    2.1864213  0.088050514  0.097142321 
    3600   -958.23737    37.914588   -920.32278     1357.963    540.64691    2.2063003   0.12693569  0.089754021 
    3700   -959.30318    32.456432   -926.84675    1162.4717    10559.889    2.2344636   0.13130221  0.084965999 
    3800   -958.06775    37.578934   -920.48881    1345.9411    4618.4828    2.2141858   0.21098682  0.083955776 
    3900   -956.34001    35.979223   -920.36079    1288.6453   -2028.1211    2.1956798   0.25388527  0.077321867 
    4000   -960.29652    35.249898   -925.04663    1262.5235   -8117.0639     2.190212   0.09859752   0.08329626 
    4100     -958.743    36.723225   -922.01978    1315.2927   -4061.7232    2.1974843   0.13101232  0.081704427 
    4200   -953.01215    34.351201   -918.66095    1230.3354    6643.5677    2.2102629   0.10029424  0.080751461 
    4300   -960.30425     37.81205    -922.4922    1354.2905    4943.3294    2.2227387   0.12901809  0.092285368 
    4400   -959.72751    35.576869   -924.15064    1274.2344      2543.93    2.2154955  0.047693705  0.078374561 
    4500   -954.60757    38.094568     -916.513    1364.4093   -6881.6078    2.1816209   0.17401063  0.094314381 
    4600   -957.22685    35.413688   -921.81316    1268.3899   -5952.9833    2.1896849  0.037628545   0.10349908 
    4700    -959.2044    36.444353   -922.76005    1305.3046   -1286.9817    2.2039616 0.0084300514  0.089415022 
    4800   -956.13858    40.111592   -916.02699    1436.6517    4136.5647     2.210499  0.090352223   0.10212903 
    4900   -959.22997     37.60397     -921.626    1346.8378     6752.981    2.2243128   0.18417326  0.086595947 
    5000   -957.94637    34.705701   -923.24067    1243.0324     927.7655     2.210931   0.13905489   0.10625812 
    5100   -955.51221    37.415714    -918.0965    1340.0952   -7044.2893    2.1842845  0.086971117  0.096037731 
    5200    -953.6846    33.181973   -920.50263    1188.4579   -5710.8287    2.1847886   0.14982819  0.095415793 
    5300   -960.77421    36.746225   -924.02799    1316.1165   -2916.2631    2.2053568   0.18319317  0.088607961 
    5400   -957.75929    38.759465   -918.99982    1388.2235      6934.35    2.2191117   0.20023045  0.079537509 
    5500   -957.70025    36.552251     -921.148    1309.1691    8418.7572    2.2244479   0.22549251   0.10083842 
    5600   -959.77357    34.354531   -925.41904    1230.4547    919.79352      2.21303   0.14331122   0.11105909 
    5700   -957.97963    37.832063   -920.14756    1355.0073   -7144.2672    2.1871588   0.13209998   0.10927891 
    5800   -958.40896    37.631675   -920.77728    1347.8301   -8334.0392     2.184478  0.081826262  0.094467107 
    5900   -961.01367    34.320639   -926.69303    1229.2408    715.99823    2.2139849   0.10405365  0.086887126 
    6000   -958.46757    38.639446   -919.82812    1383.9248    5087.5007    2.2198716    0.2084836  0.091222086 
    6100   -957.92765    37.376735   -920.55092    1338.6991    5509.9284    2.2193691   0.13163694  0.088135283 
    6200   -961.61491    35.731735   -925.88317    1279.7812   -826.56318    2.2121496   0.17039883  0.090105172 
    6300   -955.34016    36.207594   -919.13256    1296.8247   -5774.6789     2.186481   0.27610395   0.10391917 
    6400   -956.24228    36.235848   -920.00643    1297.8367    -3951.282    2.1904041  0.055138986  0.085892431 
    6500   -959.82441    36.080672   -923.74374    1292.2788    403.39404    2.2113077   0.13274411  0.096153074 
    6600   -959.29464    38.760229   -920.53441    1388.2508    5812.2935    2.2228221   0.08277589  0.098011653 
    6700   -955.79418    38.197432   -917.59674    1368.0935    5187.8133    2.2129197   0.24620911   0.10714496 
    6800   -958.07832    34.964901   -923.11341     1252.316   -2045.9499    2.2022341   0.10751763  0.095381081 
    6900   -955.90602    34.870231   -921.03579    1248.9252   -7422.7506     2.187019  0.047946434  0.095776831 
    7000    -952.8693    36.597312   -916.27199     1310.783   -4285.4772     2.183577 0.0046274753  0.098266225 
    7100   -959.60577    35.993918   -923.61185    1289.1716     2945.043    2.2175637   0.12042008  0.093289503 
    7200   -958.51315    37.310605   -921.20254    1336.3306    7920.7232    2.2274226   0.57609575  0.095910023 
    7300   -953.96254    37.214703   -916.74784    1332.8957    5111.7862    2.2101161   0.24104848  0.086578217 
    7400   -960.83668    36.578533   -924.25815    1310.1104   -3577.2242    2.2037282   0.10094009  0.083317916 
    7500   -958.22771    35.882241   -922.34546    1285.1718   -8902.7125    2.1840935   0.14585612  0.088229245 
    7600   -955.06083    36.280888   -918.77994    1299.4498   -5503.7967     2.186597   0.32641422  0.096712297 
    7700   -961.35602    35.799621    -925.5564    1282.2126    3050.8605     2.221691    0.0959423  0.090056848 
    7800   -961.02845    37.654896   -923.37356    1348.6618    5866.9833    2.2285173  0.097632035   0.10189315 
    7900   -958.01146    38.580852   -919.43061    1381.8262    3103.2046    2.2130754   0.17818646   0.10021872 
    8000   -958.79483    34.803885   -923.99095    1246.5489   -2616.4576    2.1994147   0.26118851  0.087626161 
    8100   -960.24973    34.891302   -925.35842    1249.6799   -7310.7955    2.1921156  0.080127743  0.089073343 
    8200   -957.72846    38.163477   -919.56498    1366.8774   -5734.1428    2.1901545  0.045169224  0.088552212 
    8300    -958.7153    36.503175   -922.21213    1307.4113    2994.7016    2.2106681  0.076027272  0.091650451 
    8400   -960.01591     34.84137   -925.17454    1247.8915      7206.37    2.2275509   0.37329202  0.094007501 
    8500   -957.06868     39.83671   -917.23197    1426.8065    1257.4787     2.203196   0.16053035  0.097360532 
    8600   -958.02879    37.157344   -920.87144    1330.8413   -2035.3185    2.1978601   0.22593444   0.10310172 
    8700    -958.4186    34.592498    -923.8261    1238.9778   -6578.0915    2.1906642    0.0249316   0.10209131 
    8800   -953.46296     36.12698   -917.33598    1293.9374   -4433.8345    2.1833471  0.066067414   0.10075774 
    8900     -956.947    37.927276   -919.01972    1358.4175    9209.5389    2.2249882   0.18320205    0.1089901 
    9000   -959.71065    38.056892   -921.65376    1363.0599    18658.505    2.2545574   0.41992845  0.098005831 
    9100   -956.43205    35.578724   -920.85333    1274.3009    6846.6266    2.2177363  0.019950393   0.10040073 
    9200   -954.90611     38.43082   -916.47529    1376.4526    -13135.42    2.1652511 0.00032017255   0.11137064 
    9300   -959.72607    35.328443   -924.39762    1265.3367   -12001.846    2.1819935   0.20764015  0.091611937 
    9400   -958.22105    35.931872   -922.28917    1286.9493   -2413.4251     2.203674  0.049630755  0.091276721 
    9500   -955.74287     37.30311   -918.43976    1336.0621    7537.9684     2.222072   0.08015074  0.096774365 
    9600   -958.98487    34.521068    -924.4638    1236.4195    7077.8637    2.2310648   0.21419097   0.10510246 
    9700   -958.83079     34.56333   -924.26746    1237.9331   -336.25808    2.2088562   0.14714852  0.090859677 
    9800   -956.50882    36.262759   -920.24606    1298.8005   -6499.5225     2.187507   0.05506285  0.098119219 
    9900   -956.55944    35.446644   -921.11279    1269.5702   -4677.1617    2.1915219  0.076698374  0.098756418 
   10000   -959.83004    33.069813   -926.76023    1184.4408    2712.6058     2.219436    0.2089404  0.098282803 
   10100   -957.33474    37.407897   -919.92684    1339.8152    6893.0114    2.2201726   0.10743989    0.1017188 
   10200   -958.69333    37.983505   -920.70982    1360.4314    5539.1413     2.217498   0.03326129  0.095864944 
   10300   -959.91319    33.565672   -926.34752    1202.2006   -1427.5637    2.2087797  0.034667199  0.082586141 
   10400   -954.10614    34.122349   -919.98379    1222.1388   -5581.1103    2.1854369   0.17022902  0.096373016 
   10500   -955.73065    35.670785   -920.05986    1277.5982   -1848.3954    2.1966892   0.25612413  0.095455942 
   10600   -961.22134    37.866229   -923.35511     1356.231    2324.1149     2.219357   0.21693238  0.090755132 
   10700   -958.77486    35.790179   -922.98468    1281.8744    10364.771    2.2322307  0.056873422  0.084457992 
   10800    -956.3823    39.610072   -916.77223    1418.6891    3002.2763    2.2060628    0.1846043  0.093131876 
   10900   -957.32235    35.479732   -921.84262    1270.7553   -10255.394    2.1795619    0.2678116   0.10358414 
   11000   -957.33825     34.59085    -922.7474    1238.9188   -14687.012    2.1695373  0.050642629  0.095843267 
   11100   -948.73132    32.698121    -916.0332    1171.1281   -999.58204    2.1892104  0.078532447   0.12084066 
   11200   -955.84794    35.285326   -920.56261    1263.7924    12564.204    2.2366615   0.11305258   0.10807044 
   11300   -960.33562    37.832538   -922.50308    1355.0243    7733.5595    2.2307804   0.12633833  0.093442432 
   11400   -958.22468    38.235153   -919.98952    1369.4445   -350.20676    2.2044621  0.089028242  0.086577047 
   11500   -956.22452    39.465971   -916.75855    1413.5279   -5408.1499    2.1842291   0.10260295  0.080802965 
   11600   -959.60746    34.716899   -924.89056    1243.4334   -1559.9938    2.2066862  0.083508433  0.084015072 
   11700   -957.13531    35.098536   -922.03677    1257.1023    1859.4284    2.2102001   0.14072312  0.094536303 
   11800   -956.58522    37.286444   -919.29878    1335.4652    2423.5589    2.2104737   0.21161257   0.10621131 
   11900   -960.80746    35.554395   -925.25307    1273.4295    25.432843    2.2125501   0.14088902  0.087824796 
   12000    -958.2892    33.886381   -924.40282    1213.6873   -2856.4095    2.2000869  0.090610711  0.092014177 
   12100   -958.15216    37.760806   -920.39136    1352.4551   -3978.9862    2.1955313   0.10698857  0.089171294 
   12200   -958.82656    37.068375   -921.75819    1327.6548    1217.8026    2.2091287  0.037176223    0.1015935 
   12300   -959.81105    32.936738   -926.87431    1179.6745    7431.2219    2.2302702   0.17204988  0.089000446 
   12400   -958.70485    38.697678   -920.00717    1386.0105    2273.1683    2.2111323   0.28125117  0.091362801 
   12500   -957.84891    36.547172   -921.30174    1308.9872   -4410.7916    2.1937932   0.12594885  0.088338251 
   12600   -959.69518    33.597284    -926.0979    1203.3329   -8257.0258    2.1906843   0.23636876  0.084702674 
   12700   -958.04859    36.650279   -921.39831    1312.6801   -4477.0629    2.1951298   0.22244406   0.08511117 
   12800   -956.19429    36.816694   -919.37759    1318.6405    7791.9133    2.2200846   0.11823613  0.086479541 
   12900   -958.61913    36.495334    -922.1238    1307.1305    9765.6544    2.2322729   0.15669043  0.086878369 
   13000   -960.72458    35.624094   -925.10048    1275.9258    1947.5306    2.2143215   0.10411538  0.077634635 
   13100   -952.88605    36.656878   -916.22917    1312.9164   -10174.633    2.1656042   0.07833187  0.096588694 
   13200   -954.22248    34.156229   -920.06626    1223.3523   -7759.3714    2.1792008  0.060896074  0.097192889 
   13300   -958.76135    36.214779   -922.54657    1297.0821    2420.7378    2.2139093    0.2190478  0.094019798 
   13400   -960.33358    38.674669   -921.65891    1385.1864    7896.8582    2.2287954   0.23315024  0.091496557 
   13500   -955.04705    39.673341   -915.37371    1420.9552    2147.6198    2.2024549  0.025206115  0.086345202 
   13600   -959.43425    37.515972   -921.91827    1343.6861   -2646.9264    2.2027593   0.03681954  0.091479687 
   13700   -957.92568    35.565021   -922.36066    1273.8101   -2922.9306    2.1979895   0.36054364   0.08397612 
   13800   -956.60553    40.700278   -915.90525    1457.7364   -3726.7206      2.19342   0.24466609  0.090858007 
   13900   -954.69107    33.900738   -920.79033    1214.2015    2959.2963    2.2089751    0.1335308   0.09527492 
   14000   -958.42352    35.709191   -922.71433    1278.9737    669.54735    2.2086646   0.06045793  0.090646152 
   14100   -958.14962    38.229076   -919.92054    1369.2269    379.97991    2.2027114   0.26059421  0.094030882 
   14200   -953.18765    37.568825   -915.61883    1345.5791   -442.32833    2.1956275   0.17551765  0.095364849 
   14300   -959.27879    35.376422   -923.90237    1267.0551    2851.5983    2.2154685  0.021824315  0.087341228 
   14400   -960.27848    37.864063   -922.41441    1356.1534   -277.69557    2.2079749   0.10476079  0.088437462 
   14500   -958.08185    37.727798   -920.35405    1351.2729   -3230.6562     2.197545   0.12109261   0.09436081 
   14600    -954.5198    37.042772   -917.47703    1326.7377   -3053.5806    2.1896012   0.24709686  0.092028375 
   14700   -955.02858    35.109937   -919.91864    1257.5106   -526.50065    2.1994254  0.090719401  0.092064759 
   14800   -958.95682    34.906631   -924.05019    1250.2289    2950.4345    2.2171051   0.17653097   0.09389952 
   14900   -960.02685    37.935768   -922.09109    1358.7216    7067.6383    2.2255786   0.28926338  0.089070132 
   15000    -956.4731    36.017667   -920.45544    1290.0222    4669.8223    2.2153207   0.13816097  0.091634284 
   15100   -956.11349     35.68831   -920.42518    1278.2258   -3986.1468    2.1917601   0.10949807  0.096723064 
   15200   -960.62101    33.413266   -927.20774     1196.742   -6903.3976      2.19644  0.040740251  0.086626208 
   15300   -956.41273    33.736263   -922.67647    1208.3106   -1050.6173     2.202077   0.23553449   0.10060609 
   15400   -956.20328    36.302214   -919.90106    1300.2137    5619.3999    2.2174603   0.17659606   0.10349017 
   15500   -962.19759    37.673686   -924.52391    1349.3348    4486.5409      2.22704   0.23000464  0.096310911 
   15600   -958.71598     32.95066   -925.76532    1180.1732    2141.0309    2.2135919   0.15743363   0.08570648 
   15700   -958.67633    37.920182   -920.75615    1358.1634   -8095.6306     2.187045    0.3132189  0.094609524 
   15800    -958.1443    36.465765   -921.67853    1306.0715   -9153.7833    2.1856637   0.29602252  0.099695491 
   15900   -964.95286     37.03871   -927.91415    1326.5923    -1777.359    2.2168472   0.14058997  0.079533522 
   16000    -960.3727    38.614352   -921.75835     1383.026    7664.8545    2.2309457    0.2218905  0.095940067 
   16100   -959.12974     38.96545   -920.16429    1395.6011    10369.441    2.2346593  0.078496187  0.095931432 
   16200    -961.3112    37.884609   -923.42659    1356.8893   -2553.2568    2.2070121   0.19913391  0.091642913 
   16300   -959.77153    33.780246   -925.99128    1209.8859    -13635.44     2.176384  0.062017755   0.09571467 
   16400   -963.64033    31.032311   -932.60802    1111.4648   -12669.579     2.191118  0.049408083  0.096130505 
   16500   -960.04154    33.375168   -926.66637    1195.3775   -135.74706    2.2115544   0.14319105  0.097496576 
   16600   -960.14065    36.483712   -923.65694    1306.7142    5507.3747    2.2277481   0.09481536  0.094000292 
   16700   -957.15156    35.890886   -921.26067    1285.4814    5988.6889    2.2191067  0.079736179  0.097453648 
   16800   -958.04168    37.792815   -920.24886    1353.6016   -1835.5386     2.203738  0.094309541  0.095732665 
   16900   -961.98469     34.78657   -927.19812    1245.9288   -5311.9118    2.2021281   0.16397879  0.084195203 
   17000   -958.51963    33.998507   -924.52112    1217.7032   -5509.4889    2.1955756   0.16602633  0.085590329 
   17100   -952.99739    32.305306   -920.69208    1157.0589    2627.0866    2.2032204   0.25043958  0.097580712 
   17200   -958.76701    37.765507   -921.00151    1352.6235    2966.9269    2.2162265   0.11585127  0.087575253 
   17300   -958.97945    31.084875   -927.89457    1113.3475    8468.3689    2.2310171 0.0089095452  0.090175287 
   17400   -956.94183    35.497032    -921.4448     1271.375   -238.97312    2.2022689   0.11914334  0.089661972 
   17500   -959.53454    38.717137    -920.8174    1386.7074   -8986.2713    2.1858506  0.042347074  0.096964472 
   17600   -956.89478    33.136418   -923.75836    1186.8263    -3159.114    2.1942557  0.080797218   0.10515518 
   17700   -959.95081    32.823384   -927.12743    1175.6146    3751.9856    2.2231141  0.096420103   0.10236175 
   17800   -956.68929    37.032585   -919.65671    1326.3729    8056.5778    2.2226312   0.16146502  0.094769752 
   17900   -957.71099    36.541483   -921.16951    1308.7834    4187.2821    2.2145038  0.071174707  0.096218675 
   18000    -958.8313    34.266307   -924.56499    1227.2949   -6141.6519    2.1946005  0.035916184   0.11020189 
   18100   -959.06163     33.04359   -926.01804    1183.5016   -11912.774    2.1804281  0.088703047  0.084229213 
   18200   -955.43941    36.564471   -918.87494    1309.6067   -7491.7026    2.1791624   0.12597647  0.094166335 
   18300   -959.75744    38.952998   -920.80444    1395.1551    4758.5462    2.2220465   0.15802528  0.093454819 
   18400   -957.61108    36.377446   -921.23364    1302.9082    17532.187    2.2462638   0.19562829  0.094638422 
   18500   -957.80432    37.136625   -920.66769    1330.0992    6809.1799    2.2221452  0.090965606  0.085926605 
   18600   -949.93369    35.327065   -914.60663    1265.2874   -7901.5114    2.1737107   0.12580843   0.11708647 
   18700   -958.18343    36.616615   -921.56681    1311.4744   -8826.9666    2.1856013  0.094105151  0.096961211 
   18800   -957.94615    36.006371   -921.93978    1289.6176   -1017.3506    2.2037924   0.12229918  0.093926495 
   18900   -958.90457    39.875979   -919.02859     1428.213    3238.7553    2.2155244   0.18225031  0.087842641 
   19000   -955.12108    40.668606   -914.45248     1456.602    3338.2056    2.2042913   0.10885364  0.093778154 
   19100   -957.64316    36.030144   -921.61302    1290.4691   -78.385481    2.2057337   0.48559676   0.09776547 
   19200   -958.86327    37.031101   -921.83217    1326.3197   -2688.9804    2.2000578  0.077666535  0.095123395 
   19300   -955.96913    36.735571   -919.23356    1315.7349   -1303.2941     2.197023   0.13320594  0.098070699 
   19400   -951.36393    37.666812   -913.69712    1349.0886    -23.62828    2.1920392   0.12935687   0.09546086 
   19500   -953.87284    32.848567   -921.02427    1176.5166    6500.5289    2.2143549  0.012961246  0.097226361 
   19600   -959.40186     37.84882   -921.55304    1355.6075    5527.1333    2.2182463  0.077707096  0.088439862 
   19700   -958.30798     37.81965   -920.48832    1354.5627    858.91443    2.2045466  0.074509165  0.094262909 
   19800   -952.12113    39.646646   -912.47448    1419.9991   -7836.7672    2.1701984   0.05166234   0.10094101 
   19900   -954.91903    34.401448   -920.51759    1232.1351   -2254.5203    2.1910854   0.17164241  0.093844351 
   20000   -959.05502    37.435461   -921.61956    1340.8025    3338.5768    2.2160394   0.24011603  0.075437347 
   20100   -959.05619    37.615937   -921.44025    1347.2664    9603.2893    2.2315538    0.3999645  0.088892789 
   20200   -956.06821    42.762328   -913.30588    1531.5915    2202.6167    2.2026145   0.15455468  0.080895418 
   20300   -956.41905    37.593036   -918.82602    1346.4462   -4356.9333    2.1875683   0.16677981   0.09078766 
   20400   -960.27939    38.193486   -922.08591    1367.9522   -12827.617    2.1756546   0.11203996  0.088502188 
   20500   -955.61243    34.079787   -921.53264    1220.6144   -3470.4452    2.1913205  0.034723137   0.09987863 
   20600   -951.14061    36.822862   -914.31774    1318.8614    10365.846    2.2146771    0.1544488   0.11263299 
   20700    -958.2833    38.639913   -919.64339    1383.9416    13661.383    2.2364514   0.14396797  0.095311621 
   20800   -957.28861    35.028285   -922.26033    1254.5861    2180.4863    2.2096319   0.25099916  0.097710577 
   20900   -957.78464    37.023659   -920.76099    1326.0532   -6034.1428     2.188179  0.090724079  0.087383281 
   21000    -955.9507    41.532088   -914.41861    1487.5288   -6539.5182    2.1825263   0.09870472   0.10511033 
   21100   -954.38814    33.337055   -921.05108    1194.0124    2744.2942    2.2064625   0.25916314  0.087602216 
   21200   -959.21647    37.143169   -922.07331    1330.3336   -773.63067    2.2083208   0.37432147  0.089279689 
   21300   -957.64395    36.593682   -921.05026     1310.653     1085.171    2.2053284  0.051719479  0.085129442 
   21400   -956.57546    39.541464     -917.034    1416.2319     -875.232    2.1972088     0.189512  0.085756712 
   21500   -951.31164    35.971458   -915.34018    1288.3672    566.79225    2.1911017  0.069144884  0.096488125 
   21600   -956.57227    35.334607   -921.23766    1265.5575   -741.26542    2.2000212  0.053449962  0.096422351 
   21700   -957.87951    35.923647   -921.95586    1286.6547   -317.48824    2.2056186   0.17756648   0.10046947 
   21800   -957.91479    37.133231   -920.78156    1329.9777    3141.1256    2.2127431  0.036149173  0.098321259 
   21900   -953.96627    40.355835   -913.61044    1445.3997    113.27198    2.1918923  0.080554176  0.099854196 
   22000    -958.5729    37.956271   -920.61663     1359.456   -2647.6629    2.1979799  0.056631645  0.098136898 
   22100   -958.29301    36.097086   -922.19592    1292.8667   -2240.8362    2.1993299   0.29841989   0.09110505 
   22200   -958.98607    38.093708   -920.89236    1364.3785   -45.736879    2.2040877   0.15759299  0.087689515 
   22300   -952.30814    38.039658   -914.26848    1362.4426    1455.5603    2.1988588   0.15018748   0.10061185 
   22400     -958.813    37.648785   -921.16422    1348.4429    3231.8885    2.2144522   0.13102002   0.08657019 
   22500   -958.79919    36.508805   -922.29038     1307.613    1340.7403     2.211243    0.1883182  0.090190238 
   22600   -954.99258     36.49113   -918.50144      1306.98   -1990.0897    2.1970258    0.1622819  0.090138794 
   22700   -953.87071     37.59895   -916.27176     1346.658   -4039.5238    2.1868239  0.075704035   0.11018594 
   22800   -958.25148    35.842922   -922.40856    1283.7635   -3490.9407    2.2004157   0.11636633    0.1050589 
   22900   -956.54793    35.105666   -921.44226    1257.3577    4322.1089    2.2166649  0.042365073   0.10784993 
   23000   -953.39049    37.766933   -915.62356    1352.6746    10081.866     2.219003   0.41538296   0.11125963 
   23100   -956.47183    36.812656   -919.65917    1318.4958    2637.1752    2.2097524   0.28025778  0.093299619 
   23200   -959.56066    36.979189   -922.58148    1324.4605   -8382.1803    2.1873188  0.084086304  0.091626034 
   23300   -959.28787    38.283028   -921.00484    1371.1592   -11586.493    2.1806895   0.28231953  0.094113244 
   23400   -955.67602    39.719588   -915.95643    1422.6116   -2107.2112    2.1947567   0.30681331  0.099260369 
   23500   -956.09885    38.308056   -917.79079    1372.0557    7499.0284    2.2164951   0.25975311  0.090026155 
   23600   -957.45083    35.796689   -921.65415    1282.1076    6206.0731    2.2213438   0.34963745  0.076989744 
   23700   -958.77263     37.25102   -921.52161    1334.1965    583.22787     2.207642  0.084182926  0.079326448 
   23800   -958.43696    37.138934   -921.29803    1330.1819   -5798.7393    2.1936757  0.033852733  0.087345437 
   23900   -958.29439    29.823045   -928.47135    1068.1533   -2964.1541    2.2015283   0.12830023  0.093264476 
   24000   -961.76101    36.110774   -925.65024     1293.357   -4964.6437    2.2018256  0.019202759  0.087309902 
   24100   -956.49797    34.834795   -921.66318     1247.656    4616.8339    2.2131705   0.21104687   0.08612445 
   24200   -957.30992    37.210224    -920.0997    1332.7353    7389.4186    2.2237203  0.047609521   0.09597337 
   24300   -959.79649      33.7272   -926.06929     1207.986    5106.3313    2.2276957   0.22205459  0.097319086 
   24400   -959.74301    34.704173   -925.03884    1242.9776   -11266.707    2.1843649  0.088250184  0.095341739 
   24500   -956.70706    35.579721   -921.12734    1274.3366   -18037.978    2.1605425   0.11293604  0.097659807 
   24600    -955.1796    34.310367   -920.86924    1228.8729   -4213.5568    2.1911362   0.17230609  0.087708902 
   24700   -959.81002    33.210994   -926.59903    1189.4974    11867.039    2.2423131    0.2370365  0.093855848 
   24800   -958.45997    34.095679   -924.36429    1221.1836    14555.867    2.2422213   0.16783449  0.089211983 
   24900   -958.38119    37.458782   -920.92241    1341.6377     2124.069    2.2137057  0.026390489  0.098116962 
   25000   -958.23258    36.158102   -922.07448    1295.0521   -6968.5372    2.1906764   0.26375633  0.095484218 
   25100   -960.15297    33.044914   -927.10806     1183.549   -8753.9228     2.190372  0.023262479  0.089420742 
   25200   -960.26446    35.289231   -924.97523    1263.9323   -2394.9395     2.205569     0.194609  0.087299254 
   25300   -957.63802    36.658643   -920.97938    1312.9796    6818.4744    2.2208944   0.19456476  0.080107943 
   25400   -956.75375    35.617183   -921.13657    1275.6783    7412.0498    2.2212036   0.13650118  0.087457676 
   25500   -961.11707    35.570172    -925.5469    1273.9946   -1064.3061    2.2098768   0.14952238  0.080825543 
   25600   -958.20589    31.049656   -927.15624    1112.0861   -3655.1577    2.1993924    0.1089338  0.086258388 
   25700   -957.03004    35.309364   -921.72068    1264.6534   -2931.2628    2.1935468   0.12871882  0.083748493 
   25800   -957.40271    36.307714   -921.09499    1300.4106    2106.2661    2.2087655   0.05773671  0.083069918 
   25900   -958.98285    35.260112   -923.72273    1262.8893    6186.1031    2.2228951   0.16850623  0.094806648 
   26000   -961.80287    33.712057   -928.09081    1207.4436    6897.5215    2.2296232  0.012282868  0.083668413 
   26100   -957.77948    36.179713   -921.59977    1295.8261   -1648.8751    2.1992536  0.080238274  0.084995899 
   26200   -958.33311    37.084013    -921.2491    1328.2148   -10327.562    2.1779957  0.076333749  0.095132401 
   26300   -958.51021    35.648249   -922.86196     1276.791   -9295.4018    2.1810709   0.12936616  0.084404781 
   26400   -961.56678    32.825169   -928.74161    1175.6785     5355.475    2.2295527   0.25833139  0.091390468 
   26500   -957.10032    35.916364   -921.18396    1286.3939    17439.357    2.2439798   0.20240034  0.088115327 
   26600   -955.34442    34.706924    -920.6375    1243.0761    9321.5347     2.223383   0.13936103  0.082227144 
   26700    -960.0274    37.253344   -922.77406    1334.2797   -5745.2787    2.1934335   0.28712612  0.077297762 
   26800   -961.71347    32.559382   -929.15409     1166.159    -8062.882    2.1967217  0.014251102  0.085818121 
   26900   -955.68347    33.523105   -922.16037    1200.6761   -2748.9959    2.1946708   0.14881861  0.091162578 
   27000   -957.52107    36.656326   -920.86474    1312.8967    3178.0091    2.2095869  0.025875725  0.081482094 
   27100   -959.25765     36.42606   -922.83159    1304.6494    3839.9318    2.2180946   0.24336936  0.097060038 
   27200   -961.20793    32.349515   -928.85841    1158.6423    4542.1782    2.2231323  0.065553926   0.08358364 
   27300   -958.25627    36.836001   -921.42027     1319.332    -4695.325    2.1942724   0.17354769  0.087518228 
   27400   -955.77138    34.571023   -921.20036    1238.2087   -4248.8225    2.1907273   0.20169622   0.10487248 
   27500   -958.54775    35.719276   -922.82847    1279.3349   -1931.2631    2.2011424   0.19510036  0.092199585 
   27600   -962.95555    33.733762   -929.22179     1208.221    4575.5168    2.2269826  0.049360875  0.082733276 
   27700   -961.51974    39.641818   -921.87792    1419.8262     2530.543    2.2175786   0.36753705   0.08457982 
   27800   -959.01749    37.935254   -921.08224    1358.7032    500.01093    2.2062212    0.2838163  0.081746516 
   27900   -955.20797     32.92595   -922.28202    1179.2881   -4635.4297     2.191264   0.11546988   0.09839802 
   28000   -960.98992    31.741134   -929.24879    1136.8523   -5647.0136    2.1984309   0.12736637  0.097947492 
   28100   -957.89913    34.299575   -923.59956    1228.4864   -3172.1561    2.2005716    0.1064002  0.099573159 
   28200   -957.80737    36.927789   -920.87958    1322.6195    8221.5169    2.2277927  0.073875224  0.086888088 
   28300   -958.87567    38.121951   -920.75372      1365.39    12384.676     2.238374   0.10811317  0.093606458 
   28400   -961.54274    33.960983   -927.58176    1216.3592    89.112846    2.2181774  0.023266142   0.10006974 
   28500    -958.6932    33.974473   -924.71872    1216.8424   -11001.584    2.1804986  0.031351678   0.10373835 
   28600   -956.08055    34.648123   -921.43243    1240.9701   -8817.8201    2.1809844   0.14841952  0.096719025 
   28700   -960.06398    38.831839   -921.23214    1390.8156   -2846.3158    2.2040634   0.19675941  0.098655156 
   28800   -961.14588     34.73787   -926.40801    1244.1845    6453.2996    2.2271589   0.13686648  0.094332168 
   28900   -960.49134    34.891011   -925.60033    1249.6695    5208.5315     2.224224  0.077604316  0.089843249 
   29000   -957.81673    36.715974   -921.10076     1315.033    708.09014    2.2068242  0.084441487  0.091030587 
   29100   -958.17611    36.601866   -921.57424    1310.9461   -3719.0426    2.1950209   0.43605593  0.086219682 
   29200   -961.57629    34.698446   -926.87785    1242.7725    -4680.718    2.2019716   0.13374042  0.092656166 
   29300   -960.69806    35.512724   -925.18534     1271.937   -942.06761    2.2100489  0.061261532  0.091625952 
   29400    -957.6919    36.764062   -920.92784    1316.7554    6331.0672     2.219492  0.082198818   0.08507203 
   29500   -959.83079    38.335578   -921.49521    1373.0414    3175.3606    2.2176567   0.19034732   0.08780864 
   29600   -961.96369    36.514031   -925.44966    1307.8002    -3456.417    2.2064027  0.069952483  0.083106187 
   29700   -962.08458    34.395624   -927.68896    1231.9265   -8407.1806    2.1965521  0.071818452  0.095952011 
   29800   -958.45347    36.185002   -922.26847    1296.0155   -5512.3561    2.1934726  0.037722246  0.080320567 
   29900   -954.88725    33.974708   -920.91254    1216.8508    5767.6857    2.2161448   0.21524355  0.094547335 
   30000    -959.5145    37.454072   -922.06043     1341.469    12830.709     2.241701   0.10941732  0.098622345 
   30100   -962.01583    33.820535    -928.1953    1211.3289    10405.303    2.2453644   0.41344732  0.096383677 
   30200   -957.13734    35.658244    -921.4791     1277.149   -7171.9362    2.1880644   0.30372257   0.10180368 
   30300   -955.20461    34.351306   -920.85331    1230.3392   -13265.422    2.1681861    0.1949881   0.10664933 
   30400   -957.60999    35.010134   -922.59986     1253.936   -6354.2911     2.191908   0.19547843   0.10205218 
   30500   -960.48355    32.049972   -928.43357    1147.9138    5647.2968    2.2329415 0.0055730241  0.094760605 
   30600   -957.16428    36.229151   -920.93513    1297.5968    7352.5334    2.2243389  0.033232366  0.098712001 
   30700   -955.96231    34.937676   -921.02463    1251.3408    2809.3459    2.2129392  0.094406248    0.1017482 
   30800   -960.63203    36.865416   -923.76662    1320.3855   -4422.0947    2.2013549  0.098894624  0.092893704 
   30900   -963.44464    34.197987   -929.24666    1224.8479    -4211.765    2.2053033   0.42969254  0.092593993 
   31000   -959.32226    37.469076   -921.85318    1342.0064   -3993.8923    2.1991475  0.056995402   0.08655674 
   31100   -957.35685    36.043128   -921.31372    1290.9341    3378.3918    2.2122392   0.28842826  0.093039693 
   31200   -956.07128    34.696757   -921.37452     1242.712    6524.5383    2.2196646   0.16528864  0.099361083 
   31300   -956.30851     37.50899   -918.79952     1343.436    3613.6169    2.2087216  0.076767554  0.091885349 
   31400   -955.44745    40.510106   -914.93735    1450.9251   -5893.3327    2.1822193  0.091095055  0.097622937 
   31500   -958.19854    37.784975   -920.41357    1353.3208   -11410.901    2.1778701   0.15161292  0.089571756 
   31600   -957.88272    35.539531   -922.34319    1272.8971   -5033.6701    2.1936102   0.02964031  0.093364742 
   31700   -960.40991    39.986957   -920.42295    1432.1878    6370.6005    2.2255191   0.12802895  0.090884437 
   31800   -954.97575    40.796482   -914.17927     1461.182    10121.932    2.2239912  0.065780131  0.089778182 
   31900   -956.72009    35.750785    -920.9693    1280.4635     3713.476    2.2120719   0.12399065  0.082971257 
   32000   -958.71497    36.466523   -922.24845    1306.0986   -7358.6691    2.1881387   0.14578048   0.08411278 
   32100   -954.48077     36.19666    -918.2841    1296.4331   -8508.9945    2.1793861   0.38435292  0.091296317 
   32200   -954.79844     38.82515   -915.97329    1390.5761   -1186.8232    2.1918182   0.17880812  0.092264478 
   32300   -959.00534    37.193232    -921.8121    1332.1267    3116.6973    2.2154864   0.28937096   0.09130347 
   32400   -956.01802    34.381103   -921.63692    1231.4064    4249.0017    2.2146079    0.1744064  0.089635617 
   32500   -955.12125    39.093455   -916.02779    1400.1858    737.18757    2.1993325    0.1267277  0.090339802 
   32600   -956.30134    37.615052   -918.68629    1347.2347   -2593.6556    2.1956962  0.086581231  0.085161776 
   32700   -957.21693    34.798217   -922.41871    1246.3459   -3333.5058    2.1976846  0.035891785  0.095434682 
   32800   -956.27292    35.190062   -921.08286    1260.3804    -906.7499    2.2045911  0.041077228   0.10044059 
   32900   -953.08511    37.688896   -915.39621    1349.8796    4289.1728    2.2069751    0.1868968   0.10163521 
   33000   -954.89422     36.28867   -918.60555    1299.7286      4774.72    2.2132866  0.069034107  0.089166555 
   33100   -956.96107    35.121701   -921.83937     1257.932   -1380.3696    2.2024896  0.027805792  0.085652182 
   33200   -957.09585     35.45921   -921.63664    1270.0203   -4899.5568    2.1940018   0.20511962  0.093617024 
   33300   -958.67563    40.037789   -918.63784    1434.0084   -4814.0454    2.1955558   0.24441172  0.089450532 
   33400   -952.08899    38.409407   -913.67958    1375.6857    760.19678    2.1951329   0.14258709   0.10074788 
   33500   -955.97855    35.121126   -920.85742    1257.9114    7094.6236    2.2204459   0.33926771  0.094557639 
   33600   -958.77489     37.35595   -921.41894    1337.9547    7965.6523    2.2230479   0.04992259  0.081642237 
   33700   -957.63609    35.884398   -921.75169     1285.249   -521.32612    2.2052422   0.21490632  0.091725306 
   33800    -952.1638    39.531754   -912.63205    1415.8841   -12207.693    2.1613362  0.097653392   0.10465057 
   33900   -956.75773     37.33439   -919.42334    1337.1825   -6394.0754    2.1861869  0.015102119  0.098271648 
   34000   -956.50539    34.999642   -921.50575    1253.5602    6617.4557    2.2195626  0.060104471   0.09791749 
   34100   -959.43294    38.050713   -921.38222    1362.8386    11765.368    2.2365791   0.19192772  0.090209433 
   34200   -952.17667    38.368188   -913.80848    1374.2094    6378.5346    2.2082373   0.31623239   0.10583356 
   34300   -954.72118    35.365439   -919.35574    1266.6618   -2816.7691    2.1937403   0.10472477  0.094912482 
   34400   -959.15089    36.810001   -922.34088    1318.4007   -9421.7764    2.1856198   0.24030923   0.10132396 
   34500   -956.52221    35.680692   -920.84152     1277.953   -3734.3804    2.1949546   0.21188348  0.095294684 
   34600   -953.48564    39.654139    -913.8315    1420.2675    1876.4198    2.1999478   0.26661291  0.099760248 
   34700   -962.25658    40.747972   -921.50861    1459.4446    3944.5535    2.2230655  0.044296457  0.091716009 
   34800   -958.63064    36.592304   -922.03833    1310.6036    1107.7859    2.2129901   0.26824881   0.10185861 
   34900   -956.04427    37.369387   -918.67488    1338.4359   -1504.2955    2.1977645  0.063258823   0.10991543 
   35000   -954.90655    39.842872   -915.06368    1427.0272   -4835.5167    2.1867592   0.12315583   0.10977206 
   35100    -957.0686    34.390265   -922.67833    1231.7346    84.399593     2.206879   0.19917922     0.103716 
   35200   -958.03025    36.515332   -921.51492    1307.8468     2226.493    2.2136446   0.19683782   0.09807856 
   35300   -956.23856    37.242525   -918.99603    1333.8922    4394.1101    2.2112611   0.04665191  0.098403509 
   35400   -952.94417    41.213545   -911.73062    1476.1197    970.46106    2.1927453   0.24793178   0.10567574 
   35500    -956.6515     36.36034   -920.29116    1302.2955    1723.5775    2.2069465   0.23323704  0.092477557 
   35600   -957.06132    35.567101   -921.49422    1273.8846   -241.70137    2.2040387   0.20789123  0.091775957 
   35700   -957.14302    35.065609   -922.07741     1255.923   -2584.1493    2.2000557   0.25479917  0.092362664 
   35800   -958.50001    38.649999   -919.85001    1384.3028   -4235.8817    2.1975811  0.033920473  0.090729807 
   35900   -954.63413    39.502754   -915.13138    1414.8454    1409.2605    2.1976724  0.026719657  0.099862257 
   36000   -956.54792    36.203959   -920.34396    1296.6945    1524.2722     2.207257   0.13143552  0.097005119 
   36100   -958.03871    35.724714   -922.31399    1279.5297    1328.3438    2.2098501   0.10172524  0.097556996 
   36200   -957.75556    35.943866    -921.8117    1287.3789   -584.80636    2.2053095  0.031806418   0.10413065 
   36300   -954.68292    39.568136   -915.11478    1417.1871   -5974.8567    2.1848086  0.058445259   0.11093691 
   36400   -957.30213    35.709558   -921.59257    1278.9869   -2076.6436    2.1991307   0.18896465   0.10219545 
   36500   -959.90284    37.663428   -922.23941    1348.9674    1726.8427    2.2116183   0.26483021  0.089220476 
   36600   -955.29299    38.581821   -916.71117    1381.8609    5872.3652    2.2144459   0.47442021   0.10165431 
   36700   -955.90749    36.917649   -918.98984    1322.2563    2326.7207    2.2093265    0.1898715  0.095847236 
   36800   -957.97465    35.117151    -922.8575     1257.769   -4321.1068    2.1938323  0.015114661  0.090730603 
   36900   -956.86597    36.063259   -920.80272    1291.6552   -6673.7634    2.1854646  0.030200852   0.10369269 
   37000   -955.39139    39.817006   -915.57438    1426.1007     -2393.14    2.1925912   0.25482756   0.10385689 
   37100   -959.26428    35.887543   -923.37674    1285.3616    8308.3092    2.2294304   0.18231843   0.10222864 
   37200   -958.03488    35.453177    -922.5817    1269.8042    6923.6437     2.225115  0.021925591   0.10411856 
   37300   -958.82446    38.566536   -920.25792    1381.3135   -2634.9221    2.2028788   0.15353983  0.093964063 
   37400   -957.32858    38.565318   -918.76326    1381.2698   -9897.7202    2.1817324   0.27437958   0.10346237 
   37500   -959.00815    32.309998   -926.69815    1157.2269   -1693.7716    2.2065542  0.069641707   0.10636355 
   37600   -957.23167    34.753499   -922.47817    1244.7443    6483.4391    2.2216073   0.47647462   0.10361526 
   37700   -957.06312    37.647495   -919.41562    1348.3967    11556.037    2.2310053   0.18377021   0.10145258 
   37800   -961.04787    36.766741   -924.28113    1316.8513    3041.7268     2.222789   0.38380903    0.0944409 
   37900   -958.93779    33.260159   -925.67764    1191.2583   -8065.4304    2.1908861   0.10789694  0.096298483 
   38000   -954.00518    33.422796   -920.58239    1197.0833   -13773.614    2.1681424   0.13935256   0.11005517 
   38100   -957.15853      35.9068   -921.25173    1286.0513   -4861.9346    2.1942654   0.14723769  0.096387794 
   38200   -958.57731    32.123326   -926.45399     1150.541    13266.134    2.2459083   0.14554108   0.10609692 
   38300   -956.56229    35.231806   -921.33049    1261.8755    14651.085    2.2446051   0.21218676   0.10990512 
   38400   -958.19591    37.886251   -920.30966    1356.9481    1528.4821    2.2114723  0.073629748   0.10135539 
   38500   -959.28566    36.140902   -923.14476     1294.436   -5502.8769    2.1972951  0.092293494   0.10419692 
   38600   -958.31387     33.51028   -924.80359    1200.2167   -3617.8167    2.1986203   0.13995589  0.088884217 
   38700   -953.38969    36.445322   -916.94436    1305.3393   -1256.7187    2.1898057   0.10726378   0.10849727 
   38800   -956.13149    35.703949   -920.42754     1278.786    3404.0689    2.2129079   0.30957833   0.11056383 
   38900   -956.55714    33.912978   -922.64416    1214.6399     8657.418    2.2257278  0.057730793   0.10834881 
   39000   -956.83564    36.632492   -920.20315     1312.043    4653.4867    2.2155668   0.14656926   0.10309141 
   39100   -953.21895    36.380465   -916.83849    1303.0163   -3810.8562     2.186967    0.0634782   0.10887193 
   39200    -956.4735    33.740292   -922.73321    1208.4549   -7174.3395    2.1863662  0.079377857   0.10392594 
   39300   -955.98227    34.373647   -921.60863    1231.1394   -2179.2941    2.1995705    0.1563116  0.099719524 
   39400   -955.03218    39.883166   -915.14902    1428.4704      3225.69    2.2093116  0.039738884   0.10694806 
   39500   -959.86567    37.521038   -922.34463    1343.8675    9519.2936    2.2321698  0.046408623   0.09277487 
   39600   -954.54007    32.201224   -922.33885    1153.3311    4726.8497     2.214389   0.10479571  0.096565861 
   39700   -955.28294    36.712051   -918.57089    1314.8925   -4579.7641    2.1858779   0.45872087  0.096506837 
   39800   -955.42863    35.077888   -920.35074    1256.3627   -7666.0041    2.1808405   0.31077447  0.086929579 
   39900   -958.69804    34.167899   -924.53014    1223.7702   -617.77874    2.2052883    0.1565115  0.088928894 
   40000   -955.32129    35.290758   -920.03053     1263.987    8537.1521    2.2200207   0.10745053  0.092793929 
   40100   -960.15533    40.008417   -920.14692    1432.9564    4297.0165    2.2195517   0.10819008  0.090125156 
   40200   -961.28563    34.514973   -926.77065    1236.2012    2055.8712    2.2193795  0.063873571  0.091062968 
   40300   -956.31191    35.331972   -920.97994    1265.4631   -2858.6608    2.1977548  0.076016145  0.099843434 
   40400   -957.49151    37.056679   -920.43483    1327.2358   -4248.9591     2.195751  0.041561278  0.096526193 
   40500   -961.26399    34.599239   -926.66475    1239.2193   -53.647035    2.2129705  0.053918217  0.079162904 
   40600   -959.18588    37.886179    -921.2997    1356.9455    651.97308    2.2106928  0.097123531  0.088663336 
   40700   -957.04926    37.158179   -919.89108    1330.8712    3133.5538    2.2131517   0.14429171  0.089748139 
   40800   -960.30453    35.958229    -924.3463    1287.8933    676.71281    2.2128374   0.13116117   0.08205649 
   40900   -956.48652    33.376493   -923.11002    1195.4249   -582.65243    2.2036096   0.19686894  0.092202644 
   41000   -957.83075    39.306904   -918.52385    1407.8308   -4550.0634    2.1915044   0.10514365  0.083931952 
   41100   -958.95206    36.382897   -922.56917    1303.1034   -3733.9553    2.1993022   0.11302463  0.085482725 
   41200   -956.25902    33.466723   -922.79229    1198.6567    3137.3165    2.2128983   0.12926064   0.10456246 
   41300    -958.7407     43.28656   -915.45414    1550.3676    2902.8184    2.2098572  0.039104889   0.08264343 
   41400   -959.50581    38.147705    -921.3581    1366.3125    3158.8112    2.2173139  0.040896476  0.092261971 
   41500   -957.74812    34.729761   -923.01836    1243.8941   -2241.9865    2.1996677   0.15269434  0.098013146 
   41600   -955.23233    38.957103   -916.27522    1395.3021    -10436.96     2.172078  0.064650094  0.092599322 
   41700   -957.14249    36.447719   -920.69477    1305.4251   -5458.2306    2.1907353  0.080038502  0.095021452 
   41800   -959.41352    36.751055   -922.66246    1316.2895    4429.2926    2.2190246  0.095948072  0.089591737 
   41900   -956.08603    36.920239   -919.16579    1322.3491    10905.944    2.2295955   0.10653144   0.08684788 
   42000   -955.15862    37.615618     -917.543     1347.255    7796.8696    2.2152138   0.15658758  0.092141136 
   42100   -960.09989    35.150313   -924.94958    1258.9567   -3036.0182     2.202528   0.19282835  0.085217729 
   42200    -958.1365    36.105449   -922.03105    1293.1663   -8035.6009    2.1870144    0.1026158  0.092135114 
   42300   -955.91846     36.18729   -919.73117    1296.0975    -4384.544    2.1905518   0.17524427  0.098913623 
   42400   -960.30367    33.541527   -926.76214    1201.3359    3075.2602    2.2214403   0.09458972  0.096432758 
   42500   -958.22017    34.276549   -923.94362    1227.6617    6159.7905    2.2238613   0.25141804  0.087736832 
   42600   -958.32466    38.104941   -920.21972    1364.7808    2670.1223    2.2116478  0.045148216  0.085537194 
   42700   -961.18078    38.712607   -922.46817    1386.5452   -3820.3109    2.2007536   0.05369007  0.092174051 
   42800   -960.24373    32.480872   -927.76286     1163.347   -3603.2636    2.2048265   0.12468662  0.095481442 
   42900   -954.86265    34.050344   -920.81231    1219.5598   -3147.9452    2.1958513   0.10361516  0.096586714 
   43000    -958.3807    37.325571   -921.05513    1336.8666    1176.5562    2.2099794   0.21666104  0.094207792 
   43100   -960.62047    35.001472     -925.619    1253.6258    8120.4996    2.2320299   0.24245285  0.092104056 
   43200   -959.64313    35.347699   -924.29543    1266.0264    8812.2298    2.2315352   0.23829457   0.08619652 
   43300   -957.86719    37.738864   -920.12832    1351.6693    -7470.391      2.18904  0.035417976  0.094910043 
   43400     -957.241    35.065172   -922.17583    1255.9073   -16646.307    2.1606854  0.050689647   0.08890499 
   43500   -958.53379    36.668615   -921.86518    1313.3368   -13481.743    2.1797205   0.11777945  0.098256456 
   43600   -950.64978    35.626326   -915.02345    1276.0058    5722.5993    2.2046904   0.27356423   0.10458627 
   43700   -959.43537    39.126682   -920.30869    1401.3759    9708.6466     2.234732  0.041334091  0.087753863 
   43800   -958.14106    35.812955   -922.32811    1282.6902     6764.137    2.2235522  0.070637957  0.084013645 
   43900   -955.72471    37.721523   -918.00319    1351.0481   -3973.9127    2.1913717  0.033772168  0.098259331 
   44000   -957.02696    39.240297   -917.78666    1405.4451   -10462.486    2.1761568   0.11772951   0.10543476 
   44100   -957.60888    34.552368   -923.05651    1237.5405   -4191.1953    2.1950071    0.2133024  0.089918931 
   44200   -955.71456    35.282345   -920.43222    1263.6856    4985.2263     2.213915   0.12893649   0.10413628 
   44300   -955.95793    40.965166   -914.99276    1467.2237    6607.1582    2.2165944  0.090324281   0.10525627 
   44400   -958.97649    36.202015   -922.77448    1296.6249    3945.9606    2.2205254  0.065656875   0.09562572 
   44500   -956.42136    34.144776   -922.27658     1222.942   -4703.2632    2.1926443   0.32349726  0.096631754 
   44600   -957.26316    37.869011   -919.39415    1356.3306   -9250.0136    2.1789506   0.14730957  0.085265013 
   44700   -956.38862    34.553714   -921.83491    1237.5887   -4519.4033    2.1940456   0.07451244  0.087372367 
   44800    -958.6279    33.346165   -925.28173    1194.3387    5902.1033    2.2231386   0.26667971  0.092831253 
   44900   -955.38404    34.789568   -920.59448    1246.0361    9314.1518    2.2249388  0.052745697  0.094828346 
   45000   -957.39989    36.969469   -920.43042    1324.1123    3083.5238    2.2124475  0.041173589  0.090411873 
   45100   -962.47001    34.924249   -927.54576    1250.8599    -3020.372    2.2073448  0.024088178  0.077100443 
   45200   -959.69279    37.599299   -922.09349    1346.6705   -6499.2712    2.1918241  0.071232592  0.087812414 
   45300   -958.15069    37.780582   -920.37011    1353.1634   -3155.0997    2.1977902  0.062781671  0.095496857 
   45400   -959.74983    35.043644   -924.70619    1255.1362    1557.6568    2.2154984   0.14672571   0.10009747 
   45500   -957.31364    31.940961   -925.37267    1144.0094    6514.6359     2.221198   0.23375526  0.095533771 
   45600   -956.91549    37.165839   -919.74965    1331.1456    119.14954    2.2038882   0.16911403  0.096097744 
   45700    -958.1788    35.789804   -922.38899     1281.861   -1216.3272    2.1996378     0.181223  0.085904639 
   45800    -959.7768     34.37762   -925.39918    1231.2817   -2166.4865    2.2052257   0.14641223  0.089254119 
   45900   -953.04208    35.586233   -917.45584    1274.5698    308.42903    2.1960596   0.35388672  0.095784708 
   46000   -958.34662    38.215024   -920.13159    1368.7236    3747.7595    2.2151763  0.077375763    0.0811343 
   46100    -959.6584    36.780791   -922.87761    1317.3546    6105.4042    2.2239007  0.041632153   0.08958339 
   46200   -957.34417    37.978067    -919.3661    1360.2366     1447.585    2.2080577   0.45633286  0.092010458 
   46300   -956.91553    39.553155   -917.36238    1416.6506   -9160.3273    2.1816334   0.12159246   0.10387051 
   46400   -956.13438    33.087927   -923.04646    1185.0896   -13217.746    2.1734176   0.18664912   0.10459147 
   46500   -956.66004    35.373354   -921.28668    1266.9453   -2568.7436    2.1965296   0.10341752  0.094502581 
   46600   -960.10279    45.219292    -914.8835    1619.5911    10508.873    2.2296232  0.062690962  0.089043438 
   46700   -959.89753    37.921957   -921.97557     1358.227    15403.759    2.2460562  0.014163547  0.093020328 
   46800   -957.85735    35.168494   -922.68886    1259.6079    822.40572    2.2086748   0.24210862  0.092485521 
   46900   -955.06274    36.965436    -918.0973    1323.9679   -7942.0393    2.1771938  0.016718659  0.095850253 
   47000   -957.88533    34.184496   -923.70083    1224.3647   -7793.5697    2.1865104   0.20683109   0.09134596 
   47100   -959.89497    36.055641   -923.83933    1291.3823   -1930.3602    2.2040939   0.17847767  0.093976664 
   47200   -956.39112    37.418429   -918.97269    1340.1924    6791.6467    2.2166409   0.05339113    0.0877097 
   47300   -958.87817    35.695252   -923.18292    1278.4745    6571.8502     2.223723   0.14968246   0.08504342 
   47400   -961.73658     36.48521   -925.25137    1306.7679    6.8341158    2.2133763  0.050818594  0.084509813 
   47500   -954.68818    34.980713   -919.70746    1252.8823   -3793.1154    2.1883862   0.17700542  0.099384469 
   47600   -957.46125    35.001797   -922.45945    1253.6374   -6838.2559    2.1897083   0.13113393   0.10471152 
   47700   -962.81537    36.711268    -926.1041    1314.8645   -2284.7752    2.2109193   0.12839879  0.089221882 
   47800   -951.83069    33.132626   -918.69806    1186.6905    7426.6677    2.2119133   0.26185147  0.097938373 
   47900   -959.87552    38.618355   -921.25716    1383.1694    4398.1537    2.2185138  0.070427992  0.088683096 
   48000   -963.16236    37.884817   -925.27754    1356.8967   -905.17164    2.2115613   0.09892036  0.087168185 
   48100   -952.72509     35.30925   -917.41584    1264.6493    -7074.714    2.1772652  0.039691829   0.10907607 
   48200   -956.36635    35.923744   -920.44261    1286.6582   -6585.4914    2.1849964  0.026434986  0.099532208 
   48300   -958.57976    35.089762      -923.49     1256.788    2384.8002    2.2146198   0.22471383   0.10077371 
   48400   -955.21129    36.824084   -918.38721    1318.9052    14806.508    2.2367722   0.10638802   0.10967738 
   48500   -957.50506    39.684966   -917.82009    1421.3716    10970.138    2.2271376    0.2041219  0.098433388 
   48600   -960.43306     36.76579   -923.66727    1316.8173   -7251.4583    2.1930147   0.15701916  0.098830233 
   48700   -952.45842    31.535056   -920.92336    1129.4713   -10546.223    2.1709386  0.094531448   0.11734911 
   48800   -955.47556     38.23106    -917.2445    1369.2979   -6244.3397    2.1825869   0.38900496   0.10589086 
   48900   -958.91501    33.684396   -925.23062    1206.4529    5445.1203    2.2244264   0.21880909  0.096148956 
   49000   -958.81285    37.182444    -921.6304    1331.7403    5809.1226    2.2210566   0.48113036  0.097030305 
   49100   -956.67835    37.626231   -919.05211    1347.6352      2002.43    2.2045846  0.048208113  0.091407044 
   49200    -960.1556    34.033196   -926.12241    1218.9457   -2713.1835    2.2038938    0.1141601  0.096366664 
   49300   -959.45294     37.31291   -922.14003    1336.4131   -6789.0064    2.1921764   0.10988514   0.09320652 
   49400   -953.61652    34.180313    -919.4362    1224.2149   -277.09087    2.1959433    0.1701312  0.095990077 
   49500   -960.24817    34.988456   -925.25971    1253.1596    2831.5294    2.2191305  0.055857693  0.095556285 
   49600   -959.25674    36.528163   -922.72858    1308.3063    4422.9947     2.221269   0.20774215   0.10755404 
   49700   -956.16264     37.03705   -919.12559    1326.5328    2129.2953    2.2078237   0.27098618   0.12322018 
   49800   -958.84893    34.865733    -923.9832    1248.7641   -4326.1154    2.1971731   0.21660599   0.10601264 
   49900   -958.02147    35.821003   -922.20047    1282.9784   -8235.1794     2.184271   0.37146245   0.10854937 
   50000   -954.81606    36.689358   -918.12671    1314.0797   -2791.3921    2.1913548    0.1041239   0.10142865 
   50100   -958.26401    35.613001   -922.65101    1275.5286    7380.2275    2.2237136   0.20906968  0.091250769 
   50200   -955.76931    33.626599   -922.14271    1204.3828    14223.522    2.2361623   0.11734047    0.1069309 
   50300   -956.18527    40.293103   -915.89217    1443.1528    853.36132    2.2013422   0.14174293  0.098618537 
   50400   -956.78271    34.314381   -922.46833    1229.0167    -9774.687    2.1779811   0.20152796  0.089938706 
   50500   -954.20484    31.879068   -922.32577    1141.7926   -11300.461    2.1710357  0.035154512  0.092049301 
   50600   -955.27023     38.17687   -917.09336     1367.357    76.483773    2.1944862  0.099859403  0.098831171 
   50700   -961.73923    37.981609   -923.75762    1360.3635    7033.2887    2.2309324   0.48735836  0.094453332 
   50800   -959.59313    36.414445   -923.17868    1304.2334    6257.0863    2.2241569   0.36147631   0.10322388 
   50900   -956.00393    36.579581   -919.42435    1310.1479   -1095.3875    2.2027994  0.093927077   0.10452073 
   51000   -956.22044    33.772155   -922.44829    1209.5961   -3735.7317    2.1943215    0.2192825   0.10297978 
   51100   -959.32909    33.962095   -925.36699    1216.3991   -3656.2394    2.2015723   0.16423651   0.10339234 
   51200   -957.12983    37.376381   -919.75345    1338.6864    1733.3602    2.2050852    0.2396441  0.088685384 
   51300   -960.15214    38.437439    -921.7147    1376.6897    4370.4217    2.2191711   0.11817314  0.083871845 
   51400   -961.41496    34.951248   -926.46371    1251.8269    5392.9977    2.2285489   0.28293386  0.080856998 
   51500   -956.62055    37.462271   -919.15827    1341.7627   -1232.1269    2.1984559  0.099036448  0.085105531 
   51600   -955.67422    34.180377   -921.49384    1224.2171   -5860.1023    2.1892384   0.33487624   0.09600877 
   51700   -959.82958    34.710398   -925.11918    1243.2006   -4329.0768    2.1999162  0.088922096  0.093581618 
   51800   -957.02979    39.064404   -917.96539    1399.1453    1409.2839    2.2076642  0.080091213   0.10180179 
   51900   -957.95696    38.104415   -919.85255     1364.762    9729.2997    2.2290797   0.31814774  0.087344904 
   52000   -958.99097    35.641076    -923.3499    1276.5341     6717.062    2.2274101   0.32691423  0.098012861 
   52100   -957.13298    39.389628   -917.74336    1410.7936   -5078.2643    2.1905201  0.088982454   0.10045485 
   52200   -957.55161    38.506845   -919.04477    1379.1755   -11758.384    2.1752621   0.14711707   0.10408129 
   52300   -959.95137    36.400673   -923.55069    1303.7401   -8305.5608    2.1880674   0.17411617   0.09587703 
   52400   -956.11572    36.817305   -919.29842    1318.6624    4587.5443    2.2124186  0.065241991  0.091919368 
   52500   -957.51285    40.903025   -916.60983     1464.998    11262.577     2.229371   0.16353609  0.089298785 
   52600   -959.95848    36.620379    -923.3381    1311.6092    6931.6407     2.226998   0.13727299  0.085857882 
   52700   -957.85626    36.588936   -921.26733     1310.483   -4064.3326    2.1963999     0.168306  0.082334815 
   52800    -958.9259     40.82724   -918.09866    1462.2837   -8816.5565    2.1827733   0.22567995  0.081268237 
   52900   -963.02453    36.867004   -926.15753    1320.4424    -3167.728    2.2097321   0.14246446  0.091194075 
   53000    -958.9843    36.847955   -922.13635    1319.7601    859.72573    2.2092505   0.10730829  0.090093205 
   53100    -955.7916    36.529449   -919.26215    1308.3524    2869.7975    2.2052936   0.32148157  0.081632835 
   53200   -960.14485    34.198493   -925.94636     1224.866    828.84115    2.2131303   0.12381332   0.09266709 
   53300   -958.45607    35.348553   -923.10752     1266.057    -2666.481    2.2022604   0.27187523  0.098219721 
   53400   -956.88365    37.144243   -919.73941    1330.3721   -3253.6116    2.1972754  0.089266318  0.094639348 
   53500   -959.68801     35.51672   -924.17129    1272.0801    -1266.995    2.2078865   0.26637564  0.095792331 
   53600   -960.14152    36.211444   -923.93007    1296.9626    2169.8261    2.2168155   0.14194078  0.085130164 
   53700   -959.46182    40.937754   -918.52407    1466.2419    2107.2184    2.2095073  0.070164093  0.091400714 
   53800   -957.64208    34.868686    -922.7734    1248.8699   -727.98204    2.2058692   0.12580811  0.097577524 
   53900   -960.29638     36.29967   -923.99671    1300.1225   -6151.8298      2.19577  0.081382672  0.082387827 
   54000   -953.97245    37.242061   -916.73039    1333.8756   -7097.4905    2.1811569   0.03746384  0.093054034 
   54100    -959.3398    37.066504   -922.27329    1327.5878    411.48352    2.2078127   0.10920975  0.086406321 
   54200   -956.28341    33.795256   -922.48816    1210.4235    9580.5839     2.229123  0.045799074  0.094117406 
   54300   -954.61732    39.136777   -915.48054    1401.7374    9215.2495    2.2156688   0.16285684  0.091087805 
   54400   -956.78859     35.37513   -921.41346    1267.0089   -1318.0423     2.202487   0.22868977    0.1057008 
   54500   -958.26724      34.9303   -923.33694    1251.0767   -11213.229    2.1817109    0.1551732   0.10466408 
   54600   -954.23948     36.55976   -917.67972     1309.438   -8655.7332    2.1770252  0.048875467   0.11260004 
   54700   -957.57282    36.379841   -921.19298     1302.994    1752.8949    2.2092738     0.159821   0.11108169 
   54800   -959.03213    35.707125   -923.32501    1278.8997    8601.1419    2.2306881     0.181396    0.1106852 
   54900   -955.54419    36.199544   -919.34465    1296.5364    8948.5883    2.2198182  0.077371738   0.10316869 
   55000    -956.6645    36.492113   -920.17239    1307.0152   -1943.2405    2.1997989   0.09738942   0.09907845 
   55100   -960.25129    34.453363   -925.79793    1233.9945   -2593.0327    2.2030975  0.027211448  0.083494715 
   55200   -957.32927    36.677692   -920.65158    1313.6619   -2191.0499    2.1988003   0.29924407  0.097265115 
   55300   -958.32319    37.870777   -920.45242    1356.3939    -813.1657    2.2049268   0.10399827  0.096262558 
   55400   -960.21567    33.373975    -926.8417    1195.3348    4901.8285    2.2228973   0.26583883  0.079776122 
   55500   -958.13577    37.758483   -920.37728    1352.3719    204.10827    2.2070544   0.27106616  0.090438365 
   55600   -957.43713    36.734294   -920.70283    1315.6892   -808.57687     2.200462  0.050386555  0.095183773 
   55700   -963.81931    37.924365   -925.89495    1358.3132   -5323.8463    2.2047838   0.10373831  0.089846571 
   55800   -957.34082     37.18579   -920.15503    1331.8602   -2026.8442    2.2003059   0.22097592  0.095130665 
   55900   -957.28636    37.681175   -919.60519     1349.603    3594.3893    2.2127196  0.028062492   0.10361983 
   56000   -958.52171    34.922746   -923.59896    1250.8061    5104.4158    2.2230318   0.14122221  0.094780446 
   56100   -958.71843    37.797432     -920.921    1353.7669    1327.3466    2.2098368  0.038914382   0.09174248 
   56200   -951.63689    33.882099   -917.75479    1213.5339   -4529.8274    2.1842905   0.11041992   0.10277089 
   56300   -955.70571    32.337569   -923.36815    1158.2144   -9560.1434    2.1815619   0.24576429  0.094317614 
   56400   -957.48234    36.336759   -921.14558    1301.4509   -3929.7436     2.196713   0.13068847  0.084408794 
   56500   -952.46646    36.882837   -915.58362    1321.0095    10056.621     2.219144   0.49076512  0.093371784 
   56600   -958.83947    36.372123   -922.46735    1302.7175    12793.375    2.2420464   0.20626308  0.085545031 
   56700   -956.72009    34.848091     -921.872    1248.1322    4145.5797    2.2155583   0.21551285  0.090065277 
   56800   -952.23858    34.983401   -917.25518    1252.9786   -8076.6517    2.1774582   0.13485787   0.10634784 
   56900   -957.73359    33.144018   -924.58957    1187.0985   -7881.6004    2.1902435  0.063668539   0.11205835 
   57000   -957.18578    34.258913   -922.92687      1227.03        -1657    2.2023107  0.046080879   0.10318677 
   57100   -956.24328    37.449175    -918.7941    1341.2936    4285.2676    2.2132305   0.10138237   0.09090675 
   57200   -960.19808    36.051179    -924.1469    1291.2225    3674.0217    2.2222419    0.1383555  0.087151536 
   57300    -956.6871    32.418167   -924.26893    1161.1012    2490.6334    2.2129637  0.056709333  0.081382549 
   57400   -956.84448    37.014707   -919.82978    1325.7326   -3908.4872    2.1997025  0.026217106  0.098790855 
   57500   -955.87358    33.100169   -922.77341     1185.528   -1649.4199    2.2004359  0.074669828  0.089732395 
   57600   -960.83516     34.56411   -926.27105    1237.9611   -387.08399    2.2125247  0.097349558  0.087564914 
   57700   -957.79872    38.350864   -919.44785    1373.5889    255.48142    2.2071405   0.16002043  0.077013757 
   57800   -957.74251    36.084718   -921.65779    1292.4237    3115.6161    2.2148237  0.034820079  0.087488032 
   57900   -961.37335    35.403974   -925.96937     1268.042    2172.3075    2.2195196  0.030360756  0.095889818 
   58000   -956.61481    38.256465   -918.35834    1370.2079   -4039.3361    2.1958001  0.043652057  0.099296575 
   58100   -955.90907    35.545053   -920.36402    1273.0949   -2364.9858    2.1964135  0.032037284   0.10127906 
   58200   -958.34597    34.867971     -923.478    1248.8443    180.51872     2.209927  0.011531698  0.087588474 
   58300   -956.76517    36.517779   -920.24739    1307.9344    7328.7074    2.2220163  0.042151763  0.095239261 
   58400   -953.16205    36.015361   -917.14669    1289.9396    7512.7307    2.2157062   0.19398144   0.10610298 
   58500   -955.47545    32.870984   -922.60446    1177.3194    -1165.557    2.2036397   0.11225782   0.10559989 
   58600    -954.1532    32.121247   -922.03195    1150.4666   -6504.2862     2.187083   0.21648114   0.10323697 
   58700   -952.00899     36.40154   -915.60745    1303.7711   -7478.3784    2.1776363  0.098413547  0.098434704 
   58800   -957.65495    34.541929   -923.11302    1237.1666    5075.5699    2.2173902  0.049798847  0.099867467 
   58900   -958.36588    36.469373    -921.8965    1306.2007    8965.4455    2.2305326  0.077903763   0.10261846 
   59000   -956.17294    38.427448   -917.74549    1376.3318    4652.2329    2.2147283 0.0011916144  0.098436967 
   59100   -956.06385    34.628565   -921.43529    1240.2696   -3160.9094    2.1963807  0.074292746   0.10975122 
   59200   -957.51133    33.576512   -923.93482    1202.5889   -8644.1673    2.1880194   0.01880829   0.10264867 
   59300   -955.83686    35.871993   -919.96486    1284.8047    -3809.977    2.1955009   0.12837937  0.095313603 
   59400   -961.14009     41.24824   -919.89185    1477.3624    2560.6219     2.215275   0.19678155  0.082201823 
   59500   -961.91175    36.017643   -925.89411    1290.0214    7884.6966    2.2333968    0.1451993  0.082904194 
   59600   -956.04049     35.43448   -920.60601    1269.1346    3122.5282    2.2129659   0.10987264   0.10181859 
   59700   -958.28483    37.664096   -920.62074    1348.9913    -3029.768    2.1971357   0.15337804  0.099703514 
   59800   -962.87732    35.695176   -927.18215    1278.4718   -5594.7053    2.2052028  0.066346901  0.094335964 
   59900   -957.78759    36.841814   -920.94578    1319.5402   -2796.4678    2.1996128  0.054173522  0.086508309 
   60000    -957.9965    37.890722   -920.10577    1357.1083    2299.3184    2.2084952  0.029568445  0.089552646 
   60100    -960.4305    35.071595    -925.3589    1256.1374    2705.2669     2.219414   0.16970185  0.099380865 
   60200   -957.77621    36.034913    -921.7413    1290.6399    1972.8928    2.2120783  0.075524107   0.10160947 
   60300   -958.63252    39.274957   -919.35756    1406.6865   -1750.4218    2.2020528  0.024027273  0.078868293 
   60400   -956.90499    33.614469   -923.29052    1203.9484   -1406.8792    2.2028105  0.077759425  0.091942691 
   60500   -959.25822    36.238169   -923.02005    1297.9198   -1399.1177      2.20562    0.2463267  0.093477331 
   60600   -954.88112    37.950018   -916.93111     1359.232   -1824.8338    2.1974488   0.12224696   0.10013607 
   60700   -960.70165    38.566598   -922.13505    1381.3157   -821.28135    2.2092215  0.088902035  0.089218707 
   60800   -956.81311    34.141007    -922.6721     1222.807    2735.4119    2.2114758   0.46793401  0.088353397 
   60900   -952.90724    37.573136    -915.3341    1345.7335    395.97867    2.1950526   0.09415649  0.097788676 
   61000   -958.76597    36.873932   -921.89204    1320.6905   -128.83548     2.206312   0.12404479  0.094886489 
   61100   -960.06598     37.41054   -922.65544    1339.9099   -1872.1967    2.2054655  0.082545106   0.10400384 
   61200    -953.1642    36.111816   -917.05238    1293.3943    830.07382    2.1978838    0.1295223   0.10352784 
   61300   -959.25233    37.772519   -921.47981    1352.8746    907.72132    2.2096338   0.09056323  0.088563312 
   61400   -957.62117    34.372684   -923.24849    1231.1049    1727.6966    2.2101432    0.1850781  0.091528993 
   61500   -957.75597    38.031262   -919.72471    1362.1419   -2345.7952    2.2003438   0.23944346  0.093385153 
   61600   -957.03773     38.21326   -918.82447    1368.6604   -2316.1639    2.1949726  0.050583926  0.092113887 
   61700   -960.49208    34.951221   -925.54086     1251.826   -387.95963    2.2133945   0.33203132  0.085412459 
   61800    -960.0176    38.879546   -921.13806    1392.5244    687.34767    2.2134172  0.065162048  0.084939121 
   61900   -955.63577    36.049671    -919.5861    1291.1685    3707.0619     2.208528   0.11552325  0.093629722 
   62000   -961.07594    34.123465   -926.95248    1222.1788   -1022.1647    2.2126007   0.17475353  0.084589505 
   62100   -961.12216    38.896476   -922.22569    1393.1307   -7323.9774    2.1924203   0.10076581  0.090370996 
   62200   -957.04518    37.038848   -920.00633    1326.5972   -3211.6282     2.192218  0.031625539  0.091978519 
   62300   -959.15647    34.197275   -924.95919    1224.8224    1736.1418     2.216609   0.22503619   0.10841293 
   62400   -959.33594    35.015683   -924.32026    1254.1348    8106.5744    2.2306884  0.056960663   0.10293597 
   62500    -956.3022    37.046874   -919.25532    1326.8847    4598.3299    2.2154522   0.12341501  0.094310778 
   62600   -959.51758    36.558268   -922.95932    1309.3846   -4884.4548     2.197268   0.27821384  0.083944835 
   62700   -960.17284    34.859123   -925.31372    1248.5274   -10384.652    2.1864125   0.11838675  0.099639482 
   62800   -956.06802    38.208202   -917.85981    1368.4792   -8056.7647     2.181678   0.47422069   0.10354313 
   62900   -956.68884    35.596913   -921.09192    1274.9523    7088.1245    2.2182661     0.192924  0.085365434 
   63000   -957.41397    34.630286   -922.78368    1240.3313    12579.684    2.2394751   0.12085353  0.092715741 
   63100   -953.81267    38.040407   -915.77226    1362.4694    6380.2987    2.2109559   0.14566308  0.088957593 
   63200   -957.34189    37.143475   -920.19841    1330.3446   -3618.8343    2.1940994   0.05357247   0.10248785 
   63300    -956.2311    32.895652   -923.33545     1178.203   -5013.9423    2.1903586   0.26985038   0.10973721 
   63400   -954.34497    36.225197   -918.11977    1297.4552   -2016.3868    2.1944352   0.15018168   0.10744658 
   63500   -956.42035     37.53215    -918.8882    1344.2655    2406.5104    2.2056736  0.038349637    0.1028671 
   63600   -958.18291    34.741191   -923.44172    1244.3035    2436.3385    2.2154816    0.0359013   0.10895157 
   63700   -958.36585    38.340641   -920.02521    1373.2227    1940.0638    2.2090598    0.2182229   0.10727516 
   63800   -956.71106    38.744977   -917.96608    1387.7046   -2431.8231    2.1963644   0.13789579   0.10350605 
   63900   -958.85654    33.339482   -925.51706    1194.0993   -27.078089    2.2112274   0.10642174   0.10340701 
   64000    -957.0567    35.196899   -921.85981    1260.6253    189.12425    2.2073216   0.19867468  0.097031783 
   64100   -954.91043    35.570979   -919.33945    1274.0235   -885.23859    2.2043175  0.033677885     0.106521 
   64200   -959.57165    33.354204   -926.21745    1194.6266    284.27681    2.2144484   0.27137994  0.098143049 
   64300   -958.17164    34.677915   -923.49373    1242.0372   -1463.7723    2.2040292  0.067334135   0.10033407 
   64400   -954.85603    34.776248   -920.07978    1245.5591   -1498.2351    2.1998297  0.099983017   0.11328785 
   64500   -957.94283     34.40615   -923.53668    1232.3035    1713.9579     2.212005  0.060556304  0.099569758 
   64600   -960.81955    34.960784   -925.85876    1252.1685    3325.2167    2.2256247   0.28977905   0.10655762 
   64700   -955.59633    36.264758   -919.33157    1298.8721    3812.9938    2.2135148   0.14290612   0.10306411 
   64800   -960.73728    38.635463   -922.10182    1383.7822   -3951.7819    2.2019729  0.082102015  0.096884254 
   64900   -958.99039    32.543995    -926.4464    1165.6079   -5623.8894    2.2001313   0.11107657    0.1032594 
   65000   -957.36038    38.193645   -919.16673    1367.9578   -5879.1743    2.1924485   0.40187919   0.10252911 
   65100   -958.66351    38.444265   -920.21924    1376.9341    3586.7838    2.2197555   0.32279371  0.093510897 
   65200   -958.73476    35.818113   -922.91665    1282.8749    9755.9756    2.2354875   0.20264043  0.097627395 
   65300   -956.67981    36.586678   -920.09313    1310.4021    6104.8392    2.2203463   0.15015138  0.098102185 
   65400   -954.26983    37.094799   -917.17503    1328.6012   -4852.7516    2.1873624     0.109173   0.10272315 
   65500   -955.58812     32.80151   -922.78661    1174.8311   -9025.2256    2.1850344   0.11181259   0.11075818 
   65600   -958.48145     36.84112   -921.64033    1319.5153   -3876.7884    2.1977185   0.10982807   0.10942752 
   65700   -955.10212    39.936544   -915.16558    1430.3822    3536.5177    2.2066081   0.31645749  0.093622234 
   65800   -955.87039     33.31605   -922.55434    1193.2601    9244.7781    2.2280144  0.052856701   0.10197008 
   65900   -957.83694    35.637459   -922.19948    1276.4045    3083.4902    2.2152235  0.069776855   0.10120352 
   66000   -953.17749    35.677503   -917.49999    1277.8388   -3031.9542    2.1927336   0.30023556   0.10828153 
   66100   -956.32352    33.400099   -922.92342    1196.2704   -4838.2346    2.1947329  0.097250465   0.10644932 
   66200   -961.12689    37.576686    -923.5502    1345.8606   -4716.4856    2.2033742   0.40744717  0.082862327 
   66300   -957.97845    38.549066   -919.42938    1380.6878    1373.4969    2.2092643   0.20812065  0.099480886 
   66400   -959.02439    37.087099   -921.93729    1328.3254    3043.8477    2.2159534   0.30828641  0.097365134 
   66500   -960.05718    34.559859   -925.49732    1237.8088    1686.6538    2.2181477   0.28384135   0.09364108 
   66600   -958.50534    38.188976   -920.31636    1367.7906   -2096.0708    2.2055427   0.13584237  0.097279985 
   66700   -956.09997    35.344416   -920.75555    1265.9088   -684.12292    2.2016863  0.018359686  0.097988166 
   66800   -961.86999    34.598915   -927.27108    1239.2076    -973.7901     2.215791   0.16293034   0.09952889 
   66900   -954.16216    33.508479   -920.65369    1200.1522    1506.0603    2.2079798  0.096206121    0.1098209 
   67000   -956.33141    35.752694   -920.57872    1280.5318    3191.7049    2.2119552   0.17121985  0.097905929 
   67100   -959.48771    33.544626   -925.94309    1201.4469    1932.3472    2.2180896  0.047054813  0.095915165 
   67200   -956.90419    35.832041   -921.07215    1283.3737    546.93919    2.2067874  0.072087221  0.097655277 
   67300   -958.09309    38.347326   -919.74576    1373.4622   -2911.8952    2.2026496   0.28429946   0.10452574 
   67400   -959.16938    35.870561   -923.29882    1284.7534   -2522.3031    2.2038943   0.37144983   0.10144853 
   67500    -959.1157    35.473317   -923.64239    1270.5256   -1066.1616    2.2078116   0.15687298  0.097859821 
   67600   -954.35333    37.405011   -916.94832    1339.7119   -370.26887      2.19927   0.21166907   0.11972103 
   67700   -958.75387    37.207773   -921.54609    1332.6475    618.80536    2.2106502   0.13495673  0.098489486 
   67800   -958.99525    35.860934   -923.13431    1284.4086    2138.7119    2.2142729    0.1918944   0.10214137 
   67900   -955.13563    39.413676   -915.72195     1411.655   -443.49298    2.1951644  0.079993127    0.1051188 
   68000   -957.84185    37.095926   -920.74592    1328.6415   -396.88082    2.2023625  0.026158976    0.1003092 
   68100   -960.60998    37.652102   -922.95787    1348.5618   -1754.3374    2.2044106  0.084586633  0.092001885 
   68200   -957.02494    39.012355   -918.01259    1397.2811   -1323.5585    2.1995373   0.18354131  0.096840424 
   68300   -952.85581    34.234755   -918.62106    1226.1648     3931.539    2.2044086   0.29418014   0.10377161 
   68400   -958.08587     34.64254   -923.44333    1240.7702    2170.6226    2.2134388   0.21723207   0.10147835 
   68500   -955.57136    35.322174   -920.24919    1265.1122    1920.6129    2.2069482   0.18277099   0.12338929 
   68600   -957.29394    38.912697   -918.38124    1393.7117   -2843.2825    2.1962162   0.03391009   0.10495172 
   68700   -959.64419    33.679966   -925.96422    1206.2942   -122.89079    2.2085899   0.41161506   0.09978234 
   68800    -959.2704      37.3527    -921.9177    1337.8383   -712.17501    2.2059819  0.097288796   0.08610528 
   68900    -956.6711    37.200859   -919.47024    1332.3999    1696.4349    2.2065724  0.022911387  0.088509069 
   69000   -961.33783    34.941033    -926.3968    1251.4611    2274.6733    2.2178006  0.097217476  0.089753455 
   69100   -955.40204    32.321528   -923.08051    1157.6399    98.008519    2.2039454   0.17225651   0.10100332 
   69200   -956.99337    36.914878   -920.07849    1322.1571   -3354.6127    2.1926523  0.047032321  0.087551427 
   69300   -959.09428    35.284759   -923.80952    1263.7721   -2556.4009    2.2019671   0.14213008  0.083565288 
   69400   -961.16409    35.085935   -926.07816     1256.651    2018.6114    2.2190015   0.19881483  0.079660583 
   69500   -956.36796     37.10347   -919.26449    1328.9117    5800.8612    2.2150607   0.13501548  0.088498164 
   69600   -957.14247    35.384739   -921.75773     1267.353    1838.6761    2.2075397   0.15488865  0.093004684 
   69700   -960.94165    35.161783   -925.77987    1259.3676   -5617.6458    2.1964753  0.064721167  0.093058316 
   69800     -955.753    36.687069   -919.06593    1313.9978   -6341.5333    2.1827056   0.11858769   0.10696434 
   69900    -957.1865    37.511711   -919.67479    1343.5335    1838.1865    2.2074551  0.037768307   0.08952198 
   70000   -956.82579     34.54107   -922.28472    1237.1359    11107.003    2.2298439   0.17090691  0.090481024 
   70100   -957.33632    33.947177   -923.38915    1215.8648    8248.7802    2.2255888   0.20649714  0.085208472 
   70200   -955.32468    39.877447   -915.44723    1428.2655   -7785.1525    2.1767894  0.077522501  0.082975783 
   70300   -957.19841     35.93169   -921.26672    1286.9428   -9748.7375    2.1782087  0.095244169  0.082915246 
   70400   -960.24894    37.606558   -922.64238    1346.9305   -6264.8033    2.1949994 0.0045252113  0.081206814 
   70500   -953.92264    36.440694   -917.48195    1305.1735     6350.118    2.2122299   0.28054331  0.086575276 
   70600   -956.07718    38.247006   -917.83017    1369.8691    6553.1694    2.2164179   0.19359572  0.083983971 
   70700   -957.16724    34.482172   -922.68506    1235.0264    1508.5833    2.2091467   0.15675066  0.090713686 
   70800   -958.47131     37.39096   -921.08035    1339.2086   -3471.2481     2.196072  0.069264099  0.091243663 
   70900   -953.65367    37.402414   -916.25126    1339.6188   -3489.5713     2.186616   0.25073658   0.09735216 
[...]
  186800   -959.86022     36.99006   -922.87016    1324.8498   -8092.6571    2.1875648    18.679128  0.095445154 
  186900   -957.00672     36.62934   -920.37738    1311.9301   -2686.0498    2.1966512    21.882893   0.09710821 
  187000   -954.93239    40.718377   -914.21401    1458.3846    9235.5532    2.2213397    22.793887    0.1024346 
  187100   -956.46565    34.752083   -921.71357    1244.6936     17438.89    2.2474569    20.077765   0.10700896 
  187200   -957.32548    35.392966   -921.93251    1267.6477    3129.4589    2.2097973    21.375072   0.10084644 
  187300   -952.86358    34.564919   -918.29866      1237.99   -9502.1827    2.1718579    21.224141  0.093866409 
  187400   -957.53255    35.639969   -921.89258    1276.4944   -12268.577    2.1751396    21.932953   0.10598609 
  187500   -960.16656    35.843131   -924.32343     1283.771   -1492.8201    2.2053001    21.372748  0.097325365 
  187600   -956.81466    36.674752    -920.1399    1313.5566    7035.7163    2.2238078    20.078476   0.10360723 
  187700   -955.87589    35.308884   -920.56701    1264.6362    8969.1232     2.223635    20.797326   0.10947052 
  187800   -960.15202    32.979024     -927.173    1181.1891    2039.7868    2.2177363    19.336036  0.097347857 
  187900   -955.48739    34.392473   -921.09492    1231.8137   -6318.9158    2.1883384     23.20001   0.10353886 
  188000   -960.10834    39.514873   -920.59347    1415.2795   -8564.5585    2.1878416    21.507183  0.095647738 
  188100   -962.87373     36.52217   -926.35156    1308.0917   -511.51822    2.2131477    19.639319  0.088673613 
  188200   -957.94783    36.094355   -921.85348    1292.7689    5055.7794    2.2215579    20.348888  0.090394803 
  188300   -958.24625    38.639844    -919.6064    1383.9391    5690.1406    2.2210898    20.893513   0.08735026 
  188400   -957.66516    33.628438   -924.03672    1204.4487    547.18174    2.2127481    20.692061  0.099185965 
  188500   -957.30444    34.186753   -923.11769    1224.4455   -4930.5371    2.1928246    21.703033  0.097554013 
  188600   -953.76942    35.588552   -918.18087    1274.6529   -6835.8348    2.1817691    20.187958   0.10457035 
  188700   -958.60099    36.221566   -922.37942    1297.3251   -2771.2141     2.200919    19.274007   0.08740587 
  188800   -960.98908    38.071326   -922.91775    1363.5768    4513.4161    2.2242182    22.123596  0.090863089 
  188900    -953.0388    37.890079   -915.14872    1357.0852    9330.3043    2.2167317    21.051781   0.11297286 
  189000   -957.23753    36.301239   -920.93629    1300.1787    3281.0043    2.2120954    18.589011   0.10247577 
  189100   -957.94337    34.663979   -923.27939     1241.538   -12377.282    2.1771038    21.501247   0.10182617 
  189200   -954.09536    37.043373   -917.05199    1326.7593    -17295.68     2.150837    20.454881  0.096892057 
  189300   -954.50035    35.826848    -918.6735    1283.1878    -2071.973    2.1930228    21.436486   0.10115127 
  189400   -961.51562    39.554748   -921.96088    1416.7076    10095.421     2.237244    20.710107    0.0905788 
  189500   -959.30416    38.844172   -920.45998    1391.2574    10669.527    2.2315939    20.418008   0.08293109 
  189600   -952.61151    37.056043   -915.55547    1327.2131    2586.9238      2.19868     20.84136  0.093413629 
  189700   -957.74429    35.943191    -921.8011    1287.3548   -6281.2907     2.189221    23.553159  0.097899181 
  189800   -958.16539    35.649427   -922.51596    1276.8332   -8434.7945    2.1861348    22.575788   0.10653086 
  189900   -956.45086    35.869427   -920.58143    1284.7128   -2103.9015     2.198881    17.599972   0.10266638 
  190000   -956.12565     36.52369   -919.60196    1308.1461    6715.2512    2.2168991    19.583619    0.1008128 
  190100   -962.74341    35.368726   -927.37469    1266.7795    10191.873    2.2393887    20.767049  0.094957637 
  190200    -959.0774    36.014554   -923.06285    1289.9107    2197.1476    2.2123596    20.384133  0.095616033 
  190300   -954.03012    33.248761   -920.78136      1190.85   -5578.6426    2.1845564    22.928454   0.10967208 
  190400   -957.11655    36.482123   -920.63443    1306.6573   -8918.0842    2.1811217    20.727086    0.1057467 
  190500   -960.80984    32.913099   -927.89674    1178.8279     1942.485    2.2166582    18.671637  0.086474792 
  190600   -957.03279    35.319199   -921.71359    1265.0056     7499.214    2.2230603    22.127975   0.10175568 
  190700   -957.31976     36.95845   -920.36131    1323.7177    6886.4132    2.2183493     21.23167  0.088401559 
  190800   -959.53278    34.241248   -925.29154    1226.3973    697.14952    2.2084563    19.793013  0.089422621 
  190900   -961.15735    35.447365   -925.70998    1269.5961   -5230.6344    2.1980504     19.98257  0.088956172 
  191000   -959.92375    39.348795   -920.57496    1409.3311   -5099.5073    2.1935019    18.944952  0.082071601 
  191100   -956.31264    34.422328   -921.89031     1232.883   -103.29797    2.2039676    21.119472   0.10042654 
  191200   -960.78377     33.93978   -926.84399    1215.5998    2897.9842    2.2192776    20.829009  0.085097702 
  191300   -957.27435    35.092041   -922.18231    1256.8697    4754.4156    2.2150491    19.057309  0.084340075 
  191400   -960.12605    39.707011   -920.41904    1422.1611    318.75341    2.2074169    22.041792  0.090247445 
  191500   -959.24758    37.104236   -922.14334    1328.9392   -2979.4067    2.1998926    20.589475  0.090836952 
  191600    -958.2554      34.9255    -923.3299    1250.9048   -2995.3056    2.1984402    23.709724  0.096249409 
  191700   -962.65296    32.834009   -929.81895    1175.9951   -3339.1286      2.20967    20.804106  0.084507886 
  191800   -960.60192     32.57162    -928.0303    1166.5973    378.46497    2.2125742    20.512637   0.08350544 
  191900   -957.88281     34.18417   -923.69864     1224.353    3048.6223    2.2140569    19.898032  0.089263766 
  192000   -956.02766    35.006179   -921.02148    1253.7944    4696.2712    2.2101059    21.653293  0.086853246 
  192100      -957.99    37.905447   -920.08455    1357.6357   -733.40043    2.2007583     23.63329  0.089029378 
  192200   -960.51875    32.740566   -927.77819    1172.6483    16.788595    2.2113165    20.759441  0.078224241 
  192300   -958.24618    34.618497   -923.62768     1239.909   -2272.0454    2.2002061    18.539989  0.078626848 
  192400   -954.96224    34.395535    -920.5667    1231.9233    774.65228    2.1982166    20.308116   0.09247046 
  192500   -959.66258    37.274407   -922.38818    1335.0341   -471.29476      2.20563    21.622498  0.089134437 
  192600     -960.305    32.596875   -927.70813    1167.5018    4899.9168    2.2211012    18.723665  0.076081213 
  192700    -954.6358    33.968719   -920.66708    1216.6363    2229.2705    2.2030141    21.210527    0.0914227 
  192800   -958.27786    37.074455   -921.20341    1327.8725   -3227.1604    2.1945298    19.969458  0.087397395 
  192900   -957.28001    31.618987   -925.66103    1132.4775   -1597.4855    2.2004169       23.165  0.091990348 
  193000   -960.83061    35.496449   -925.33417    1271.3541   -1493.9161    2.2089861    21.490127   0.09776474 
  193100   -958.08691    37.910434   -920.17647    1357.8143    4236.3469    2.2145975    19.316308  0.091656176 
  193200   -957.60739    36.027779   -921.57961    1290.3844    4017.2185    2.2134752    22.200149  0.081982748 
  193300   -959.87092    34.263916   -925.60701    1227.2092   -4714.8761    2.1991826    18.336911  0.096280012 
  193400   -962.93432    34.660787   -928.27354    1241.4237   -8647.2942    2.1925311    19.428674  0.080577155 
  193500   -957.78384    36.482738    -921.3011    1306.6794   -5123.4242    2.1916941    20.789772   0.08643495 
  193600   -957.44254    35.983819   -921.45872    1288.8099    5616.8668     2.217204    17.842322  0.088700554 
  193700   -954.95605    33.788718   -921.16733    1210.1893     13628.42    2.2325669    20.731901  0.096963329 
  193800   -954.04141    40.390161   -913.65124    1446.6291    3548.3502    2.2045273    21.377207  0.099802247 
  193900   -955.69644     36.99806   -918.69838    1325.1363    -4605.303    2.1864329    21.977238  0.092745633 
  194000   -955.67416    33.714931   -921.95923    1207.5466   -9282.5074    2.1768213    22.203215  0.099667792 
  194100   -957.86393    36.337818   -921.52611    1301.4889   -4898.5407    2.1931066    20.864366  0.099403477 
  194200   -953.34215    39.265604   -914.07655    1406.3515    6360.9734    2.2090838    22.526771   0.10771482 
  194300   -956.14964    36.024332   -920.12531    1290.2609    10494.365    2.2274861    19.208952  0.096362764 
  194400   -958.75922    36.424661   -922.33455    1304.5993    1150.8882    2.2101571    25.264366  0.092562502 
  194500   -957.96348    37.511629   -920.45185    1343.5305   -4700.2462    2.1937254    20.096548  0.091220949 
  194600   -952.10264    38.417722   -913.68491    1375.9835   -3184.2947     2.182932    19.358135   0.10291011 
  194700   -959.38276    37.450339   -921.93242    1341.3353    1870.4771    2.2124862    19.789095  0.091343928 
  194800   -960.89222    38.854814    -922.0374    1391.6385   -891.94732    2.2135229    20.119572  0.090361802 
  194900   -958.10074    37.430868   -920.66987     1340.638   -263.60416    2.2074169    19.628605  0.093657166 
  195000   -955.18983    41.196135    -913.9937    1475.4962   -3519.3774    2.1898539    20.762595   0.10556779 
  195100   -955.54486    35.687404   -919.85746    1278.1934    40.552136    2.2010341    20.295682  0.094256631 
  195200   -959.97324    38.220692   -921.75255    1368.9266   -3533.7567    2.2016008    19.845072   0.10055302 
  195300   -956.67435    35.180393   -921.49395    1260.0341   -660.80002    2.2048735    21.303085  0.094726394 
  195400   -955.48207    35.033128   -920.44894    1254.7596    3452.1472    2.2130084    20.613051  0.099645917 
  195500   -952.80236    39.847962   -912.95439    1427.2095    1161.2336    2.1951467    20.757926    0.1158432 
  195600    -955.7358    36.058724   -919.67708    1291.4927   -2320.0225    2.1967538    20.046218   0.10583992 
  195700   -958.19447    36.220602   -921.97387    1297.2906    -2412.034    2.1994926    22.350271  0.090060084 
  195800   -960.43346    38.149472   -922.28399    1366.3757   -351.94901    2.2080896    20.828886  0.083536634 
  195900   -958.87986    44.573419   -914.30644    1596.4582   -1239.5957    2.2013685    19.104729   0.09290686 
  196000   -956.12598    35.758762   -920.36722    1280.7492    5248.1448    2.2170451    22.916088  0.096711851 
  196100   -957.96468     35.60973   -922.35495    1275.4114    1499.5931     2.210192    19.595145   0.08817805 
  196200    -955.8192    36.467672   -919.35153    1306.1398   -3619.4146    2.1915716    21.019769   0.10348045 
  196300   -953.13286    37.248174   -915.88469    1334.0945   -4884.4307    2.1802841    20.326187  0.087279185 
  196400   -958.36589    35.558607   -922.80728    1273.5803   -600.41674    2.2039155    21.292334   0.08912845 
  196500   -957.11905    36.211061   -920.90799    1296.9489    8525.1948    2.2223895    20.355274  0.099553431 
  196600   -956.85898    41.172616   -915.68636    1474.6538     6376.643    2.2170269    19.567638  0.097827327 
  196700   -957.49572    36.005571   -921.49015     1289.589   -1295.0622    2.2039354    21.190227   0.10106622 
  196800   -958.53933    35.728818   -922.81051    1279.6767   -10429.052    2.1804719    20.514087  0.094218335 
  196900   -957.68141    37.383736   -920.29767    1338.9498   -8938.5023    2.1821509    23.272042   0.10447949 
  197000   -956.95878    38.726626   -918.23215    1387.0473    902.72149    2.2053016    19.810591   0.10045113 
  197100   -960.35298    33.912263   -926.44071    1214.6143    10790.486    2.2388988    23.352754  0.088625008 
  197200   -958.61236    35.017947   -923.59441    1254.2159    3781.0958    2.2177425    20.795006  0.085094413 
  197300   -953.63856    32.795174   -920.84339    1174.6042   -1251.9032    2.1954847    20.763318   0.10259768 
  197400   -959.39638    39.401499   -919.99488    1411.2188   -6291.7921    2.1898344    20.108281  0.095738178 
  197500    -962.5827    35.020677   -927.56203    1254.3136   -714.71963    2.2150218    19.989398  0.080036379 
  197600   -958.38484    36.374034    -922.0108     1302.786    2867.7125    2.2129878    19.859342  0.097761712 
  197700   -959.73853    39.699697   -920.03883    1421.8992    988.82748    2.2088968    19.075356   0.08690747 
  197800   -959.93439    34.515748   -925.41864    1236.2289   -1008.5079    2.2100127    19.949679   0.10233791 
  197900   -959.80088    35.103956   -924.69693    1257.2964   -3032.8417    2.2028456    20.485899   0.11420011 
  198000   -956.64775    36.567561   -920.08019    1309.7174   -2577.7104    2.1986045    21.492439   0.10117977 
  198100   -958.76245    36.323231   -922.43922    1300.9664   -509.70642    2.2058863    21.925621  0.098580883 
  198200    -961.0529    34.052075   -927.00083    1219.6218    1406.0769    2.2176651    20.733935  0.089015304 
  198300   -958.25166    38.947808   -919.30385    1394.9693    140.73355    2.2048946    22.083999  0.093937035 
  198400   -957.39588    36.925374   -920.47051     1322.533    1786.0845     2.209609    21.767297  0.091657105 
  198500   -959.49037    36.162822   -923.32755    1295.2211    711.95371    2.2103937    20.195675  0.094226783 
  198600   -957.13284    35.373205   -921.75964    1266.9399   -1977.2634    2.2014701    23.358356  0.095247136 
  198700   -953.81036     36.74768   -917.06268    1316.1686   -2989.1783    2.1892353    19.815269  0.096591815 
  198800   -958.10658    36.316814   -921.78977    1300.7366    -3164.635    2.1988806    22.363782  0.095930589 
  198900    -960.6056    38.023673   -922.58193    1361.8701    27.508075    2.2125718    20.189078  0.080792896 
  199000   -951.84073     36.73123    -915.1095    1315.5794    7201.4869    2.2116967    20.391331   0.10900439 
  199100   -957.11164    36.803295   -920.30835    1318.1606    6261.8014    2.2210822    20.347386   0.10749242 
  199200   -959.65059     36.84893   -922.80166    1319.7951   -1094.2651    2.2064317    22.643298   0.09449906 
  199300   -956.53117    37.254852   -919.27632    1334.3337    -8158.326    2.1828131    20.684376   0.10609972 
  199400   -953.32128    36.976541   -916.34474    1324.3656   -7301.6265    2.1791847    19.173181   0.10101657 
  199500    -959.6327     36.22249   -923.41021    1297.3582    2857.4723    2.2151665     22.11306   0.08360525 
  199600   -956.85339    36.304287    -920.5491    1300.2879    11209.605    2.2337735    20.508169  0.096995005 
  199700    -955.2581    37.442609   -917.81549    1341.0585    6781.2985      2.21977    21.823424  0.089180102 
  199800   -961.04139    35.886387     -925.155    1285.3202   -3779.5704    2.2052082    20.145679  0.088230324 
  199900   -957.61685    34.307436   -923.30942     1228.768    -9718.133    2.1848146     23.83657  0.093307981 
  200000    -957.7631    37.586595   -920.17651    1346.2155   -5897.9949    2.1911116    21.405832  0.096130968 
  200100   -959.76948    36.782083    -922.9874    1317.4008    1855.8662    2.2140435    20.863005  0.089159945 
  200200   -960.80086    34.692374   -926.10849     1242.555    4567.8192    2.2272504    21.533782  0.087517796 
  200300   -957.36039    37.185039   -920.17535    1331.8332    2861.6599    2.2125924    19.454702  0.096760894 
  200400   -955.24586    33.547483   -921.69838    1201.5492   -329.75177    2.2023196    20.983704   0.10133131 
  200500    -961.3321    33.783246   -927.54886    1209.9934   -3845.3227    2.2071425    20.867311  0.097090584 
  200600   -955.72368    35.441216   -920.28246    1269.3758   -1489.4431    2.1967256    19.701187  0.088667144 
  200700   -956.92033    36.383336   -920.53699    1303.1192    2627.1741    2.2108137    21.776573  0.099300889 
  200800   -960.39011    36.170365   -924.21974    1295.4913    4058.3426    2.2236205     21.24401  0.095390086 
  200900   -959.63455    35.822032   -923.81252    1283.0153    3161.8168    2.2193497    21.785686  0.099805417 
  201000    -957.8721    39.477902    -918.3942    1413.9553   -6404.1082    2.1937617    20.837507   0.10139087 
  201100   -955.20578    33.249148   -921.95663    1190.8639   -7588.0774    2.1805627    20.910218   0.10092288 
  201200   -957.49149    34.662614   -922.82887    1241.4891   -6943.7165    2.1909159    23.430114   0.10595421 
  201300   -956.83814    41.647582   -915.19056    1491.6653    3986.7583    2.2109131     20.42244   0.10580713 
  201400     -958.406    38.577634   -919.82837     1381.711    17374.913    2.2467718    23.299318   0.10208064 
  201500   -957.13186    34.690395   -922.44146    1242.4842    8130.4469    2.2270774    20.936333   0.10034101 
  201600   -956.40947    37.196955   -919.21252      1332.26   -4960.7331    2.1890249    21.710006   0.11327273 
  201700    -955.6336    38.597528   -917.03608    1382.4235   -10798.484    2.1750453    20.328156   0.11796158 
  201800     -958.621    34.758803    -923.8622    1244.9343      -2135.3     2.204005    22.925203   0.10978744 
  201900   -957.12922    36.531352   -920.59787    1308.4206    5524.9887    2.2143752    18.260697  0.084942509 
  202000   -956.30224    38.895825   -917.40641    1393.1074    4786.4979    2.2128517    18.629852   0.09447524 
  202100   -956.98683    31.737281   -925.24955    1136.7143    6481.8205    2.2207969    20.860352   0.10593876 
  202200   -959.94026    37.654579   -922.28569    1348.6505   -4078.6689    2.1969444    19.750549  0.089449451 
  202300   -955.15043    35.448432   -919.70199    1269.6343   -6321.8223    2.1847883    21.098523   0.10505563 
  202400    -961.5274    35.492759   -926.03464    1271.2219    -3502.208    2.2036106      20.9909  0.092137456 
  202500   -958.96431    35.098041   -923.86627    1257.0845    2725.8043    2.2161885     19.18211  0.094212228 
  202600   -959.48803    40.016788   -919.47124    1433.2562    5238.3963    2.2205312    21.611542  0.096872012 
  202700   -958.80792    35.456114   -923.35181    1269.9094    3309.1426    2.2183658    20.141041  0.095424666 
  202800   -959.60431    32.888574   -926.71574    1177.9494   -1958.9295    2.2058378    18.076213  0.092608903 
  202900   -955.38758    35.681351   -919.70623    1277.9766    -8529.519     2.179626    20.863491   0.11801155 
  203000   -957.00127    35.121412   -921.87985    1257.9216    -4723.056    2.1939034    18.259295   0.11446269 
  203100   -959.89019    34.894608   -924.99558    1249.7983    5899.4408    2.2228009    19.330416   0.10082841 
  203200   -955.79457    38.511137   -917.28343    1379.3293     9639.775    2.2233607    18.802597   0.10185605 
Loop time of 146.642 on 1 procs for 200000 steps with 217 atoms

Performance: 353.515 ns/day, 0.068 hours/ns, 1363.870 timesteps/s
100.0% CPU use with 1 MPI tasks x no OpenMP threads

MPI task timing breakdown:
Section |  min time  |  avg time  |  max time  |%varavg| %total
---------------------------------------------------------------
Pair    | 143.43     | 143.43     | 143.43     |   0.0 | 97.81
Neigh   | 0.14678    | 0.14678    | 0.14678    |   0.0 |  0.10
Comm    | 0.84337    | 0.84337    | 0.84337    |   0.0 |  0.58
Output  | 0.067952   | 0.067952   | 0.067952   |   0.0 |  0.05
Modify  | 1.8479     | 1.8479     | 1.8479     |   0.0 |  1.26
Other   |            | 0.3008     |            |       |  0.21

Nlocal:    217 ave 217 max 217 min
Histogram: 1 0 0 0 0 0 0 0 0 0
Nghost:    957 ave 957 max 957 min
Histogram: 1 0 0 0 0 0 0 0 0 0
Neighs:    4254 ave 4254 max 4254 min
Histogram: 1 0 0 0 0 0 0 0 0 0
FullNghs:  8508 ave 8508 max 8508 min
Histogram: 1 0 0 0 0 0 0 0 0 0

Total # of neighbors = 8508
Ave neighs/atom = 39.2074
Neighbor list builds = 247
Dangerous builds = 1
Total wall time: 0:02:29
