LAMMPS (3 Mar 2020)
Reading data file ...
  orthogonal box = (0 0 0) to (17.469 17.469 17.469)
  1 by 1 by 1 MPI processor grid
  reading atoms ...
  217 atoms
  read_data CPU = 0.000997161 secs
Reading potential file library.meam with DATE: 2012-06-29
Reading potential file LiSi.meam with DATE: 2020-11-07
1 atoms in group Li
Neighbor list info ...
  update every 1 steps, delay 10 steps, check yes
  max neighbors/atom: 2000, page size: 100000
  master list distance cutoff = 6
  ghost atom cutoff = 6
  binsize = 3, bins = 6 6 6
  2 neighbor lists, perpetual/occasional/extra = 2 0 0
  (1) pair meam/c, perpetual
      attributes: full, newton on
      pair build: full/bin/atomonly
      stencil: full/bin/3d
      bin: standard
  (2) pair meam/c, perpetual, half/full from (1)
      attributes: half, newton on
      pair build: halffull/newton
      stencil: none
      bin: none
Setting up Verlet run ...
  Unit style    : metal
  Current step  : 0
  Time step     : 0.00116786
Per MPI rank memory allocation (min/avg/max) = 9.27 | 9.27 | 9.27 Mbytes
Step PotEng KinEng TotEng Temp Press Density c_msdli[4] 
       0   -951.04357    50.256344   -900.78722         1800   -114161.75    1.8918427            0 
     100   -918.79209    34.010941   -884.78115    1218.1486   -79677.192    1.8918427  0.041389255 
     200    -908.0339    48.161178   -859.87272    1724.9588   -69166.526    1.8918427   0.12772152 
     300    -896.4136    49.980474   -846.43312    1790.1193   -56754.437    1.8918427    0.2110375 
     400   -901.78098    45.447171    -856.3338    1627.7528   -65383.638    1.8918427   0.94522787 
     500   -906.87591    49.964394   -856.91152    1789.5434   -67681.763    1.8918427  0.015995725 
     600   -901.45196    52.207337   -849.24463    1869.8775   -61303.583    1.8918427   0.11961732 
     700   -904.86052     50.45142    -854.4091    1806.9869   -65480.838    1.8918427   0.03905759 
     800   -904.31454    45.746824   -858.56772    1638.4853    -67889.52    1.8918427   0.32795109 
     900   -903.63301    52.426744   -851.20627    1877.7358   -63880.199    1.8918427  0.048028232 
    1000   -902.97385    51.705833   -851.26802    1851.9154   -62307.057    1.8918427   0.18971018 
    1100   -907.87993    49.988324   -857.89161    1790.4005    -70157.04    1.8918427   0.57246827 
    1200   -900.41468    50.696946   -849.71774    1815.7808   -61693.471    1.8918427   0.22252668 
    1300   -899.15527    46.341816   -852.81346    1659.7958   -64193.773    1.8918427   0.29801948 
    1400   -900.57307    46.312192   -854.26088    1658.7348   -63817.111    1.8918427    1.5447545 
    1500   -904.98762     55.27262     -849.715    1979.6648   -65367.857    1.8918427   0.20538559 
    1600   -905.52301    48.969997   -856.55302    1753.9277   -67528.071    1.8918427   0.29502666 
    1700   -906.44404    49.399557   -857.04448     1769.313   -67588.276    1.8918427   0.29574132 
    1800   -902.57493    51.219474   -851.35546    1834.4958   -63150.638    1.8918427    1.1602446 
    1900   -904.25699    48.263514   -855.99348     1728.624   -64745.553    1.8918427   0.21681559 
    2000   -907.01049    53.066162   -853.94433    1900.6375   -68415.546    1.8918427     6.546532 
    2100   -900.98659    53.727882   -847.25871    1924.3379   -61245.011    1.8918427    4.1366956 
    2200   -906.07358     49.24251   -856.83107    1763.6881   -68842.944    1.8918427    3.5953312 
    2300     -903.429    49.358461   -854.07054    1767.8411   -68196.257    1.8918427    3.1270979 
    2400     -901.611    50.298509   -851.31249    1801.5102   -66178.527    1.8918427    7.1312561 
    2500   -905.74381    49.218582   -856.52522    1762.8311   -69183.804    1.8918427    4.3894014 
    2600   -903.42738    48.482561   -854.94482    1736.4695   -64753.473    1.8918427    4.5143621 
    2700   -900.31383      51.2429   -849.07093    1835.3348    -60583.92    1.8918427    5.1445947 
    2800   -907.10969    53.490119   -853.61957    1915.8221    -66892.41    1.8918427    6.7485096 
    2900   -904.27219    50.379711   -853.89248    1804.4185   -67246.262    1.8918427     7.933247 
    3000   -905.86837    53.245617   -852.62275    1907.0649   -71108.242    1.8918427    5.4881278 
    3100   -905.60203    52.743319   -852.85871    1889.0744   -69487.277    1.8918427    6.3797894 
    3200   -898.98522      48.7758   -850.20942    1746.9723   -64237.402    1.8918427    4.7875978 
    3300   -900.38012    46.513186   -853.86694    1665.9336   -65349.923    1.8918427    4.9260796 
    3400   -905.99896    47.049813   -858.94915    1685.1537   -71875.622    1.8918427     4.959036 
    3500      -900.92    53.239167   -847.68084    1906.8339   -61500.292    1.8918427      3.02583 
    3600   -902.81277    49.051477   -853.76129     1756.846   -65630.449    1.8918427   0.14642439 
    3700   -906.55787     47.30711   -859.25076    1694.3691   -68637.581    1.8918427   0.11874581 
    3800   -905.25998    51.072698   -854.18728    1829.2388   -65596.203    1.8918427   0.48475815 
    3900   -904.22978    55.132927   -849.09685    1974.6615    -64853.06    1.8918427   0.11123633 
    4000   -906.67163    50.539918   -856.13171    1810.1566   -69254.182    1.8918427   0.14405066 
    4100   -909.35228    45.028885   -864.32339    1612.7714    -72147.08    1.8918427   0.17123396 
    4200   -903.65506    52.177593   -851.47747    1868.8122   -65884.448    1.8918427   0.17565838 
    4300   -901.96515    50.906238   -851.05891    1823.2768   -63846.701    1.8918427  0.075784527 
    4400   -905.02362    46.854189   -858.16943    1678.1471   -69577.101    1.8918427   0.16075718 
    4500   -902.93789    49.302594    -853.6353    1765.8401   -64541.954    1.8918427  0.063757114 
    4600     -903.881    53.223532   -850.65747    1906.2739   -63979.335    1.8918427    0.2374852 
    4700    -906.6647    45.885645   -860.77906    1643.4574   -71002.784    1.8918427   0.88923103 
    4800   -900.92049    46.584061   -854.33643    1668.4721   -65185.126    1.8918427   0.77642554 
    4900    -898.8633    48.725957   -850.13734    1745.1871   -63519.668    1.8918427    1.3138597 
    5000   -897.59917    50.078708   -847.52046    1793.6377   -62174.493    1.8918427    1.9441022 
    5100   -907.93047    52.842964   -855.08751    1892.6433   -70400.446    1.8918427    9.4808087 
    5200   -903.71832    52.145329   -851.57299    1867.6566   -70008.183    1.8918427    12.473564 
    5300    -903.1376    55.051926   -848.08568    1971.7603   -67692.996    1.8918427    5.9839991 
    5400   -905.80343    53.683686   -852.11974    1922.7549    -69981.23    1.8918427    8.0170516 
    5500   -903.27029    50.579481   -852.69081    1811.5736   -65554.706    1.8918427    3.6229244 
    5600   -907.51691    47.426995   -860.08991     1698.663   -72163.602    1.8918427    5.9518947 
    5700   -898.41077     47.84482   -850.56595    1713.6279   -63167.908    1.8918427    6.0634727 
    5800   -900.58376    51.699711   -848.88405    1851.6961   -63475.519    1.8918427    6.5986309 
    5900   -904.00387    46.132903   -857.87097    1652.3133   -69320.365    1.8918427    5.7298277 
    6000   -901.11982    48.485345   -852.63448    1736.5692   -65990.371    1.8918427    6.1616538 
    6100   -901.21297    52.581148   -848.63182     1883.266   -65054.415    1.8918427    3.1473801 
    6200   -905.31889    45.807497    -859.5114    1640.6584   -68070.373    1.8918427    6.3380173 
    6300   -900.04716    47.995864    -852.0513    1719.0378   -64528.671    1.8918427     5.177849 
    6400   -901.46984    50.064166   -851.40568    1793.1169   -67759.222    1.8918427      4.27328 
    6500   -904.34647    47.333378   -857.01309    1695.3099   -68681.273    1.8918427    6.1356576 
    6600   -907.80895    50.843858   -856.96509    1821.0426   -70348.221    1.8918427    4.6079677 
    6700   -906.60527    55.709891   -850.89538    1995.3263   -67058.182    1.8918427    5.9250634 
    6800   -903.42587    49.847466   -853.57841    1785.3555    -64825.19    1.8918427    5.8818826 
    6900   -906.80614    48.173783   -858.63236    1725.4102   -70019.951    1.8918427    4.8346867 
    7000    -903.0432    52.681733   -850.36147    1886.8686   -66883.122    1.8918427    5.4416184 
    7100   -900.79937    48.108167   -852.69121    1723.0601   -65175.297    1.8918427    6.2274743 
    7200   -908.93151    49.053184   -859.87833    1756.9072   -71139.707    1.8918427    7.0483744 
    7300   -903.47063     49.60597   -853.86466     1776.706   -66954.635    1.8918427     5.844648 
    7400   -899.70836    50.244507   -849.46385     1799.576   -62844.044    1.8918427    6.1682199 
    7500   -896.71678       47.669   -849.04778    1707.3307   -63363.174    1.8918427    6.8245434 
    7600   -905.14939    47.858122   -857.29127    1714.1044   -70379.066    1.8918427     5.534731 
    7700   -898.07063     49.42279   -848.64783    1770.1451    -59988.63    1.8918427    6.1496071 
    7800   -902.42933    54.445671   -847.98366    1950.0465   -64394.745    1.8918427    3.9792415 
    7900   -906.70934    52.288691   -854.42065    1872.7913   -67925.134    1.8918427    5.1905195 
    8000    -903.8383    52.831265   -851.00703    1892.2243   -67495.173    1.8918427    6.4603799 
    8100   -898.53386    53.087502   -845.44636    1901.4018   -63561.918    1.8918427    4.7542666 
    8200   -905.44229    51.839391    -853.6029     1856.699   -68871.205    1.8918427    5.4857621 
    8300   -903.04811    50.064093   -852.98401    1793.1143       -65266    1.8918427     5.229609 
    8400   -898.78144    52.250174   -846.53127    1871.4117   -61429.501    1.8918427    6.9283827 
    8500   -903.79793    45.888462   -857.90947    1643.5583   -68907.702    1.8918427    8.7668823 
    8600   -901.91939    51.960858   -849.95853    1861.0495   -64650.814    1.8918427    11.009191 
    8700   -901.48697    52.579299   -848.90768    1883.1998   -63089.888    1.8918427    11.278663 
    8800   -905.38468    49.414737   -855.96995    1769.8567   -67616.857    1.8918427    8.7663328 
    8900   -899.27759    51.938915   -847.33868    1860.2636   -63664.407    1.8918427    8.6736233 
    9000   -898.94152     51.49876   -847.44276    1844.4988   -62175.277    1.8918427     10.84465 
    9100   -906.05174    50.118131   -855.93361    1795.0497    -70833.59    1.8918427    8.0101972 
    9200   -906.39536    54.362495   -852.03286    1947.0674   -69100.609    1.8918427    16.840045 
    9300   -896.15881       54.407   -841.75181    1948.6614   -57863.752    1.8918427    21.033485 
    9400   -903.16371    53.654045   -849.50967    1921.6933   -66649.174    1.8918427    25.578737 
    9500   -900.04116    44.103138   -855.93803    1579.6145   -63717.979    1.8918427    42.442209 
    9600   -901.80479    53.931923   -847.87286    1931.6459   -63051.238    1.8918427    40.749416 
    9700   -903.80357    51.716853   -852.08672    1852.3101   -66068.959    1.8918427    40.460269 
    9800   -903.93314    49.091502   -854.84164    1758.2796   -67641.411    1.8918427    20.262976 
    9900   -902.20653    53.563029   -848.64351    1918.4335   -65242.132    1.8918427    21.836699 
   10000   -904.86029    49.696399    -855.1639    1779.9448   -68595.177    1.8918427    22.683762 
   10100   -905.83256    51.038772   -854.79379    1828.0237   -66216.475    1.8918427    17.283286 
   10200   -900.82077    53.258525   -847.56224    1907.5272   -63540.654    1.8918427    33.807674 
   10300   -904.37057    53.122157   -851.24841     1902.643   -68260.709    1.8918427    27.498018 
   10400   -906.97592    51.393658   -855.58226    1840.7344   -70152.102    1.8918427    19.621786 
   10500   -896.87246    46.844747   -850.02771     1677.809    -62842.21    1.8918427     37.58599 
   10600    -901.8687    51.541064   -850.32764     1846.014   -64585.196    1.8918427    34.274476 
   10700    -906.5254    51.118957   -855.40644    1830.8957   -69228.737    1.8918427    39.118509 
   10800   -905.60627    53.135163    -852.4711    1903.1089   -67413.681    1.8918427    39.921708 
   10900   -901.61651    49.318526   -852.29799    1766.4107   -67931.005    1.8918427    39.369824 
   11000    -898.0837    50.238763   -847.84494    1799.3703   -64366.648    1.8918427    39.523233 
   11100   -905.61279    49.867556   -855.74524     1786.075   -70665.816    1.8918427    39.469649 
   11200   -904.63595     54.72402   -849.91193    1960.0159   -65460.783    1.8918427    40.162027 
   11300   -901.78646    57.456068   -844.33039     2057.868   -61609.998    1.8918427    46.187408 
   11400   -903.38461    47.358955   -856.02566     1696.226   -67165.167    1.8918427    30.123921 
   11500   -899.79534    45.912915   -853.88243    1644.4341   -65204.291    1.8918427    43.645309 
   11600   -899.60394    51.300223   -848.30372     1837.388   -64553.599    1.8918427    39.962577 
   11700   -907.07045    47.705069   -859.36538    1708.6226   -69657.925    1.8918427    41.701914 
   11800   -904.17888     50.70481   -853.47407    1816.0624   -66431.322    1.8918427    42.516457 
   11900   -903.64414    53.452975   -850.19116    1914.4917   -66219.378    1.8918427    40.242778 
   12000   -907.62798    48.485589   -859.14239     1736.578   -71998.707    1.8918427    40.479517 
   12100   -901.17854    48.389549   -852.78899    1733.1382   -64372.686    1.8918427    44.292916 
   12200   -904.33865    54.641939   -849.69672    1957.0761   -64868.146    1.8918427    36.276005 
   12300   -906.07813    50.513992   -855.56414     1809.228   -69888.572    1.8918427    44.690474 
   12400   -904.85965    52.170075   -852.68958    1868.5429   -65234.614    1.8918427    40.914417 
   12500   -905.00336    58.314246   -846.68911    2088.6048   -66902.367    1.8918427    48.976916 
   12600   -902.08476    45.642646   -856.44211     1634.754   -65226.437    1.8918427    40.429677 
   12700   -902.23424    47.216356   -855.01788    1691.1187   -68099.197    1.8918427    43.964499 
   12800   -897.92262    48.896308   -849.02632    1751.2884   -62281.426    1.8918427    38.274576 
   12900   -896.31111    49.600505   -846.71061    1776.5102    -60092.18    1.8918427    38.659282 
   13000   -906.41469    50.258504   -856.15619    1800.0773   -69508.804    1.8918427    42.093592 
   13100   -899.40358    47.521739   -851.88184    1702.0564   -65259.941    1.8918427    43.960227 
   13200   -900.25118    53.538831   -846.71235    1917.5668   -64171.754    1.8918427    72.133543 
   13300   -902.47065    49.750226   -852.72042    1781.8727    -66792.02    1.8918427    79.149731 
   13400   -899.90748    45.017624   -854.88985     1612.368   -61343.618    1.8918427    73.059121 
   13500   -901.28557    53.669012   -847.61656    1922.2294   -64305.496    1.8918427    77.344721 
   13600   -903.78541    53.034469   -850.75094    1899.5024   -65304.376    1.8918427    78.154223 
   13700   -904.58487     48.38722   -856.19765    1733.0547    -68815.15    1.8918427    87.927645 
   13800   -900.63838    51.272714   -849.36567    1836.4027   -64958.224    1.8918427    102.14302 
   13900   -902.13981    48.763086   -853.37672    1746.5169   -66823.083    1.8918427     96.36036 
   14000   -896.56383    47.517318   -849.04651     1701.898   -60781.955    1.8918427    100.44329 
   14100   -896.17597    54.826111   -841.34986    1963.6725    -59992.16    1.8918427     111.7298 
   14200   -903.98436    52.401371   -851.58299    1876.8271   -67519.957    1.8918427    99.859766 
   14300   -900.88352    49.506812    -851.3767    1773.1545   -63215.449    1.8918427    100.39753 
   14400   -898.81709    51.416267   -847.40082    1841.5442   -64893.056    1.8918427      114.384 
   14500   -907.18232    53.113678   -854.06865    1902.3393   -68588.588    1.8918427     103.0165 
   14600   -905.16727    50.984067    -854.1832    1826.0644   -70372.352    1.8918427     94.69401 
   14700   -900.10749    50.273894    -849.8336    1800.6286   -63916.645    1.8918427    106.41332 
   14800   -902.89803    52.331021   -850.56701    1874.3074    -66318.71    1.8918427    115.42995 
   14900     -904.328    46.178056   -858.14994    1653.9305   -72707.393    1.8918427    101.87055 
   15000   -897.31426    43.232846   -854.08142    1548.4438   -65308.425    1.8918427     100.3902 
   15100   -898.32602    50.756341   -847.56968    1817.9081     -65694.5    1.8918427    106.34542 
   15200   -901.42219    45.962684   -855.45951    1646.2167   -66751.288    1.8918427    103.21435 
   15300   -903.34737    51.316144   -852.03122    1837.9582   -67699.773    1.8918427    117.03772 
   15400   -898.93378    51.771256   -847.16252    1854.2587   -64499.317    1.8918427    104.72628 
   15500   -906.71609    51.388477   -855.32762    1840.5489   -70406.679    1.8918427    108.70146 
   15600   -898.65626    47.076069   -851.58019    1686.0941   -63539.004    1.8918427     97.44733 
   15700   -899.21705    55.264804   -843.95224    1979.3849   -64249.373    1.8918427    97.716237 
   15800    -901.8143     51.43866   -850.37564    1842.3462   -65183.563    1.8918427    100.45563 
   15900   -903.72828     49.79984   -853.92844    1783.6497   -66473.043    1.8918427    101.02902 
   16000   -897.10722    52.898559   -844.20866    1894.6346   -65465.602    1.8918427     93.86874 
   16100    -898.4774     49.27666   -849.20074    1764.9113   -64542.364    1.8918427    79.098793 
   16200   -901.09012     48.56418   -852.52594    1739.3928   -68626.162    1.8918427    89.628526 
   16300   -903.08928    57.044066   -846.04522    2043.1116   -66840.055    1.8918427    75.781513 
   16400   -905.76066    50.944883   -854.81577     1824.661    -71880.78    1.8918427    61.097323 
   16500   -903.80645    49.203311   -854.60314    1762.2842   -72378.502    1.8918427     58.92195 
   16600    -898.2964     50.28708   -848.00932    1801.1008   -65967.062    1.8918427    57.353493 
   16700   -901.22353    46.852236   -854.37129    1678.0772   -66321.938    1.8918427    50.057038 
   16800   -902.75281     48.64993   -854.10288     1742.464   -67294.893    1.8918427    57.449899 
   16900   -897.29711    50.714424   -846.58268    1816.4067   -64729.279    1.8918427    54.184903 
   17000   -904.47072    49.042406   -855.42831    1756.5211   -66994.624    1.8918427    50.685894 
   17100   -902.76596    51.680288   -851.08568    1851.0005   -66711.744    1.8918427    51.106233 
   17126   -899.01673    50.788323   -848.22841    1819.0536   -65826.391    1.8918427    54.982611 
Loop time of 9.38739 on 1 procs for 17126 steps with 217 atoms

Performance: 184.084 ns/day, 0.130 hours/ns, 1824.363 timesteps/s
100.0% CPU use with 1 MPI tasks x no OpenMP threads

MPI task timing breakdown:
Section |  min time  |  avg time  |  max time  |%varavg| %total
---------------------------------------------------------------
Pair    | 9.0458     | 9.0458     | 9.0458     |   0.0 | 96.36
Neigh   | 0.17275    | 0.17275    | 0.17275    |   0.0 |  1.84
Comm    | 0.072482   | 0.072482   | 0.072482   |   0.0 |  0.77
Output  | 0.0047995  | 0.0047995  | 0.0047995  |   0.0 |  0.05
Modify  | 0.070916   | 0.070916   | 0.070916   |   0.0 |  0.76
Other   |            | 0.02064    |            |       |  0.22

Nlocal:    217 ave 217 max 217 min
Histogram: 1 0 0 0 0 0 0 0 0 0
Nghost:    909 ave 909 max 909 min
Histogram: 1 0 0 0 0 0 0 0 0 0
Neighs:    3625 ave 3625 max 3625 min
Histogram: 1 0 0 0 0 0 0 0 0 0
FullNghs:  7250 ave 7250 max 7250 min
Histogram: 1 0 0 0 0 0 0 0 0 0

Total # of neighbors = 7250
Ave neighs/atom = 33.4101
Neighbor list builds = 316
Dangerous builds = 0
Total wall time: 0:00:09
