LAMMPS (3 Mar 2020)
Reading data file ...
  orthogonal box = (0 0 0) to (17.469 17.469 17.469)
  1 by 1 by 1 MPI processor grid
  reading atoms ...
  217 atoms
  read_data CPU = 0.00119595 secs
Reading potential file library.meam with DATE: 2012-06-29
Reading potential file LiSi.meam with DATE: 2020-11-07
1 atoms in group Li
216 atoms in group Si
Neighbor list info ...
  update every 1 steps, delay 10 steps, check yes
  max neighbors/atom: 2000, page size: 100000
  master list distance cutoff = 6
  ghost atom cutoff = 6
  binsize = 3, bins = 6 6 6
  2 neighbor lists, perpetual/occasional/extra = 2 0 0
  (1) pair meam/c, perpetual
      attributes: full, newton on
      pair build: full/bin/atomonly
      stencil: full/bin/3d
      bin: standard
  (2) pair meam/c, perpetual, half/full from (1)
      attributes: half, newton on
      pair build: halffull/newton
      stencil: none
      bin: none
Setting up Verlet run ...
  Unit style    : metal
  Current step  : 0
  Time step     : 0.003
Per MPI rank memory allocation (min/avg/max) = 8.895 | 8.895 | 8.895 Mbytes
Step Temp E_pair E_mol TotEng Press 
       0         1600   -951.04357            0   -906.37126   -115280.58 
    3200    1587.2394   -909.00755            0   -864.69152   -72143.253 
Loop time of 1.85268 on 1 procs for 3200 steps with 217 atoms

Performance: 447.696 ns/day, 0.054 hours/ns, 1727.223 timesteps/s
100.0% CPU use with 1 MPI tasks x no OpenMP threads

MPI task timing breakdown:
Section |  min time  |  avg time  |  max time  |%varavg| %total
---------------------------------------------------------------
Pair    | 1.7843     | 1.7843     | 1.7843     |   0.0 | 96.31
Neigh   | 0.033114   | 0.033114   | 0.033114   |   0.0 |  1.79
Comm    | 0.0154     | 0.0154     | 0.0154     |   0.0 |  0.83
Output  | 2.5528e-05 | 2.5528e-05 | 2.5528e-05 |   0.0 |  0.00
Modify  | 0.015251   | 0.015251   | 0.015251   |   0.0 |  0.82
Other   |            | 0.00458    |            |       |  0.25

Nlocal:    217 ave 217 max 217 min
Histogram: 1 0 0 0 0 0 0 0 0 0
Nghost:    887 ave 887 max 887 min
Histogram: 1 0 0 0 0 0 0 0 0 0
Neighs:    3625 ave 3625 max 3625 min
Histogram: 1 0 0 0 0 0 0 0 0 0
FullNghs:  7250 ave 7250 max 7250 min
Histogram: 1 0 0 0 0 0 0 0 0 0

Total # of neighbors = 7250
Ave neighs/atom = 33.4101
Neighbor list builds = 57
Dangerous builds = 1
Setting up Verlet run ...
  Unit style    : metal
  Current step  : 3200
  Time step     : 0.003
Per MPI rank memory allocation (min/avg/max) = 9.645 | 9.645 | 9.645 Mbytes
Step PotEng KinEng TotEng Temp Press Density c_msdli[4] c_msdsi[4] 
    3200   -909.00755    44.316029   -864.69152    1587.2394   -72143.253    1.8918427            0 2.7141458e-32 
    3300   -908.61423    44.393214   -864.22101    1590.0039   -74273.152    1.8918427    3.5394383   0.20170596 
    3400   -904.32519    46.193044   -858.13215    1654.4673   -68001.053    1.8918427    0.5192804     0.201618 
    3500   -909.52061     42.18363   -867.33698    1510.8646   -75552.312    1.8918427    3.2619686   0.16840928 
    3600   -906.16661    44.063252   -862.10336    1578.1859   -71226.772    1.8918427    5.6497618   0.17517203 
    3700   -903.68647      42.8774   -860.80907     1535.713    -69093.44    1.8918427    4.0369207   0.20420358 
    3800   -903.99884    40.776517   -863.22232     1460.467   -68142.269    1.8918427    3.1158209   0.18028945 
    3900   -907.03829     41.13064   -865.90765    1473.1504   -74024.897    1.8918427  0.093120361   0.18055138 
    4000   -907.16739    42.621008   -864.54639    1526.5299   -70075.792    1.8918427    2.0757928   0.14755885 
    4100   -902.21623    43.211262   -859.00497    1547.6707   -65197.088    1.8918427    3.3030906   0.17654614 
    4200   -914.70561    46.613723   -868.09188    1669.5345   -76092.146    1.8918427     1.657323   0.16850745 
    4300    -907.0797     43.43771   -863.64199    1555.7812   -71675.537    1.8918427    4.0530239   0.19430177 
    4400   -907.23243    46.815051   -860.41738    1676.7454   -72000.021    1.8918427    2.4153544   0.18502309 
    4500   -907.61179    37.404746   -870.20705    1339.7024   -74294.185    1.8918427    1.0246986   0.17741934 
    4600   -906.43914    43.528039    -862.9111    1559.0165   -71635.334    1.8918427    2.2415834   0.18486286 
    4700   -909.18872    47.044142   -862.14458    1684.9506   -73192.497    1.8918427    4.7220289   0.19732062 
    4800   -910.76001    39.655837   -871.10417    1420.3283   -77902.812    1.8918427    5.3666852   0.19823716 
    4900   -908.36356    43.671891   -864.69167    1564.1688   -73063.995    1.8918427    4.5968228   0.19209915 
    5000   -908.48635    46.875093   -861.61126    1678.8958   -73610.721    1.8918427    5.0373823   0.21945398 
    5100    -905.5276    47.804643   -857.72295     1712.189    -70334.77    1.8918427    11.661235   0.22555577 
    5200   -907.75861    42.058814    -865.6998    1506.3942    -75008.15    1.8918427    14.652343   0.25882789 
    5300   -908.30901    45.544595   -862.76442    1631.2422   -76231.284    1.8918427    11.641697   0.27044724 
    5400   -905.61338    48.902508   -856.71087    1751.5105   -69335.834    1.8918427    11.500426   0.23049332 
    5500   -906.76632    44.972202   -861.79412    1610.7412   -72667.836    1.8918427    7.8195658   0.22710354 
    5600   -908.85442    42.984765   -865.86966    1539.5584   -75403.453    1.8918427    12.508972    0.2255274 
    5700   -905.56415    47.379592   -858.18456    1696.9652   -70245.734    1.8918427    11.412029   0.23961263 
    5800   -903.46632    42.142969   -861.32336    1509.4083   -70562.005    1.8918427     15.28737   0.24080522 
    5900   -907.60053    43.291019   -864.30951    1550.5273   -71192.463    1.8918427    18.699285   0.21767815 
    6000   -905.21199    43.867667   -861.34432    1571.1808   -71739.208    1.8918427    10.324019   0.23012592 
    6100   -901.38275    47.650204   -853.73255    1706.6575   -68818.588    1.8918427    6.8734531   0.23389761 
    6200    -907.1801     45.49362   -861.68648    1629.4165   -72968.241    1.8918427    6.9191821   0.24539534 
    6300   -907.31429    46.111343   -861.20295    1651.5411   -71595.403    1.8918427    5.5426253   0.24875985 
    6400   -905.73171    47.541894   -858.18982    1702.7782   -69142.344    1.8918427    4.5332048   0.19901599 
    6500   -907.08802    40.771214    -866.3168     1460.277   -74270.025    1.8918427    11.584293   0.23222301 
    6600   -904.81836    43.426119   -861.39224    1555.3661   -69667.338    1.8918427    26.556538   0.21474021 
    6700   -903.10522    45.617402   -857.48781    1633.8499   -66816.828    1.8918427    27.969793   0.23358802 
    6800   -906.50501    44.112599   -862.39241    1579.9533   -71395.534    1.8918427    26.544097   0.22200855 
    6900    -904.2104    39.190833   -865.01957    1403.6735     -73596.6    1.8918427    56.026119   0.23502671 
    7000   -905.34396    48.022443   -857.32152    1719.9898   -71431.663    1.8918427    58.454466   0.23988715 
    7100   -907.67503    45.633189   -862.04184    1634.4153   -72627.763    1.8918427     60.73942   0.20444337 
    7200   -907.11757     41.99645   -865.12112    1504.1605   -72256.662    1.8918427    62.161443   0.21367455 
    7300   -906.01944    46.788133   -859.23131    1675.7812   -69644.842    1.8918427    45.075788   0.25597085 
    7400   -904.62017    51.010506   -853.60966    1827.0113   -68260.671    1.8918427    62.899213   0.25199207 
    7500   -906.85314    43.518237    -863.3349    1558.6654   -71371.275    1.8918427    65.708587   0.22357711 
    7600   -907.21795    44.831552    -862.3864    1605.7036   -73051.429    1.8918427    61.656571    0.2716164 
    7700    -902.5104    47.450372   -855.06003    1699.5003   -69033.652    1.8918427    59.330277   0.23422286 
    7800   -906.35694    42.928684   -863.42826    1537.5498   -71017.157    1.8918427    62.947406   0.22997649 
    7900   -906.09861    44.063393   -862.03522    1578.1909   -70381.403    1.8918427    62.240341   0.20317394 
    8000   -905.36824    43.616796   -861.75145    1562.1954   -71017.061    1.8918427    62.027356   0.23267797 
    8100   -912.26383    43.677184   -868.58665    1564.3583   -76471.605    1.8918427    62.727928   0.18163324 
    8200   -904.12215    44.030537   -860.09162    1577.0141   -68778.914    1.8918427    55.003152   0.23952765 
    8300   -906.68293    43.712307   -862.97062    1565.6163   -70182.095    1.8918427     54.19831   0.19272196 
    8400   -910.68113    43.890016   -866.79111    1571.9812   -74883.233    1.8918427    36.994238   0.20496205 
    8500   -903.31828    44.041023   -859.27726    1577.3897   -67444.805    1.8918427    37.582696   0.20857923 
    8600    -904.0014    40.821989   -863.17941    1462.0956   -68841.675    1.8918427    38.215763   0.18435195 
    8700   -908.40613    42.378921   -866.02721    1517.8593   -73525.333    1.8918427    36.214891   0.21447945 
    8800   -906.55025    44.035584   -862.51467    1577.1949   -68558.895    1.8918427    38.993001   0.21843729 
    8900   -910.48903    47.774566   -862.71447    1711.1117   -74085.292    1.8918427    57.255672   0.22973424 
    9000   -907.84721    44.829529   -863.01768    1605.6312   -72517.964    1.8918427    55.868306   0.22167589 
    9100   -906.93228     43.50024   -863.43204    1558.0208   -70162.191    1.8918427    53.656614   0.18625392 
    9200    -911.7562    49.588003    -862.1682    1776.0624   -74121.586    1.8918427    56.544251   0.18085728 
    9300   -902.21083    42.416851   -859.79398    1519.2178   -64981.903    1.8918427    59.046352   0.21684911 
    9400   -909.46721    49.820996   -859.64622    1784.4074    -71353.37    1.8918427    43.833112   0.20499781 
    9500     -911.202    43.545717   -867.65628    1559.6497   -73790.106    1.8918427    60.164928   0.20963871 
    9600   -910.16142    48.605846   -861.55558    1740.8851   -72206.902    1.8918427    62.437173   0.19887654 
    9700   -906.76798    46.738335   -860.02965    1673.9977   -70625.616    1.8918427    60.786456   0.21145982 
    9800   -910.80921    44.793502    -866.0157    1604.3408   -74071.276    1.8918427    58.965646   0.19896116 
    9900   -909.76626    47.015089   -862.75117      1683.91   -73496.272    1.8918427    58.964887   0.20597852 
   10000   -901.50021    41.715401   -859.78481    1494.0944   -66297.016    1.8918427    59.850596   0.21492176 
   10100   -909.14742    43.363113   -865.78431    1553.1095   -73453.506    1.8918427    67.266468   0.18704402 
   10200   -908.34357     44.97887    -863.3647      1610.98   -71176.513    1.8918427    62.818056   0.21655284 
   10300   -903.22632    46.300352   -856.92597    1658.3107   -65855.634    1.8918427    62.241904    0.2193706 
   10400   -906.12215     45.45889   -860.66326    1628.1726   -69883.272    1.8918427    63.732799   0.21647413 
   10500   -910.53454    45.358951   -865.17559    1624.5931   -75825.562    1.8918427    62.480403   0.19761683 
   10600   -905.61283    46.081686   -859.53114    1650.4789   -69792.021    1.8918427    58.181768   0.19773128 
   10700   -904.66679    44.081371   -860.58542    1578.8348    -70973.57    1.8918427    55.648612    0.2047064 
   10800   -909.86539    45.279661   -864.58573    1621.7533   -72907.619    1.8918427    54.182354   0.20840962 
   10900   -903.30058    43.986271   -859.31431    1575.4287   -70435.751    1.8918427     55.18976   0.23430275 
   11000    -901.6143    43.453643   -858.16065    1556.3519   -68796.248    1.8918427    62.837943   0.25744537 
   11100   -913.45907    47.400668    -866.0584      1697.72   -78153.527    1.8918427    54.849323   0.19586587 
   11200   -906.24477    46.481077    -859.7637    1664.7836   -68727.391    1.8918427    46.370261   0.22027729 
   11300   -907.74575    45.659166   -862.08658    1635.3458   -70245.556    1.8918427    61.305791   0.20044089 
   11400   -905.75645     39.79224   -865.96421    1425.2137   -71770.207    1.8918427    61.837656   0.22927075 
   11500   -907.66367    48.439557   -859.22411    1734.9293   -69517.441    1.8918427    60.797525    0.2103757 
   11600   -908.74256    40.595419   -868.14715    1453.9807   -73718.891    1.8918427    60.790642   0.20638041 
   11700   -907.63461    43.153222   -864.48138    1545.5919   -72255.562    1.8918427    61.246052   0.20516016 
   11800    -908.5779     46.84034   -861.73756    1677.6511   -73863.797    1.8918427    55.764242   0.22175261 
   11900   -907.62468    44.298167   -863.32651    1586.5997   -70745.449    1.8918427    63.352565   0.21075229 
   12000   -910.02273    46.104614   -863.91811    1651.3001   -72226.928    1.8918427    58.001724   0.18685447 
   12100   -906.74105    42.758682   -863.98236    1531.4609   -70579.157    1.8918427    63.199223   0.19451167 
   12200   -908.28724    45.762859   -862.52438    1639.0596   -71173.736    1.8918427    77.249044   0.18953109 
   12300   -907.14169    41.641812   -865.49988    1491.4587   -71039.291    1.8918427    76.987096    0.2136903 
   12400    -908.4297    42.023062   -866.40664    1505.1137   -71815.951    1.8918427    77.772113   0.20728884 
   12500   -905.40099    46.386928   -859.01406    1661.4115   -70119.039    1.8918427       78.336    0.2006304 
   12600   -910.97126    43.880547   -867.09071    1571.6421   -73031.485    1.8918427    73.811468   0.19217589 
   12700   -908.63137    43.867291   -864.76408    1571.1673   -72437.135    1.8918427    74.346763   0.18677242 
   12800   -906.44257    46.524385   -859.91818    1666.3348   -70326.843    1.8918427    75.757263   0.20063483 
   12900   -907.81049    39.512989   -868.29751     1415.212   -71832.984    1.8918427      78.4963   0.19355552 
   13000   -907.57593    44.372012   -863.20392    1589.2446   -70033.555    1.8918427    71.973815   0.20746192 
   13100   -907.02474    45.288531   -861.73621    1622.0709    -73631.14    1.8918427    78.671735   0.21363931 
   13200   -910.72467    45.910115   -864.81456    1644.3338   -74817.841    1.8918427    79.709524   0.19143216 
   13300   -906.47678    39.221204   -867.25558    1404.7613   -72901.836    1.8918427    75.130457   0.18665216 
   13400   -903.66531    43.203247   -860.46207    1547.3836   -69444.799    1.8918427     68.14993   0.21311931 
   13500   -908.65004    45.402356   -863.24769    1626.1477   -73781.341    1.8918427    79.602015    0.2187519 
   13600   -911.77962    44.702501   -867.07712    1601.0815   -74459.243    1.8918427      74.4436   0.20544517 
   13700   -905.30974    43.375601   -861.93414    1553.5567   -70790.618    1.8918427    69.205408   0.22170904 
   13800   -905.84951    43.078131   -862.77138    1542.9024   -72636.288    1.8918427    77.527356   0.21926833 
   13900   -906.57731    43.191059   -863.38625    1546.9471   -72534.195    1.8918427    81.559603   0.20178733 
   14000   -906.66829    44.272025   -862.39626    1585.6634   -72249.029    1.8918427    76.234521   0.20817507 
   14100   -911.00255    50.056981   -860.94557    1792.8595   -77124.081    1.8918427    71.950196   0.17495504 
   14200   -908.35215     43.11381   -865.23834    1544.1803   -75234.127    1.8918427    74.074977    0.2021946 
   14300   -911.18446    45.312865   -865.87159    1622.9425   -77455.891    1.8918427    79.604548   0.20354279 
   14400   -905.36362    46.885197   -858.47843    1679.2577   -69653.371    1.8918427    77.494329    0.2161402 
   14500   -905.99636    40.471667   -865.52469    1449.5483    -72603.68    1.8918427    77.905612   0.20237355 
   14600   -908.80844     44.27472   -864.53372    1585.7599   -74911.018    1.8918427    76.266381   0.17459371 
   14700   -909.31467    47.822772    -861.4919    1712.8382   -74398.342    1.8918427    73.204045   0.19879867 
   14800   -904.29193    47.935224    -856.3567    1716.8659   -72459.115    1.8918427    89.386735   0.25785795 
   14900   -907.43086    43.137161   -864.29369    1545.0167   -74724.962    1.8918427    80.255163   0.23132564 
   15000    -908.8778    44.784622   -864.09317    1604.0228   -72478.505    1.8918427    77.722153   0.22099162 
   15100   -901.72979    46.389065   -855.34072    1661.4881   -65769.657    1.8918427    80.797995   0.22454835 
   15200   -902.95533    45.781498   -857.17383    1639.7272   -70646.785    1.8918427    66.101063   0.24818369 
   15300   -909.87956    44.773827   -865.10573    1603.6361   -75835.694    1.8918427    77.905585   0.21005831 
   15400    -909.0886    45.459429   -863.62917    1628.1919   -73827.247    1.8918427    77.624766   0.21406905 
   15500   -906.62182    48.402799   -858.21902    1733.6127   -71569.534    1.8918427    79.308644    0.2007477 
   15600   -909.43516    43.460539   -865.97462    1556.5989   -73864.745    1.8918427    51.696432   0.23191444 
   15700   -903.17276    42.627657    -860.5451    1526.7681   -66661.257    1.8918427    41.975337   0.23720902 
   15800   -907.62852    46.752317   -860.87621    1674.4984   -69487.079    1.8918427    42.231278   0.27571796 
   15900   -912.12035    44.990761   -867.12959    1611.4059   -75887.484    1.8918427    36.276479   0.21719148 
   16000   -907.07757    46.996344   -860.08123    1683.2386    -71561.95    1.8918427    33.966244   0.22784294 
   16100   -907.83537    45.588118   -862.24725    1632.8011   -72625.089    1.8918427    38.902605   0.24945351 
   16200   -911.20957    42.520427   -868.68914    1522.9275   -75029.339    1.8918427    35.645581   0.24703103 
   16300   -910.99772    46.068667   -864.92906    1650.0126   -76970.748    1.8918427    38.568906   0.21596933 
   16400    -907.2851    46.461932   -860.82317    1664.0979   -71694.743    1.8918427    39.478473   0.23541978 
   16500   -908.54163    43.714477   -864.82715     1565.694   -73381.453    1.8918427    30.420998   0.24692379 
   16600   -907.09405    41.304693   -865.78936    1479.3843   -72923.716    1.8918427    40.290326   0.27825627 
   16700    -899.9662    40.126813   -859.83939    1437.1969   -65836.831    1.8918427    32.161577   0.27188414 
   16800   -909.29756    44.194043   -865.10352    1582.8703   -74974.577    1.8918427    28.807897   0.23838593 
   16900   -910.50001    40.361618   -870.13839    1445.6068    -74620.71    1.8918427    38.607108   0.23965171 
   17000   -905.70996    45.011993   -860.69797    1612.1663   -70685.973    1.8918427    38.875551    0.2460351 
   17100   -910.76688    48.054576   -862.71231    1721.1407    -71745.81    1.8918427    42.742999   0.25631747 
   17200   -909.77583    41.842607   -867.93323    1498.6504    -75054.42    1.8918427    33.545221   0.24546299 
   17300    -907.8874     49.75079   -858.13661    1781.8929   -72933.667    1.8918427     36.00803   0.25076082 
   17400   -908.85567    44.281486   -864.57419    1586.0022   -75834.714    1.8918427    39.575531   0.26478482 
   17500   -906.22287    43.811253   -862.41162    1569.1602   -67682.117    1.8918427    39.802668   0.28104053 
   17600   -905.00602    47.490907   -857.51511    1700.9521   -69395.559    1.8918427    28.532832   0.27151805 
   17700   -905.49274     41.96335   -863.52939     1502.975   -69980.506    1.8918427    23.813214   0.23200836 
   17800   -905.62556    43.377889   -862.24767    1553.6387   -69121.868    1.8918427    37.565597   0.24897959 
   17900   -901.11419    47.871796   -853.24239    1714.5941   -66481.584    1.8918427    30.481526   0.27119662 
   18000   -904.65557    43.353328   -861.30225     1552.759    -68339.71    1.8918427    39.631546   0.25032367 
   18100   -909.81738    46.006911   -863.81047    1647.8007   -72996.957    1.8918427    41.338123    0.2322685 
   18200   -905.38833    47.929281   -857.45905     1716.653   -69775.712    1.8918427    38.795313   0.27501689 
   18300   -905.14866    43.948449   -861.20021    1574.0741   -70305.229    1.8918427    40.267206   0.26499735 
   18400   -907.05072    42.857719     -864.193    1535.0081   -72213.544    1.8918427    41.414235   0.29626765 
   18500   -904.36611    47.341218   -857.02489    1695.5908   -66667.874    1.8918427    38.259477   0.25547562 
   18600   -905.68404    47.313893   -858.37014     1694.612   -67690.989    1.8918427    40.216717   0.25212356 
   18700   -909.80725    44.572013   -865.23523    1596.4078   -72738.634    1.8918427    34.354351   0.21374626 
   18800   -906.35481    47.978877   -858.37594    1718.4294   -69952.509    1.8918427    39.585692   0.25082073 
   18900   -907.91729    43.786526   -864.13076    1568.2746   -71414.801    1.8918427    31.895413   0.23958381 
   19000    -908.1292    44.210014   -863.91918    1583.4424   -71019.917    1.8918427    41.387769   0.24705348 
   19100   -905.69568    47.425066   -858.27061    1698.5939   -70219.758    1.8918427    33.104766   0.27278569 
   19200   -910.37858     42.65479   -867.72379    1527.7399   -74392.466    1.8918427    39.027823   0.24569599 
   19300   -905.66712    43.018699   -862.64842    1540.7738   -70258.051    1.8918427    36.814869   0.25987312 
   19400   -905.27677    45.348139   -859.92863    1624.2059   -70141.614    1.8918427    40.973957   0.25006134 
   19500   -911.04639    41.699569   -869.34682    1493.5273    -78444.59    1.8918427    40.142582   0.23250101 
   19600   -908.63252    46.651064   -861.98146    1670.8719   -72038.628    1.8918427    39.163016   0.23406609 
   19700   -905.70353    45.383761   -860.31977    1625.4818   -68788.202    1.8918427    40.979379   0.25864508 
   19800   -911.91807    42.346872    -869.5712    1516.7114   -76220.314    1.8918427    37.487389   0.22707542 
   19900   -909.78773    45.751746   -864.03598    1638.6616   -74208.072    1.8918427    36.132658   0.24931717 
   20000   -906.18406    45.481538   -860.70252    1628.9837   -71143.991    1.8918427    34.655189   0.22979843 
   20100   -904.38858    39.947034   -864.44154    1430.7579   -69891.182    1.8918427    34.244784   0.25048986 
   20200   -904.74219     39.60232   -865.13987    1418.4115   -72090.774    1.8918427    39.977542   0.27163896 
   20300   -905.92642     47.03944   -858.88698    1684.7822   -68060.976    1.8918427    44.101179   0.23021067 
   20400   -905.55554     42.47585   -863.07969    1521.3309   -71551.661    1.8918427    35.609562   0.21860749 
   20500    -908.0368     44.68772   -863.34908    1600.5521   -70449.173    1.8918427     39.59497   0.23549277 
   20600   -906.62269     45.06005   -861.56264    1613.8876   -68893.302    1.8918427    38.872823   0.23134598 
   20700   -905.90558    45.627284   -860.27829    1634.2038   -68786.655    1.8918427    38.513803   0.27442119 
   20800   -909.69804    44.373247    -865.3248    1589.2888   -73102.888    1.8918427    35.723566   0.22979311 
   20900   -907.88602    45.132516    -862.7535    1616.4831   -71786.834    1.8918427    33.628568   0.21540544 
   21000   -906.59833    47.611279   -858.98705    1705.2634   -67347.647    1.8918427    40.390063   0.24238401 
   21100   -909.95959     45.43632   -864.52327    1627.3642    -75532.22    1.8918427    40.566801   0.25723222 
   21200   -904.17935    41.232993   -862.94636    1476.8163   -70612.299    1.8918427    39.897418   0.27526768 
   21300   -904.81865    45.101134   -859.71751    1615.3591   -68829.311    1.8918427    35.546901   0.24889236 
   21400   -904.01582    47.839004   -856.17681    1713.4196   -66048.174    1.8918427    34.863647   0.24017917 
   21500   -909.51514    45.348841    -864.1663     1624.231   -73751.691    1.8918427    40.042891   0.25380587 
   21600   -905.47579    44.514847   -860.96094    1594.3604   -72794.335    1.8918427    40.170685   0.27008343 
   21700    -903.4141    47.428188   -855.98591    1698.7057   -68653.447    1.8918427    41.735173   0.25327877 
   21800   -907.66796    43.991362   -863.67659    1575.6111   -75748.409    1.8918427    40.681211   0.20149833 
   21900   -904.70292    44.177108   -860.52581    1582.2638   -71681.498    1.8918427    43.028054   0.23474911 
   22000   -904.65367    45.714236   -858.93944    1637.3182     -70439.1    1.8918427    47.767621   0.22030618 
   22100   -912.42445    45.498472   -866.92597    1629.5903   -76089.604    1.8918427    44.076885   0.20210233 
   22200   -909.55517     49.57734   -859.97783    1775.6805   -73863.266    1.8918427    40.358095   0.19724197 
   22300    -908.9585    44.505214   -864.45328    1594.0154   -72525.211    1.8918427    44.875325    0.2013861 
   22400   -909.84615    44.214302   -865.63185    1583.5959    -72740.59    1.8918427     43.66434   0.19310733 
   22500   -903.90389     44.28456   -859.61933    1586.1123   -68060.183    1.8918427    40.309829   0.18915019 
   22600   -910.65032    42.547514    -868.1028    1523.8977   -75028.942    1.8918427    43.789363   0.18951496 
   22700   -911.72257    46.351566   -865.37101     1660.145   -75821.068    1.8918427    40.331688   0.17927746 
   22800   -908.76952    46.158339   -862.61118    1653.2243   -71223.229    1.8918427    46.322762   0.20437527 
   22900   -910.25954    47.337688   -862.92185    1695.4643   -73746.649    1.8918427    48.119543   0.22120605 
   23000   -909.35299    43.726607   -865.62638    1566.1285   -73166.422    1.8918427    50.333267   0.22587485 
   23100   -908.93259    46.499721   -862.43287    1665.4514   -70555.765    1.8918427    49.764228   0.20919383 
   23200   -904.83793    46.403509   -858.43442    1662.0054   -66664.573    1.8918427    49.716787   0.19647319 
   23300   -910.36882    43.036795   -867.33202    1541.4219   -73182.371    1.8918427    53.613327   0.20890282 
   23400   -908.41456    47.563885   -860.85068    1703.5659   -71173.268    1.8918427    89.364768   0.22782148 
   23500   -911.25466    50.609462    -860.6452    1812.6474   -71473.476    1.8918427    77.585517   0.22788928 
   23600   -905.85971    42.662212    -863.1975    1528.0057   -69752.704    1.8918427    88.883105   0.22433867 
   23700   -909.39346    45.697857    -863.6956    1636.7315   -74103.803    1.8918427    104.33419   0.20815658 
   23800   -908.98245    45.967669   -863.01478    1646.3952   -73293.422    1.8918427    101.01313   0.21801284 
   23900    -910.1226    48.292486   -861.83011    1729.6617   -73455.725    1.8918427    100.63532   0.21238562 
   24000   -910.15595    43.369249    -866.7867    1553.3292   -72102.194    1.8918427    98.656418   0.20499678 
   24100   -910.23692    44.439083   -865.79784    1591.6468   -74586.883    1.8918427    102.15722   0.20634133 
   24200   -906.69854    46.483752   -860.21479    1664.8794    -68346.72    1.8918427    103.50204   0.19791084 
   24300   -912.56975      45.5286   -867.04115    1630.6693   -74431.193    1.8918427    111.32982   0.19462824 
   24400   -906.00479    47.597281   -858.40751     1704.762   -67416.696    1.8918427    108.60922    0.2146778 
   24500   -910.36695    47.635583   -862.73137    1706.1338   -73863.586    1.8918427    110.01429   0.19885493 
   24600   -907.80184    41.421166   -866.38067     1483.556   -70334.229    1.8918427    110.61344   0.21014633 
   24700   -907.33663    49.974102   -857.36253    1789.8911   -67811.121    1.8918427    107.89036   0.17779209 
   24800   -901.89834    40.140461   -861.75788    1437.6858    -64532.53    1.8918427    120.15727   0.22930392 
   24900   -909.61471    44.432218   -865.18249    1591.4009   -73271.574    1.8918427    108.86414   0.18889487 
   25000   -905.15246    38.904022   -866.24844     1393.401   -70869.797    1.8918427    111.07162   0.19705574 
   25100   -906.10221      46.4254   -859.67681    1662.7895   -69719.021    1.8918427    112.78685   0.20414671 
   25200   -907.80479    41.708271   -866.09651     1493.839   -71575.655    1.8918427    113.12625   0.22241219 
   25300   -910.50016    44.532713   -865.96745    1595.0003   -74518.824    1.8918427    106.81233   0.20532222 
   25400   -906.49236    44.711791   -861.78057    1601.4142   -69160.662    1.8918427    108.65559   0.22193904 
   25500   -905.31583     42.32433    -862.9915     1515.904   -69650.711    1.8918427    111.10208   0.20534182 
   25600   -906.05987    42.461448   -863.59842    1520.8151   -72201.367    1.8918427    114.48754   0.23432894 
   25700   -903.75796    49.059939   -854.69802    1757.1491   -67577.727    1.8918427    102.03168   0.22321925 
   25800   -906.83562    43.652584   -863.18303    1563.4773   -70382.836    1.8918427    113.41912   0.22831744 
   25900   -906.99442    43.261078   -863.73334    1549.4549   -72422.901    1.8918427     104.2788   0.20974377 
   26000   -902.36635    45.104167   -857.26218    1615.4677   -68638.614    1.8918427    115.38986   0.25889068 
   26100   -904.84863    42.035282   -862.81335    1505.5513   -70601.534    1.8918427    127.96003   0.23125911 
   26200   -905.43574    41.452742     -863.983    1484.6869   -70662.187    1.8918427    113.79829   0.25482708 
   26300   -904.35097    48.659429   -855.69154    1742.8043   -69372.625    1.8918427    118.62092   0.24776613 
   26400   -907.18287    45.960682   -861.22219    1646.1449   -74684.148    1.8918427    112.26567   0.22548865 
   26500   -906.93512    43.054395   -863.88072    1542.0523   -70943.323    1.8918427    119.01697   0.22643468 
   26600     -904.054    47.480283   -856.57372    1700.5715   -69753.995    1.8918427    126.04112   0.21035854 
   26700   -909.30089    43.438176   -865.86272    1555.7979    -75922.72    1.8918427    109.10062   0.22447444 
   26800   -907.59495    44.451691   -863.14325    1592.0984   -73005.183    1.8918427    87.684588   0.21408675 
   26900   -903.76285    45.399488   -858.36336     1626.045   -70710.081    1.8918427    95.088031   0.23333299 
   27000   -908.53824    40.849909   -867.68833    1463.0956   -73720.058    1.8918427     86.61302   0.23302604 
   27100    -904.1351    43.666317   -860.46878    1563.9691   -70462.066    1.8918427    84.814398   0.22043071 
   27200   -907.39129    46.035237   -861.35605    1648.8152   -74115.993    1.8918427    75.873575   0.21813244 
   27300   -912.74088    42.655399   -870.08548    1527.7617   -75900.702    1.8918427    72.513691    0.1899692 
   27400   -902.40467    39.768204   -862.63647    1424.3529   -68852.278    1.8918427    81.202971   0.22547339 
   27500   -907.21111    45.698797   -861.51232    1636.7652   -73112.033    1.8918427    101.41697   0.23831945 
   27600   -906.23284    36.253801   -869.97904    1298.4797   -73140.505    1.8918427    130.97555   0.21693541 
   27700   -907.70807    44.622479   -863.08559    1598.2154   -72145.507    1.8918427    131.55922   0.22127417 
   27800   -907.43687    45.775437   -861.66143    1639.5101   -73614.435    1.8918427    135.65438   0.22228335 
   27900   -911.74447    44.649621   -867.09485    1599.1875   -75994.914    1.8918427    156.74746   0.20683116 
   28000   -909.19592     43.99511   -865.20081    1575.7453   -74471.019    1.8918427    132.40469   0.23084714 
   28100   -902.91392    43.518432   -859.39549    1558.6724   -71886.587    1.8918427    165.09315   0.24249823 
   28200   -910.59683    44.696301   -865.90053    1600.8594   -73832.893    1.8918427    142.08241    0.1962713 
   28300   -911.25971    44.365343   -866.89437    1589.0057    -76257.36    1.8918427     141.9725   0.17170361 
   28400   -909.76078    47.020352   -862.74042    1684.0985   -73389.636    1.8918427    163.73309   0.21240851 
   28500   -903.02782    43.302654   -859.72516     1550.944   -64763.486    1.8918427    150.61217   0.22841251 
   28600   -910.51047    43.820232   -866.69024    1569.4818   -72503.954    1.8918427    136.64803   0.19477625 
   28700   -906.46683     42.72791   -863.73892    1530.3588   -72293.489    1.8918427    138.58734    0.1985404 
   28800   -907.07617    46.730578   -860.34559    1673.7198   -70824.938    1.8918427    120.46742   0.21977088 
   28900   -907.66036    42.210741   -865.44962    1511.8357   -72426.711    1.8918427    133.95081   0.24979982 
   29000   -911.14859    44.419467   -866.72912    1590.9442   -74825.206    1.8918427    141.50889   0.21301947 
   29100   -904.46478    45.653969   -858.81081    1635.1596   -67380.599    1.8918427    85.309128   0.23221144 
   29200   -909.22203    44.560936   -864.66109    1596.0111    -73606.39    1.8918427    95.121907   0.21201963 
   29300     -908.576    42.136665   -866.43934    1509.1825   -73074.557    1.8918427    106.21975   0.25475611 
   29400   -904.32289    42.174174   -862.14872     1510.526   -70433.407    1.8918427    114.79775   0.24804041 
   29500   -907.04736    45.646136   -861.40123     1634.879   -72296.549    1.8918427    130.17076    0.2198959 
   29600   -909.22328    40.940592   -868.28269    1466.3435   -74758.911    1.8918427    118.19334    0.2190259 
   29700   -905.97512     45.51623   -860.45889    1630.2263   -71092.685    1.8918427    119.24263   0.22417719 
   29800   -908.71845    46.495284   -862.22316    1665.2925   -70506.308    1.8918427    115.92137   0.22088745 
   29900   -910.32514    41.818309   -868.50683    1497.7802   -76114.961    1.8918427    127.09035   0.21707471 
   30000   -908.32162    39.698158   -868.62346    1421.8441   -72239.091    1.8918427    119.37027   0.21910099 
   30100   -907.37711    45.854377   -861.52273    1642.3375   -71747.952    1.8918427    120.66172   0.22837895 
   30200   -907.88323    46.570225     -861.313    1667.9766   -73810.189    1.8918427    113.14754   0.23974118 
   30300   -909.25224    40.727131   -868.52511    1458.6981   -76202.196    1.8918427     106.6618    0.2405272 
   30400   -902.90369    42.486559   -860.41713    1521.7145    -71268.25    1.8918427    103.07657    0.2564831 
   30500   -906.34662    43.497195   -862.84942    1557.9118   -73260.495    1.8918427    92.726015   0.22774742 
   30600   -908.39057    39.467292   -868.92328    1413.5753   -76295.849    1.8918427    94.073204   0.23484711 
   30700   -906.53739    42.650384   -863.88701    1527.5821    -73954.63    1.8918427    90.194744   0.24386138 
   30800   -905.52479     46.38649    -859.1383    1661.3959   -69556.246    1.8918427    127.99623    0.2544211 
   30900   -913.11344    45.843465   -867.26998    1641.9467   -76427.985    1.8918427     81.74599   0.19235141 
   31000   -906.93288    44.014987    -862.9179    1576.4572   -69755.031    1.8918427    91.860173   0.19611628 
   31100   -906.98249    45.005799    -861.9767    1611.9445   -71488.684    1.8918427    94.453518   0.21790886 
   31200   -907.86296    43.276214   -864.58674    1549.9971   -71443.347    1.8918427    95.267188   0.26062257 
   31300   -905.66738    44.182002   -861.48538    1582.4391   -73886.564    1.8918427    102.72016   0.26433848 
   31400   -907.32503    49.263688   -858.06134    1764.4466   -70341.983    1.8918427    96.593087   0.23864744 
   31500   -912.55959    46.029864   -866.52972    1648.6228   -75912.475    1.8918427    94.570138    0.2367901 
   31600   -905.65212    45.431191   -860.22093    1627.1805   -70615.172    1.8918427    88.963387   0.27634001 
   31700   -910.52568    45.733009   -864.79267    1637.9905   -74795.298    1.8918427    96.733773   0.24949027 
   31800   -906.95415     41.97293   -864.98122    1503.3181   -71963.804    1.8918427    116.98224    0.2408182 
   31900   -905.86939    46.306822   -859.56257    1658.5424   -70321.846    1.8918427      113.718   0.22413616 
   32000   -910.70342    41.753224    -868.9502    1495.4491   -76674.575    1.8918427    95.291337   0.23361821 
   32100   -907.27978    40.676778     -866.603    1456.8947   -72111.483    1.8918427    104.43969   0.24054685 
   32200   -908.15822     47.74565   -860.41257     1710.076   -72867.692    1.8918427    124.54859   0.21218209 
   32300   -906.85185    40.641616   -866.21023    1455.6353   -72807.885    1.8918427    118.35562   0.21143509 
   32400   -908.92226    42.785708   -866.13655    1532.4289   -74935.244    1.8918427    84.682484   0.25388671 
   32500   -907.28767    45.572518   -861.71515    1632.2423   -70338.569    1.8918427    114.57375   0.24354381 
   32600   -906.91564    43.722899   -863.19274    1565.9957   -71067.473    1.8918427    149.11243   0.22434897 
   32700   -910.66723    40.892571   -869.77466    1464.6236   -78044.927    1.8918427    148.83136   0.20611273 
   32800   -909.27521    47.897925   -861.37728      1715.53   -75003.854    1.8918427    145.78662   0.19359704 
   32900   -909.67444    46.470121   -863.20432    1664.3912   -72874.699    1.8918427    151.51172   0.18825546 
   33000   -914.75177    43.575466    -871.1763    1560.7152   -78313.026    1.8918427    170.22503   0.20420522 
   33100   -906.82148    45.390172   -861.43131    1625.7114   -69678.571    1.8918427    156.12844   0.18228519 
   33200   -908.35254      44.1252   -864.22734    1580.4047   -72906.823    1.8918427    156.36272   0.21691693 
   33300   -910.42611    42.483476   -867.94263     1521.604   -72910.254    1.8918427    149.39289    0.1839782 
   33400   -904.29987    45.538775    -858.7611    1631.0338   -67460.496    1.8918427    154.36025   0.22240835 
   33500   -906.59102    41.399808   -865.19122     1482.791   -71926.181    1.8918427    163.42871   0.21859921 
   33600   -909.12415    44.062397   -865.06175    1578.1553     -71380.9    1.8918427    153.70241   0.21178456 
   33700   -908.02156    45.283489   -862.73807    1621.8904   -73075.223    1.8918427    153.30266   0.22787357 
   33800   -903.47846    45.153485   -858.32497    1617.2341   -69227.896    1.8918427    169.12847   0.24446664 
   33900    -912.5313    47.054766   -865.47653    1685.3311   -75232.098    1.8918427    212.54053   0.18960569 
   34000   -908.36036    44.741194   -863.61917    1602.4673   -74233.011    1.8918427    219.80772    0.2008924 
   34100    -905.9925    47.633358   -858.35914    1706.0541   -72112.444    1.8918427    188.24279   0.22881006 
   34200   -906.34585    44.081141   -862.26471    1578.8266   -71231.904    1.8918427    178.33545   0.23542968 
   34300   -911.03715    42.265037   -868.77211    1513.7803   -76787.274    1.8918427    171.84663   0.20718294 
   34400   -907.22159    42.992683   -864.22891     1539.842   -71696.789    1.8918427    148.35248    0.2360676 
   34500   -907.59345    45.872953    -861.7205    1643.0028   -73324.349    1.8918427    152.81755   0.22769723 
   34600   -911.54504    44.774759   -866.77029    1603.6695   -77389.531    1.8918427    144.35247   0.19286102 
   34700   -911.35595    43.634666   -867.72128    1562.8355   -75878.499    1.8918427    152.25478   0.19477619 
   34800   -906.75514     46.70419   -860.05095    1672.7747   -71617.434    1.8918427    148.99947   0.20027806 
   34900   -911.09034    44.327644   -866.76269    1587.6555   -77509.979    1.8918427    151.07517   0.19648185 
   35000   -905.73197    42.290707   -863.44126    1514.6998   -73818.511    1.8918427    147.02208   0.23416459 
   35100   -909.11338    48.535596   -860.57778     1738.369   -73936.472    1.8918427    138.61075   0.20538977 
   35200   -908.58506    41.697769   -866.88729    1493.4629   -72650.555    1.8918427     150.3175   0.18749059 
   35300   -904.44605    46.685331   -857.76072    1672.0993   -69477.996    1.8918427    149.52839   0.21440241 
   35400    -906.7097    44.683401    -862.0263    1600.3974   -70858.476    1.8918427    144.83953   0.17582638 
   35500   -908.16488    43.015584   -865.14929    1540.6622   -73988.749    1.8918427    149.93235    0.2075806 
   35600   -903.77112    48.445369   -855.32575    1735.1374   -71232.335    1.8918427    152.95305   0.23135016 
   35700   -905.43691    44.803306    -860.6336    1604.6919   -71359.453    1.8918427    174.90126   0.25156869 
   35800   -908.45147    44.436888   -864.01458    1591.5682   -73326.541    1.8918427    183.88354   0.22400461 
   35900   -904.30693    47.504716   -856.80221    1701.4467    -66325.84    1.8918427    121.00337   0.24134969 
   36000   -906.59033    46.571124   -860.01921    1668.0088   -70031.396    1.8918427    154.26394   0.24794544 
   36100   -908.61556    44.532096   -864.08347    1594.9782   -73834.445    1.8918427    160.09528   0.21524297 
   36200   -907.58308    49.498454   -858.08463    1772.8551   -69954.283    1.8918427    149.38046   0.22168796 
   36300   -904.56979    42.635046   -861.93475    1527.0327   -68419.952    1.8918427    144.87325   0.24040467 
   36400   -910.45132    45.746006   -864.70532     1638.456   -75556.415    1.8918427    153.96803   0.24316504 
   36500   -906.37105    47.952023   -858.41903    1717.4676   -67492.444    1.8918427    170.87581   0.24277354 
   36600   -908.83437    45.549906   -863.28447    1631.4325    -73226.47    1.8918427    185.06702   0.22349145 
   36700   -906.86665    42.517954    -864.3487    1522.8389   -72921.465    1.8918427    163.72075   0.21168796 
   36800   -904.43975    46.170665   -858.26909    1653.6658   -69913.445    1.8918427    173.07159   0.21501617 
   36900    -910.4602    49.019496   -861.44071    1755.7006   -72544.227    1.8918427     168.9411   0.21084317 
   37000   -906.62803    41.970433   -864.65759    1503.2287   -70737.061    1.8918427    163.35876   0.22851428 
   37100   -911.33817    42.635097   -868.70307    1527.0346   -76345.891    1.8918427    167.17662   0.23381393 
   37200   -907.72841    47.885672   -859.84274    1715.0911   -69640.585    1.8918427    174.48014   0.24275848 
   37300   -908.15626    44.924054    -863.2322    1609.0167   -70027.461    1.8918427    166.58876   0.21045804 
   37400    -910.9821     40.26224   -870.71985    1442.0474   -77717.373    1.8918427    172.79981   0.21224945 
   37500   -905.47797    45.736939   -859.74104    1638.1313   -69149.474    1.8918427    178.28591   0.22852364 
   37600   -907.45964    44.008886   -863.45076    1576.2387    -73127.82    1.8918427    173.99225   0.22874982 
   37700   -910.56312    44.260557   -866.30256    1585.2527   -75884.196    1.8918427    171.71161   0.23265519 
   37800   -901.92831    44.505896   -857.42241    1594.0398   -66385.923    1.8918427    163.15856   0.23291697 
   37900   -906.14337    42.157115   -863.98625     1509.915   -70833.179    1.8918427    173.42482   0.21926723 
   38000   -907.52556    44.361997   -863.16356    1588.8859   -71362.563    1.8918427    186.20967   0.24154995 
   38100   -908.85163    48.422284   -860.42935    1734.3106   -72955.321    1.8918427    179.33623    0.2231616 
   38200   -908.80324    44.917093   -863.88615    1608.7674   -74868.798    1.8918427    200.87578   0.26340047 
   38300   -904.74029    39.638061   -865.10223    1419.6916   -73201.134    1.8918427    187.81009   0.25523177 
   38400   -907.86831    49.085073   -858.78324    1758.0493   -72287.056    1.8918427    187.18142    0.2438129 
   38500   -908.30768    43.973564   -864.33412    1574.9736   -72681.269    1.8918427    220.95734   0.24460937 
   38600   -911.72606    39.313151   -872.41291    1408.0545    -77201.86    1.8918427    203.40583   0.24799801 
   38700   -905.35142    41.701111   -863.65031    1493.5826   -71856.209    1.8918427    208.47899   0.23043385 
   38800   -907.35651    48.176516      -859.18    1725.5081   -70555.342    1.8918427    204.05338   0.24501782 
   38900   -909.34188    41.426073    -867.9158    1483.7317   -75799.382    1.8918427    214.31321   0.25798996 
   39000   -907.89625    43.473192   -864.42306    1557.0521   -72732.532    1.8918427     215.9299   0.24563399 
   39100   -908.74583    47.189138   -861.55669    1690.1438   -72076.283    1.8918427    209.46516   0.23646324 
   39200   -906.14098    43.545532   -862.59545     1559.643    -71823.41    1.8918427    214.09508   0.23396686 
   39300     -907.995     41.66393   -866.33107    1492.2509   -73623.539    1.8918427    211.85837   0.23356774 
   39400   -905.04019    46.832752   -858.20744    1677.3793   -70550.864    1.8918427    170.67517   0.26107648 
   39500   -907.09369    44.624818   -862.46888    1598.2991   -74675.837    1.8918427    182.49565    0.2223465 
   39600   -910.00916    46.143822   -863.86534    1652.7044   -74882.328    1.8918427    152.46541   0.20460116 
   39700   -907.01083      45.5083   -861.50253    1629.9423   -71882.653    1.8918427    157.70929   0.20583008 
   39800   -907.22941    45.510475   -861.71894    1630.0202   -73925.165    1.8918427    161.46529   0.21765391 
   39900   -905.23444    37.167745    -868.0667    1331.2138   -72215.891    1.8918427    155.08542   0.23025513 
   40000   -906.31546    47.621036   -858.69442    1705.6128    -72063.68    1.8918427    157.79747   0.21416027 
   40100   -910.45575    47.281681   -863.17407    1693.4583   -74598.337    1.8918427    157.64974   0.20369883 
   40200   -908.32884    43.034576   -865.29427    1541.3425   -74300.918    1.8918427    159.44687   0.21376337 
   40300   -902.15157    46.194083   -855.95749    1654.5045     -70822.4    1.8918427    159.70223   0.23161483 
   40400   -907.87467    43.365649   -864.50902    1553.2003   -73759.072    1.8918427    154.45712   0.21521189 
   40500   -908.97926      45.0871   -863.89216    1614.8564   -73998.766    1.8918427    153.21828   0.20972303 
   40600   -904.53302    48.960726    -855.5723    1753.5956   -69943.292    1.8918427    152.71096   0.21439898 
   40700   -910.30057    47.727323   -862.57324    1709.4196   -74067.295    1.8918427    157.07956   0.19776724 
   40800   -907.63048    42.563438   -865.06704     1524.468   -73202.774    1.8918427    164.92717   0.20911686 
   40900   -908.80113    48.496337   -860.30479    1736.9629   -73541.095    1.8918427    149.23744   0.19287317 
   41000   -907.16663    45.164332    -862.0023    1617.6226   -71290.844    1.8918427    150.27336   0.19223255 
   41100   -910.02283    43.274109   -866.74872    1549.9216   -75541.463    1.8918427    153.72256   0.20360953 
   41200   -906.30783    44.312754   -861.99507    1587.1222   -69156.446    1.8918427      162.192   0.20331391 
   41300    -906.5534     44.06811   -862.48529    1578.3599   -71213.496    1.8918427    157.82325   0.19872276 
   41400   -912.23449    48.033284   -864.20121     1720.378   -73744.593    1.8918427    148.00642   0.19809938 
   41500   -909.09127    42.147108   -866.94416    1509.5566   -73805.967    1.8918427    152.08696   0.20402703 
   41600     -905.298    44.873374   -860.42462    1607.2015    -71125.77    1.8918427    157.96256   0.21704639 
   41700    -907.7681     44.79484   -862.97326    1604.3887   -72767.881    1.8918427    157.74776   0.19610998 
   41800   -909.14505     42.24413   -866.90092    1513.0315   -72969.797    1.8918427    161.96034   0.19947631 
   41900   -907.51416    46.581376   -860.93278    1668.3759   -73061.347    1.8918427    146.86554   0.20385809 
   42000   -910.61648    44.223963   -866.39252     1583.942   -74070.787    1.8918427    155.50952   0.21332621 
   42100   -909.72285    42.767295   -866.95556    1531.7694   -74057.943    1.8918427    159.24699    0.2203593 
   42200   -905.62545    44.379813   -861.24564    1589.5239    -73768.69    1.8918427    152.06333   0.21908638 
   42300   -908.01518     41.30958    -866.7056    1479.5593     -73738.4    1.8918427    157.30184   0.21767361 
   42400    -911.9124    42.817532   -869.09487    1533.5687   -76874.997    1.8918427    162.00361   0.19844915 
   42500   -906.83554    43.372043    -863.4635    1553.4293   -70775.484    1.8918427    154.50691   0.19315416 
   42600   -906.41932    46.027425    -860.3919    1648.5354   -69799.822    1.8918427    150.18998   0.18941513 
   42700   -910.16402    42.087978   -868.07604    1507.4387   -74621.605    1.8918427    153.23437   0.20035049 
   42800   -907.82824    44.768557   -863.05969    1603.4473   -71298.346    1.8918427    152.05148   0.20483367 
   42900   -906.31871    44.925531   -861.39318    1609.0696   -72110.215    1.8918427    149.83481    0.2260395 
   43000    -910.1309    44.113765   -866.01714    1579.9951   -75661.702    1.8918427    134.72364     0.231107 
   43100   -911.46284    39.781494   -871.68135    1424.8288   -77050.609    1.8918427    141.20477   0.21155247 
   43200   -909.31464    47.638991   -861.67565    1706.2559   -74380.432    1.8918427    146.00322    0.2124077 
   43300   -908.75861    47.139186   -861.61942    1688.3547   -73469.026    1.8918427    141.47201    0.2175205 
   43400   -909.32667    40.635736   -868.69094    1455.4247   -76675.594    1.8918427    158.18227   0.19541272 
   43500   -906.14368    47.145875   -858.99781    1688.5943    -70423.35    1.8918427     143.8605   0.22251752 
   43600   -910.69493    46.518524    -864.1764    1666.1248   -71784.462    1.8918427    145.33803   0.21769128 
   43700     -909.258    44.493818   -864.76419    1593.6072   -73608.615    1.8918427    148.32925   0.23788729 
   43800   -904.34318    47.340494   -857.00269    1695.5648   -69351.544    1.8918427    132.73571   0.20876944 
   43900   -909.42559     45.15381   -864.27178    1617.2457   -73958.633    1.8918427    135.16717   0.23434735 
   44000   -909.24209     47.55223   -861.68986    1703.1484    -73234.29    1.8918427    131.46962   0.21342518 
   44100   -903.31758    48.510247   -854.80733    1737.4611   -66569.516    1.8918427     132.8034   0.22382484 
   44200   -905.81375    43.987021   -861.82673    1575.4556   -69645.632    1.8918427      120.512    0.2332726 
   44300   -908.88604    44.238046   -864.64799    1584.4464    -73832.56    1.8918427    110.89781   0.23415121 
   44400   -906.77334    46.623603   -860.14974    1669.8884   -71932.008    1.8918427    126.21533   0.24109833 
   44500    -907.4623    47.987139   -859.47516    1718.7253   -72602.177    1.8918427    114.33795   0.24536209 
   44600   -909.52965    43.282873   -866.24678    1550.2355   -77154.528    1.8918427    155.39556   0.24311577 
   44700   -905.47383    43.627683   -861.84615    1562.5854   -71431.136    1.8918427      159.953    0.2338617 
   44800   -910.45549    48.819921   -861.63557    1748.5525   -74200.675    1.8918427    160.83339   0.21400731 
   44900   -906.87691    43.512156   -863.36475    1558.4476   -73390.403    1.8918427    153.82561   0.21985472 
   45000   -906.15317    40.914167     -865.239    1465.3971   -71037.917    1.8918427    155.12107   0.23372404 
   45100   -906.67131    46.481082   -860.19022    1664.7838   -73376.371    1.8918427     149.9676   0.22008084 
   45200   -906.39945    45.439698   -860.95975    1627.4852    -70372.26    1.8918427     143.7982   0.22308786 
   45300   -910.40819    43.681039   -866.72716    1564.4964   -75144.633    1.8918427    163.71973   0.21324475 
   45400   -908.13522    47.568893   -860.56633    1703.7453   -74175.165    1.8918427    157.39913   0.21265906 
   45500   -906.76293    44.056092   -862.70684    1577.9294    -71341.95    1.8918427    156.62984   0.20206161 
   45600   -909.59968    46.074898   -863.52478    1650.2358   -76280.299    1.8918427     150.4565   0.20090553 
   45700   -910.18539     47.13025   -863.05514    1688.0346   -74615.949    1.8918427    152.29925   0.21242855 
   45800   -906.68865    43.630056    -863.0586    1562.6704   -71018.785    1.8918427    154.19333   0.21573651 
   45900   -911.57236    44.973451    -866.5989    1610.7859   -73907.768    1.8918427      152.241   0.18369683 
   46000   -909.23371    46.347365   -862.88634    1659.9945   -73577.986    1.8918427    153.90475   0.20061675 
   46100   -908.11052    48.053921    -860.0566    1721.1172   -71365.586    1.8918427    161.94369   0.20016742 
   46200   -908.43634     40.96282   -867.47352    1467.1397   -75019.615    1.8918427    154.57645   0.19164479 
   46300   -907.30499    43.620893   -863.68409    1562.3422   -72143.309    1.8918427    152.93112    0.2037887 
   46400   -905.03639    45.174851   -859.86154    1617.9993   -69418.058    1.8918427    166.65701   0.21279676 
   46500   -912.13432    43.268522    -868.8658    1549.7215   -76597.233    1.8918427    144.97436   0.19761019 
   46600   -907.31245    44.674525   -862.63793    1600.0795   -70916.515    1.8918427    156.52713   0.21348352 
   46700   -907.60851     45.38578   -862.22273    1625.5541   -73109.683    1.8918427    158.54544   0.19496724 
   46800   -908.08854    41.734705   -866.35383    1494.7858   -71305.598    1.8918427    162.41563   0.18846007 
   46900   -911.47817    40.446727   -871.03145    1448.6551   -76075.438    1.8918427    157.50271   0.17970009 
   47000   -905.35177    42.114852   -863.23692    1508.4013   -71602.849    1.8918427    157.20186   0.20876292 
   47100   -909.62528      47.5206   -862.10468    1702.0156   -74107.844    1.8918427    157.00859   0.20230234 
   47200   -909.05004     40.67808   -868.37196    1456.9413   -74266.544    1.8918427     154.6135    0.2063294 
   47300   -906.81478    44.473569   -862.34122     1592.882   -72083.668    1.8918427    149.72858   0.19875857 
   47400   -907.65258    46.208605   -861.44397    1655.0247    -69742.89    1.8918427    154.58418   0.20977086 
   47500   -912.61568    45.873804   -866.74187    1643.0333   -76163.179    1.8918427    148.79643   0.19662644 
   47600   -906.61487    47.641976   -858.97289    1706.3628    -69891.82    1.8918427    163.31686   0.19322767 
   47700   -904.97017    42.071299   -862.89887    1506.8414   -68867.906    1.8918427    152.56865   0.20468085 
   47800   -909.56509    43.562743   -866.00235    1560.2595    -73239.59    1.8918427    155.63444    0.1863884 
   47900    -903.4317    45.186604   -858.24509    1618.4203   -69084.682    1.8918427    170.27532   0.24649941 
   48000    -904.7609    48.514325   -856.24658    1737.6072   -67906.898    1.8918427    154.92784   0.20943212 
   48100   -909.50016    44.664104   -864.83606    1599.7062   -73974.221    1.8918427    152.63598   0.20582577 
   48200   -909.30075    43.970922   -865.32983     1574.879   -71960.176    1.8918427    156.63296   0.20740638 
   48300   -904.23169    46.795333   -857.43635    1676.0391     -67587.1    1.8918427    139.40567   0.22047543 
   48400   -905.79773     41.92445   -863.87328    1501.5818   -68134.516    1.8918427    129.98269   0.20216184 
   48500    -909.8192    46.719455   -863.09974    1673.3215   -74458.347    1.8918427    116.62883   0.20580125 
   48600   -906.50684    49.872467   -856.63438    1786.2509   -71060.405    1.8918427    130.76237    0.2243505 
   48700    -909.4896    46.348058   -863.14154    1660.0194   -73167.979    1.8918427    150.11794   0.24267601 
   48800   -907.08939    42.377571   -864.71182    1517.8109   -72382.208    1.8918427     142.5547   0.21309074 
   48900    -904.5568    49.149109   -855.40769    1760.3429   -66621.494    1.8918427    141.25915   0.24428218 
   49000   -905.64806    45.096975   -860.55109    1615.2101   -69156.043    1.8918427    99.772972   0.22288322 
   49100   -907.79959    43.075156   -864.72443    1542.7959   -73858.258    1.8918427     80.44507   0.26279836 
   49200   -906.78034    43.000924   -863.77942    1540.1372   -71585.453    1.8918427    85.788052    0.2156798 
   49300   -906.64223    49.444027    -857.1982    1770.9057   -68895.876    1.8918427    97.770909   0.21231692 
   49400   -910.09384     44.05871   -866.03513    1578.0232    -73464.71    1.8918427    101.89004    0.1998289 
   49500    -907.6457    44.059545   -863.58615    1578.0531    -72360.39    1.8918427    108.27386   0.20700112 
   49600   -905.50808    50.274301   -855.23377    1800.6431   -67854.569    1.8918427    111.10355   0.23123271 
   49700   -905.47696    43.817729   -861.65923    1569.3921   -68640.953    1.8918427    110.11757   0.19663605 
   49800   -909.73139    43.235264   -866.49612    1548.5304   -74278.455    1.8918427    106.72197   0.19298038 
   49900   -910.19577    50.701049   -859.49472    1815.9277   -73256.927    1.8918427    106.41141   0.18105471 
   50000   -903.70539    40.462379   -863.24301    1449.2157   -69901.337    1.8918427    109.63737   0.22251179 
   50100   -911.38539    45.635535   -865.74986    1634.4994   -73398.485    1.8918427    110.86998   0.20717417 
   50200    -905.9836    46.102542   -859.88106    1651.2259   -69818.631    1.8918427    103.27206   0.21161496 
   50300   -907.98552    41.993762   -865.99175    1504.0643   -72634.257    1.8918427    100.87922   0.21147982 
   50400    -908.8478    43.043968   -865.80384    1541.6788   -73151.724    1.8918427    107.05253   0.21775065 
   50500   -904.95903    44.335953   -860.62308    1587.9531    -69717.69    1.8918427      103.221   0.22493618 
   50600   -905.94428    42.666024   -863.27825    1528.1422   -70733.437    1.8918427    97.766035   0.21733911 
   50700   -908.89989    42.829921   -866.06997    1534.0124   -74638.609    1.8918427    101.88958   0.19533535 
   50800   -909.73757    43.558321   -866.17925    1560.1011   -73991.714    1.8918427     111.0679   0.19543726 
   50900   -909.14367    49.323129   -859.82054    1766.5756   -73989.949    1.8918427    104.82468   0.19905832 
   51000   -910.44484    42.171225   -868.27362    1510.4203   -76783.867    1.8918427    98.403792    0.1979646 
   51100   -909.47016    42.812661    -866.6575    1533.3942   -76745.934    1.8918427    105.87037   0.20092539 
   51200   -907.67333    46.768313   -860.90502    1675.0714   -71780.354    1.8918427    105.53511   0.21589469 
   51300   -907.97245    41.780422   -866.19202    1496.4232    -72684.52    1.8918427    117.08782   0.21409706 
   51400   -906.41544    39.934177   -866.48126    1430.2974   -70294.966    1.8918427    111.38116   0.20166803 
   51500   -904.92381    43.273213    -861.6506    1549.8896   -71298.976    1.8918427    103.97519   0.21040413 
   51600   -907.03996    42.583943   -864.45601    1525.2024   -70014.736    1.8918427    104.85967    0.1922204 
   51700   -911.82757    39.122161   -872.70541    1401.2139   -77394.717    1.8918427    107.79478   0.19368135 
   51800   -908.57926    44.102184   -864.47708    1579.5803   -72770.526    1.8918427    105.35943   0.21232893 
   51900    -906.1243    44.513645   -861.61066    1594.3174   -70100.982    1.8918427    110.18432    0.2266197 
   52000   -909.30802    44.117496   -865.19052    1580.1287   -73054.993    1.8918427    108.33616   0.25025131 
   52100   -909.37826     43.41662   -865.96164    1555.0259   -73366.666    1.8918427    96.314252   0.23178499 
   52200   -904.44343    45.447354   -858.99608    1627.7594   -67717.614    1.8918427    109.38494   0.21352905 
   52300   -909.57209    44.119343   -865.45274    1580.1949   -73928.136    1.8918427    115.63399   0.18587165 
   52400   -908.49168    43.803306   -864.68837    1568.8756   -73998.515    1.8918427    102.98595     0.214485 
   52500   -908.64759    46.426131   -862.22146    1662.8156   -73529.174    1.8918427    102.43114   0.22927594 
   52600   -906.42569    50.613626   -855.81207    1812.7965   -72687.213    1.8918427    108.23537    0.2362056 
   52700   -905.07678     40.77667   -864.30011    1460.4724   -69587.262    1.8918427    95.541387   0.21128681 
   52800   -908.31356    44.455265    -863.8583    1592.2264   -73440.551    1.8918427     102.8591   0.19548876 
   52900   -904.17628    49.113955   -855.06233    1759.0838   -68729.931    1.8918427    88.312068   0.24928323 
   53000   -906.60479    44.464917   -862.13987    1592.5721   -71694.536    1.8918427    94.773474   0.22114222 
   53100   -904.58341    41.410698   -863.17271     1483.181   -71152.014    1.8918427      90.2635   0.21928441 
   53200   -905.80519    42.573128   -863.23207     1524.815   -70731.631    1.8918427     85.02527     0.205139 
   53300   -905.75398    46.720611   -859.03337    1673.3628   -69171.293    1.8918427    88.000234   0.23196864 
   53400   -908.07787    43.967971    -864.1099    1574.7733   -74935.797    1.8918427    94.388809   0.25993819 
   53500    -910.4875    45.102565   -865.38493    1615.4103   -74271.734    1.8918427     83.94413   0.21651271 
   53600   -906.81035    46.915646    -859.8947    1680.3483   -70921.935    1.8918427    91.797195   0.23692133 
   53700   -907.48096    45.350596   -862.13037    1624.2939   -69935.778    1.8918427    85.087116   0.21382696 
   53800   -908.96818    41.975578    -866.9926     1503.413   -73716.552    1.8918427    84.338947   0.24139973 
   53900   -906.83295     42.99091   -863.84204    1539.7785   -72203.899    1.8918427    111.89381   0.24313704 
   54000   -905.62043     46.68631   -858.93412    1672.1343   -69767.586    1.8918427    116.79282    0.2075759 
   54100   -908.11324     41.03013   -867.08311    1469.5505   -72938.147    1.8918427    118.80191   0.20768641 
   54200   -907.81704     43.15952   -864.65752    1545.8175   -74071.165    1.8918427    133.15428   0.23460543 
   54300   -907.48243    46.998608   -860.48382    1683.3197   -72553.247    1.8918427    121.11118   0.23696953 
   54400   -906.77848    47.371855   -859.40663    1696.6881   -73431.717    1.8918427    124.48736   0.22063994 
   54500   -910.19945    43.076183   -867.12326    1542.8326   -77145.965    1.8918427    121.81388   0.20196982 
   54600   -904.90922    45.510005   -859.39921    1630.0034   -67452.488    1.8918427    118.65689   0.20190453 
   54700   -906.66343      46.1787   -860.48473    1653.9536     -70491.3    1.8918427    118.13964    0.2236161 
   54800   -911.31045     46.43722   -864.87323    1663.2128   -75300.376    1.8918427    123.68334   0.22120946 
   54900   -904.36129    42.808144   -861.55314    1533.2325   -68077.007    1.8918427    118.66842   0.21074524 
   55000   -903.29122    43.964094   -859.32712    1574.6344   -64957.728    1.8918427    122.57201   0.21269315 
   55100   -909.14696    43.098141   -866.04882    1543.6191   -73102.581    1.8918427    125.23195   0.19321158 
   55200   -906.75249    45.827746   -860.92474    1641.3837   -70492.521    1.8918427    142.15533   0.21968627 
   55300    -901.6204    45.621499    -855.9989    1633.9966   -64174.393    1.8918427    131.46867    0.2256794 
   55400   -908.77609     46.06159    -862.7145    1649.7591   -73360.062    1.8918427     120.7519     0.215882 
   55500   -908.08336    41.870074   -866.21328    1499.6342   -74041.242    1.8918427     116.8669   0.20313661 
   55600   -903.93784    46.770238    -857.1676    1675.1403   -67942.093    1.8918427    123.28157   0.22294538 
   55700   -908.17323    45.316533    -862.8567    1623.0739   -71322.103    1.8918427    134.66696    0.2178924 
   55800   -906.99725    43.505505   -863.49174    1558.2094   -72280.469    1.8918427    135.03093   0.22089394 
   55900   -910.17656    52.161401   -858.01516    1868.2322   -74580.616    1.8918427    130.35322   0.19950863 
   56000   -908.56235    47.708033   -860.85431    1708.7287   -70222.348    1.8918427    166.41932   0.21329813 
   56100   -909.66987    44.734973    -864.9349    1602.2445   -73465.287    1.8918427    166.35777   0.24130069 
   56200   -905.99218    47.592146   -858.40003    1704.5781   -68433.232    1.8918427    214.59186   0.23385599 
   56300    -909.3857    48.480166   -860.90554    1736.3837   -72069.571    1.8918427    237.58243   0.21483617 
   56400   -909.41656    44.604032   -864.81253    1597.5547   -73078.155    1.8918427     230.7928   0.20786349 
   56500   -906.49574    46.139153   -860.35659    1652.5371   -71748.071    1.8918427    230.80337   0.20068159 
   56600    -908.5118    46.449923   -862.06188    1663.6678   -72546.697    1.8918427    241.89005     0.218203 
   56700   -912.08592    44.649089   -867.43683    1599.1684   -76457.757    1.8918427     227.8415   0.18241697 
   56800   -907.45854    47.484483   -859.97405     1700.722   -70364.302    1.8918427    231.56178   0.22152445 
   56900   -910.11703    47.629965   -862.48706    1705.9326   -74438.106    1.8918427    239.85828   0.19257484 
   57000   -909.71045    42.190858   -867.51959    1511.1235   -73615.286    1.8918427     231.9515   0.21123338 
   57100    -910.7329    44.154914   -866.57798    1581.4689   -75931.656    1.8918427    230.77625   0.20579654 
   57200   -906.42908    46.681663   -859.74742    1671.9679    -72431.59    1.8918427    232.11572   0.20269223 
   57300   -911.39862    43.629461   -867.76916    1562.6491   -77494.111    1.8918427    221.50727   0.19542967 
   57400   -910.68124    43.943929   -866.73731    1573.9122   -72672.283    1.8918427     235.4608   0.19795613 
   57500   -909.09618    46.986832   -862.10934    1682.8979    -71591.24    1.8918427    232.19748     0.215264 
   57600   -908.07293     44.82525   -863.24768    1605.4779   -73579.548    1.8918427     218.4249   0.19299431 
   57700   -910.62273    42.146071   -868.47666    1509.5194   -75753.944    1.8918427    238.26305   0.20903901 
   57800   -906.78948    46.244994   -860.54449     1656.328   -68737.464    1.8918427    232.95594   0.19436845 
   57900    -908.4904    44.948972   -863.54143    1609.9092   -71653.462    1.8918427    238.97905    0.1989599 
   58000   -911.71862    40.907865   -870.81075    1465.1714   -76997.852    1.8918427    227.87834   0.21754968 
   58100   -911.39593    44.938602   -866.45733    1609.5378   -75797.478    1.8918427    248.78124   0.20563473 
   58200   -907.21381    46.334123   -860.87969    1659.5202   -69586.079    1.8918427    254.52274   0.22374143 
   58300   -908.30471    46.549457   -861.75526    1667.2327   -71668.561    1.8918427    303.04555   0.22367321 
   58400    -908.0079    39.916322   -868.09158    1429.6579   -73070.576    1.8918427     289.6176   0.20801083 
   58500   -905.60166    45.383242   -860.21842    1625.4631   -69268.456    1.8918427    322.61713   0.22195221 
   58600   -908.98588    45.570484   -863.41539    1632.1695   -72689.366    1.8918427    322.31735   0.17308184 
   58700   -911.91059    43.271819   -868.63877    1549.8396   -75920.916    1.8918427    344.03382   0.20417967 
   58800   -906.25228    39.634702   -866.61758    1419.5713   -71244.909    1.8918427     325.9166   0.21558447 
   58900   -907.29369     46.41404   -860.87965    1662.3826   -72887.909    1.8918427    325.42292   0.19333085 
   59000   -911.24705    43.055534   -868.19152    1542.0931   -75220.494    1.8918427    336.32626   0.18471377 
   59100   -909.57282     42.67026   -866.90256     1528.294   -75078.661    1.8918427    329.98175   0.20944791 
   59200   -906.57988    43.895511   -862.68437     1572.178   -72119.962    1.8918427    330.84863   0.19875468 
   59300   -904.90387    44.067074    -860.8368    1578.3228   -68075.384    1.8918427    327.63403   0.19806561 
   59400   -910.50251    42.253015    -868.2495    1513.3498   -73426.096    1.8918427    335.41739   0.17078778 
   59500   -906.20924    45.365395   -860.84384    1624.8239   -70875.175    1.8918427    334.08455   0.21100894 
   59600   -907.58691      45.5895   -861.99741    1632.8506   -74031.334    1.8918427    341.92487     0.202242 
   59700   -909.89769    42.851486   -867.04621    1534.7848   -74771.377    1.8918427     334.2666   0.20558082 
   59800   -912.10443    42.512905   -869.59152    1522.6581   -76218.985    1.8918427    319.62683   0.19268388 
   59900   -908.15155     47.34031   -860.81124    1695.5582   -71703.772    1.8918427    321.37582   0.18621674 
   60000   -912.54621      47.3057   -865.24051    1694.3186     -77765.9    1.8918427    329.60003   0.20152306 
   60100   -907.30356    39.118828   -868.18473    1401.0945   -70156.253    1.8918427    314.54857   0.18221531 
   60200   -904.77465     40.51389   -864.26076    1451.0606   -71653.248    1.8918427     330.3361    0.2298091 
   60300   -905.90558    44.821877    -861.0837    1605.3571    -70170.09    1.8918427    334.03956    0.2138718 
   60400   -905.00448    41.652167   -863.35232    1491.8296   -71480.568    1.8918427    264.30316   0.24595773 
   60500   -911.94466    44.782266    -867.1624    1603.9384   -76338.666    1.8918427    263.61003   0.23046235 
   60600   -905.41358    46.896422   -858.51716    1679.6598   -69521.273    1.8918427     270.2722   0.24348022 
   60700   -905.84639    42.086641   -863.75975    1507.3909   -73361.314    1.8918427    258.50195   0.24832813 
   60800   -907.64601    43.814469   -863.83154    1569.2754   -71249.331    1.8918427    237.30193   0.21209953 
   60900   -902.57705    51.415466   -851.16158    1841.5155   -66725.043    1.8918427    273.92795   0.24858269 
   61000   -903.63172    41.686481   -861.94524    1493.0586   -69956.155    1.8918427    253.18479   0.24940092 
   61100   -905.08679     40.36121   -864.72558    1445.5922   -71191.798    1.8918427    233.32353   0.22525823 
   61200   -906.15224    50.015676   -856.13656    1791.3801   -69692.563    1.8918427    226.35049   0.23485351 
   61300   -907.94845    46.020683   -861.92776     1648.294   -72955.381    1.8918427    203.71631   0.21215349 
   61400   -909.46482    45.546864   -863.91796    1631.3235   -75133.243    1.8918427    204.05359   0.21853156 
   61500     -907.625    45.006504    -862.6185    1611.9698   -71934.453    1.8918427    196.44612   0.22535783 
   61600   -905.66969    47.793129   -857.87657    1711.7766   -69314.934    1.8918427    188.26705   0.21373593 
   61700   -909.87104    42.686826   -867.18421    1528.8873   -76086.218    1.8918427    216.62924   0.22420928 
   61800   -905.59173    42.414111   -863.17762    1519.1196   -70967.317    1.8918427    216.28796   0.21059498 
   61900   -908.89221    48.466928   -860.42528    1735.9096   -73369.737    1.8918427    210.67679    0.2261005 
   62000   -909.84305    40.421218   -869.42183    1447.7414    -74104.63    1.8918427    206.72824   0.19634937 
   62100   -907.69731    46.754089   -860.94322    1674.5619   -72251.867    1.8918427    208.37157    0.2130034 
   62200   -908.96784    45.019443   -863.94839    1612.4332   -73640.073    1.8918427    217.29289   0.20007816 
   62300   -912.70045     44.41371   -868.28674     1590.738   -75833.079    1.8918427    201.72796   0.19645666 
   62400   -904.97979    41.303828   -863.67596    1479.3533   -69160.679    1.8918427    192.17226   0.21006446 
   62500   -904.56255    43.131304   -861.43125    1544.8069   -66800.877    1.8918427    212.07167   0.20925225 
   62600   -910.50928    43.612989   -866.89629    1562.0591   -74265.555    1.8918427     204.8701   0.20773767 
   62700   -908.40471    44.949803   -863.45491    1609.9389   -73460.402    1.8918427    201.36815   0.21542855 
   62800   -904.51033    44.230213   -860.28012    1584.1658   -69408.161    1.8918427    195.64952   0.23232029 
   62900   -906.32092    42.356532   -863.96439    1517.0574   -71284.103    1.8918427    193.26232   0.18891876 
   63000   -908.28514    44.659327   -863.62581    1599.5351   -71983.738    1.8918427    187.51523   0.21689914 
   63100   -906.68959    46.444482   -860.24511    1663.4729   -71162.655    1.8918427    197.45523   0.20615813 
   63200   -902.33338    43.025734   -859.30765    1541.0257   -66579.763    1.8918427    209.37691   0.22767845 
   63300   -906.50195    40.536677   -865.96527    1451.8768   -71603.649    1.8918427    207.20471   0.20864127 
   63400   -912.68746    53.068123   -859.61934    1900.7077   -74116.826    1.8918427    197.50936   0.18751849 
   63500   -908.02967    47.855538   -860.17414    1714.0118   -72768.231    1.8918427    204.67803    0.2149607 
   63600   -907.07287    42.906771    -864.1661    1536.7649   -71745.842    1.8918427    140.97467   0.21993651 
   63700   -904.71696    44.234978   -860.48199    1584.3365    -68271.03    1.8918427    159.35708   0.22179442 
   63800   -910.55014    45.917671   -864.63247    1644.6045   -73091.141    1.8918427    163.77517   0.18005253 
   63900   -907.07333    39.888524    -867.1848    1428.6623   -72528.418    1.8918427    157.25631   0.21494491 
   64000   -904.27953    43.678656   -860.60087     1564.411   -67800.388    1.8918427    154.08356   0.22641499 
   64100   -911.49602    46.977444   -864.51858    1682.5617   -73522.556    1.8918427    156.12866   0.19874333 
   64200    -908.1284     39.30697   -868.82143    1407.8331   -72924.056    1.8918427    157.65785   0.20939736 
   64300   -905.64717     44.69203   -860.95514    1600.7064   -70685.519    1.8918427    167.77372   0.21140152 
   64400   -906.94317    45.220499   -861.72267    1619.6343   -70932.729    1.8918427    161.40839   0.22902876 
   64500   -912.61725    44.205548    -868.4117    1583.2824   -76334.348    1.8918427    154.50813   0.20736707 
   64600   -907.85262    43.650449   -864.20217    1563.4008   -72127.367    1.8918427    157.55501   0.20718061 
   64700   -903.63021     44.46905   -859.16115    1592.7201   -69330.522    1.8918427    159.56074   0.21968799 
   64800   -909.12234    43.426626   -865.69572    1555.3843     -74145.9    1.8918427      158.004    0.2275622 
   64900    -912.3187    46.656479   -865.66222    1671.0659   -76187.908    1.8918427    151.45059   0.20160837 
   65000   -906.76315    46.881312   -859.88184    1679.1186   -72087.144    1.8918427    151.14191   0.22253651 
   65100   -907.91374    44.246689   -863.66705    1584.7559   -70950.299    1.8918427    156.37421   0.19718664 
   65200   -906.86037    39.781826   -867.07855    1424.8407   -74387.269    1.8918427    155.65939    0.2157578 
   65300   -906.87848    42.347849   -864.53063    1516.7464   -72991.029    1.8918427    128.67121   0.22466967 
   65400   -906.51292    47.374989   -859.13793    1696.8003   -67956.063    1.8918427    124.74084   0.21062474 
   65500   -909.56705    41.366672   -868.20038    1481.6042   -72476.923    1.8918427    148.21198   0.20746982 
   65600   -907.84887    43.728058   -864.12082    1566.1804   -72702.526    1.8918427    182.19162   0.19566023 
   65700    -907.5908    47.015871   -860.57493     1683.938   -72103.489    1.8918427    177.87478   0.19185331 
   65800   -911.53705    41.379622   -870.15743     1482.068   -75194.512    1.8918427    185.69741   0.18499916 
   65900   -908.00517    44.663266    -863.3419    1599.6762   -71811.152    1.8918427    181.48055   0.22452768 
   66000    -907.9307    45.698788   -862.23191    1636.7649   -69773.295    1.8918427     197.4285   0.22643689 
   66100   -910.30593    39.253696   -871.05223     1405.925    -73845.55    1.8918427    184.30542   0.18072116 
   66200   -910.40857     44.19151   -866.21706    1582.7796   -74590.903    1.8918427    186.53299   0.18850052 
   66300   -907.54456    44.982996   -862.56156    1611.1278   -70589.198    1.8918427    188.30493   0.18653444 
   66400   -909.14461    45.845011    -863.2996     1642.002   -73998.241    1.8918427    179.62255   0.19517634 
   66500   -909.72995    40.985882   -868.74407    1467.9656   -73293.771    1.8918427    184.32909    0.1969591 
   66600   -903.46126    43.438842   -860.02241    1555.8218   -69325.378    1.8918427    184.45729   0.20160937 
   66700   -907.10327    43.057821   -864.04545     1542.175   -69771.279    1.8918427    183.11334    0.1985322 
   66800   -909.30338    40.571743   -868.73163    1453.1327   -72986.203    1.8918427    185.64652   0.19554764 
   66900   -908.46619    42.903561   -865.56263      1536.65    -72357.75    1.8918427    180.03079   0.20119393 
   67000   -905.56755     45.14559   -860.42196    1616.9513   -70626.176    1.8918427     187.8225    0.1814413 
   67100   -910.11283    41.373324    -868.7395    1481.8424   -76790.764    1.8918427    188.89866   0.18856092 
   67200   -908.17931    42.170355   -866.00895    1510.3892   -74413.246    1.8918427    170.03025   0.20497803 
   67300    -904.5961    42.380406   -862.21569    1517.9124   -73631.322    1.8918427    184.19492   0.23735955 
   67400   -907.03685    48.340319   -858.69653    1731.3749   -72351.654    1.8918427    187.01647   0.19172555 
   67500   -907.89571    41.917333   -865.97837    1501.3268   -74653.766    1.8918427    199.28633    0.2190909 
   67600   -908.23288    44.942942   -863.28994    1609.6932   -75469.551    1.8918427     184.2436   0.22360611 
   67700   -905.04508    46.088244   -858.95683    1650.7138   -71664.396    1.8918427    183.09723   0.23004281 
   67800   -910.98403    46.979291   -864.00474    1682.6278   -76175.615    1.8918427    183.01868   0.20642386 
   67900   -909.83701    47.182181   -862.65483    1689.8946   -75095.773    1.8918427    183.44405   0.20220445 
   68000   -908.57206    51.390453   -857.18161    1840.6197   -72133.827    1.8918427    157.08003   0.20130238 
   68100    -906.7523    41.740138   -865.01216    1494.9804   -73573.056    1.8918427    152.90664   0.21235355 
   68200    -906.8929    45.087487   -861.80541    1614.8703   -73055.756    1.8918427    156.80097   0.22070754 
   68300   -902.54396    48.268985   -854.27498      1728.82    -64865.46    1.8918427    150.74419   0.18519037 
   68400   -907.83742    45.809426   -862.02799    1640.7275   -75617.363    1.8918427    147.76101   0.20084504 
   68500   -908.76129    42.939134   -865.82215     1537.924   -74248.034    1.8918427    148.75128   0.23314335 
   68600   -902.95619    43.445659   -859.51053    1556.0659   -70751.771    1.8918427     147.7373   0.21618368 
   68700   -905.77454     44.28275   -861.49179    1586.0475   -73197.688    1.8918427    154.81479   0.19552768 
   68800   -907.13233    41.732343   -865.39999    1494.7012   -72392.615    1.8918427    150.27849   0.21497111 
   68900   -909.31976     48.62238   -860.69738    1741.4773   -72650.836    1.8918427    145.36042   0.19502598 
   69000   -901.82762     43.07724   -858.75038    1542.8705   -65991.061    1.8918427    125.76736   0.22888515 
   69100   -908.62627    41.855506   -866.77077    1499.1124   -74173.209    1.8918427    107.49699   0.21698094 
   69200    -905.7935    45.802624   -859.99087    1640.4839    -70510.12    1.8918427    110.72808   0.21483587 
   69300   -905.90753    46.555554   -859.35197    1667.4511   -68651.361    1.8918427    153.51191   0.21216937 
   69400   -907.93346    42.880762    -865.0527    1535.8334   -72450.464    1.8918427    154.36932   0.22920571 
   69500   -905.21931    45.970544   -859.24877    1646.4982   -70067.895    1.8918427     143.1808   0.22751342 
   69600    -902.3127    42.004971   -860.30773    1504.4657   -69719.527    1.8918427    149.29571   0.20830458 
   69700   -910.40325    45.618582   -864.78466    1633.8922   -76570.689    1.8918427    151.73933   0.20286092 
   69800    -908.0932    48.005727   -860.08747     1719.391    -70157.44    1.8918427    148.82303   0.21218736 
   69900   -904.45079    45.651753   -858.79904    1635.0802   -68988.209    1.8918427    156.99381   0.22169048 
   70000   -905.63955    42.139323   -863.50023    1509.2777   -71935.261    1.8918427    146.88692   0.19450741 
   70100   -903.20886    45.405986   -857.80287    1626.2777   -68538.473    1.8918427    153.04283   0.19663222 
   70200    -910.4375    46.691064   -863.74643    1672.3046   -74800.373    1.8918427    151.90881   0.20351578 
   70300    -910.0315    44.581099    -865.4504    1596.7333   -74688.753    1.8918427    144.29042   0.23740877 
   70400   -905.90986    47.386884   -858.52298    1697.2264   -70978.857    1.8918427    145.73886    0.2235739 
   70500   -909.66642    40.846657   -868.81976    1462.9791   -76225.502    1.8918427    136.96179    0.1944988 
   70600   -907.32811      44.6482   -862.67991    1599.1366   -72545.787    1.8918427     145.6488   0.19853035 
   70700   -906.39468    45.416656   -860.97803    1626.6599   -70789.854    1.8918427    147.88821   0.22115655 
   70800   -910.33802     40.20112    -870.1369    1439.8583   -75692.728    1.8918427     151.3287   0.21037333 
   70900    -908.6631    45.089404    -863.5737    1614.9389   -73707.011    1.8918427    154.59556   0.19857307 
[...]
  186800   -908.59883    49.360678   -859.23815    1767.9205   -70804.673    1.8918427    53.948626   0.24327934 
  186900   -907.78811    44.508613    -863.2795    1594.1371   -71140.734    1.8918427    58.558514   0.21820366 
  187000   -905.52341    39.488671   -866.03473     1414.341   -72704.495    1.8918427    49.738083   0.21638507 
  187100    -906.5915    45.478019   -861.11348    1628.8577   -73662.848    1.8918427    56.561998   0.23934543 
  187200   -905.89917    45.987229   -859.91194    1647.0958   -70774.448    1.8918427     54.40867   0.24667596 
  187300   -910.03271    43.026336   -867.00638    1541.0473   -74816.147    1.8918427    48.746873   0.25826486 
  187400   -907.71617    47.003049   -860.71312    1683.4788   -71866.445    1.8918427    57.344425   0.24520568 
  187500   -909.83664    47.565626   -862.27101    1703.6282   -74986.959    1.8918427    50.615641   0.23157939 
  187600     -912.612    39.068948   -873.54305     1399.308   -76810.175    1.8918427    60.968835   0.20004643 
  187700    -911.1011    46.895414   -864.20569    1679.6236   -73328.124    1.8918427    64.316675   0.20399531 
  187800   -905.05105    45.207133   -859.84392    1619.1556   -68361.499    1.8918427    60.526401   0.23846991 
  187900   -910.12087    42.149129   -867.97174    1509.6289   -77198.677    1.8918427     60.36665   0.20816913 
  188000   -903.83783    41.623337   -862.21449     1490.797     -69741.6    1.8918427    56.355097   0.23745661 
  188100   -903.58838    41.872694   -861.71569     1499.728   -70870.429    1.8918427    50.518142   0.25355231 
  188200   -909.03477    43.156803   -865.87797    1545.7202   -75641.854    1.8918427     52.40188   0.24443131 
  188300   -904.19747     44.51662   -859.68085    1594.4239   -68468.476    1.8918427    50.142066   0.22558529 
  188400   -905.46908    44.721132   -860.74795    1601.7488   -72230.615    1.8918427    53.980995   0.22125649 
  188500   -910.04033    44.802964   -865.23737    1604.6797   -74618.231    1.8918427    63.176713   0.21331965 
  188600   -910.97957    49.647042   -861.33252     1778.177   -74127.287    1.8918427    47.240042   0.24027333 
  188700   -904.20348      51.0394   -853.16408    1828.0462   -71288.987    1.8918427     51.19567   0.24331831 
  188800   -905.97927    42.539413   -863.43986    1523.6075   -72204.627    1.8918427    53.107016   0.23114798 
  188900   -908.63874    44.871425   -863.76732    1607.1317   -71610.393    1.8918427    55.908054   0.23428348 
  189000   -902.05807    45.386134   -856.67194    1625.5667   -67675.815    1.8918427    34.409871   0.27319179 
  189100   -905.71366    42.565411   -863.14825    1524.5386   -73091.079    1.8918427    47.022013   0.24579984 
  189200   -909.71619    45.575572   -864.14062    1632.3517   -75536.647    1.8918427    44.502168   0.23073499 
  189300    -905.8612    48.389128   -857.47207    1733.1231   -69274.068    1.8918427     42.48312   0.23820047 
  189400   -912.40836    46.212564    -866.1958    1655.1664   -77816.365    1.8918427    43.172015   0.23582139 
  189500   -908.13334    44.276086   -863.85725    1585.8088   -72008.145    1.8918427    45.037058   0.21274104 
  189600   -906.07965    47.005885   -859.07376    1683.5803     -68793.5    1.8918427    39.214916   0.19986323 
  189700   -909.24262    46.566987   -862.67563    1667.8606   -71363.471    1.8918427    40.924582   0.20869482 
  189800   -909.48726    45.595769   -863.89149    1633.0751   -74526.791    1.8918427    44.276157   0.22219444 
  189900   -908.49867    46.631947   -861.86673    1670.1872   -72942.266    1.8918427    35.195703   0.22957929 
  190000   -908.90203    49.632953   -859.26908    1777.6724   -69450.614    1.8918427    25.495561   0.21333089 
  190100   -912.73909    45.241844   -867.49724    1620.3988   -76722.798    1.8918427    33.020812   0.23123392 
  190200    -907.6811     46.70807   -860.97303    1672.9137   -72030.216    1.8918427    24.994799      0.25249 
  190300   -906.53967    46.004237   -860.53543    1647.7049   -69250.064    1.8918427     26.07097   0.23021747 
  190400    -909.1391    43.784701   -865.35439    1568.2092   -71954.608    1.8918427    26.917525   0.23474043 
  190500   -902.96089    45.894809   -857.06608    1643.7856   -68492.076    1.8918427    19.909775   0.25422777 
  190600   -907.02588    45.525055   -861.50083    1630.5424   -70674.695    1.8918427    38.766203   0.25698585 
  190700   -907.75843    44.084422   -863.67401    1578.9441   -72165.748    1.8918427     43.91212   0.23097453 
  190800   -905.14989    44.752893     -860.397    1602.8863   -73237.356    1.8918427    47.672746   0.24292389 
  190900    -904.9147    47.256176   -857.65852    1692.5448   -71340.722    1.8918427     40.94514   0.22258169 
  191000   -908.40942    43.748443   -864.66098    1566.9106   -74054.461    1.8918427    41.962016   0.22191113 
  191100   -907.73817     47.21794   -860.52023    1691.1754   -72725.997    1.8918427    41.736831   0.22520639 
  191200   -907.66179    51.629067   -856.03272     1849.166   -70924.843    1.8918427    48.003766   0.21784382 
  191300   -911.08667    46.513363   -864.57331      1665.94   -76796.985    1.8918427    31.739038    0.2076242 
  191400   -908.78265    48.006426   -860.77622    1719.4161   -74155.382    1.8918427     37.31499   0.20784186 
  191500   -906.26337    48.348155   -857.91521    1731.6556   -71055.375    1.8918427    24.134637   0.21704903 
  191600   -908.23145    41.665794   -866.56566    1492.3176   -72350.686    1.8918427    30.229026   0.21220263 
  191700   -907.21471    46.926881   -860.28783    1680.7507   -72755.391    1.8918427    32.167464   0.21052479 
  191800   -909.84097    45.899555   -863.94141    1643.9556   -75010.387    1.8918427    32.208871   0.20735397 
  191900   -906.24367    40.051044   -866.19263    1434.4831   -72359.282    1.8918427    33.643911   0.21407487 
  192000    -909.6733    49.674676   -859.99863    1779.1667   -71060.399    1.8918427    27.798568   0.19308337 
  192100    -910.4944    41.580852   -868.91355    1489.2753   -76516.545    1.8918427    26.980386   0.19824844 
  192200   -909.30675    43.135895   -866.17085    1544.9713    -73352.39    1.8918427    35.937943   0.20470392 
  192300   -907.98045    46.453485   -861.52697    1663.7954   -73452.736    1.8918427    14.520845   0.23184332 
  192400   -907.43546    43.420995   -864.01446    1555.1826   -72403.294    1.8918427    3.1427683   0.21378057 
  192500    -910.4732     42.61228   -867.86092    1526.2173    -73490.66    1.8918427    7.1283837   0.21387962 
  192600   -904.39236    43.655379   -860.73698    1563.5774   -67591.567    1.8918427    3.2581469   0.18818406 
  192700   -911.04659    46.902342   -864.14425    1679.8718   -75679.428    1.8918427    3.6062306    0.1925821 
  192800   -913.28441    40.576197   -872.70821    1453.2922   -79054.855    1.8918427    3.5645998   0.20429187 
  192900   -908.55074     46.67086   -861.87988     1671.581   -73907.809    1.8918427    5.7312333   0.20247599 
  193000   -907.22272    44.780297   -862.44243    1603.8679   -70239.731    1.8918427    5.2293502   0.20839862 
  193100   -910.74728    43.085184    -867.6621     1543.155   -75924.527    1.8918427    3.6616055   0.20053527 
  193200   -907.25158     47.58859   -859.66299    1704.4507   -72189.944    1.8918427    5.2731171   0.21598291 
  193300   -909.38579    46.667468   -862.71832    1671.4595   -75574.122    1.8918427     4.427213   0.21849115 
  193400   -908.12369     42.34294   -865.78075    1516.5705   -73341.181    1.8918427    5.5843439   0.21488129 
  193500   -909.99564    47.255778   -862.73986    1692.5306   -76586.069    1.8918427    3.5686914   0.19929477 
  193600   -904.21423    47.230554   -856.98368    1691.6272   -69049.541    1.8918427    8.1179025   0.26303041 
  193700   -906.82213    44.590419   -862.23171    1597.0671   -71197.691    1.8918427    5.1551786   0.21133593 
  193800    -909.3435    44.689973   -864.65353    1600.6328   -71985.146    1.8918427    5.5571766   0.20812199 
  193900   -902.34335    45.916744   -856.42661    1644.5712   -66971.767    1.8918427    8.8254047   0.22252321 
  194000   -903.15327     46.86549   -856.28778    1678.5519   -65585.876    1.8918427    2.4050889   0.21161339 
  194100   -909.03919    44.024137   -865.01505    1576.7849   -72515.139    1.8918427    6.1384959   0.20567276 
  194200   -904.91201    42.018741   -862.89327    1504.9589   -70024.948    1.8918427    9.2579422   0.25463061 
  194300   -904.93234    47.308555   -857.62378    1694.4209   -67144.415    1.8918427    23.250928    0.2295235 
  194400   -905.71498    42.685847   -863.02913    1528.8522    -71558.51    1.8918427    20.606955   0.20475561 
  194500   -907.86326    45.014305   -862.84895    1612.2492   -71080.559    1.8918427    15.479877   0.23575564 
  194600   -907.39042    48.744047   -858.64637     1745.835   -70648.735    1.8918427    16.859363     0.228983 
  194700   -909.33914    44.866898   -864.47224    1606.9696   -74949.303    1.8918427    17.077432   0.21206056 
  194800   -906.16494    40.896606   -865.26833    1464.7681   -69328.663    1.8918427    15.871003   0.24061301 
  194900   -903.62089    47.109233   -856.51166    1687.2819   -67440.377    1.8918427    16.948661   0.25606657 
  195000   -906.29458    53.807884    -852.4867    1927.2033    -66586.98    1.8918427    9.9908168    0.2115207 
  195100   -908.37983    44.581559   -863.79827    1596.7498   -73379.685    1.8918427     18.04283   0.22515751 
  195200   -908.21548    43.037846   -865.17763    1541.4596   -74319.863    1.8918427     12.40618   0.24207675 
  195300   -903.65261    46.730072   -856.92254    1673.7017   -68337.197    1.8918427    9.4519425   0.22688632 
  195400   -907.38999      42.4326   -864.95739    1519.7818   -73720.129    1.8918427    34.736016   0.20125414 
  195500   -907.50175     43.86125    -863.6405    1570.9509   -71373.686    1.8918427     35.10615     0.182035 
  195600   -904.56486     45.81203   -858.75283    1640.8208   -68068.058    1.8918427    35.248598   0.22044764 
  195700   -908.63732    42.171021    -866.4663    1510.4131    -73146.05    1.8918427    34.227699   0.20290543 
  195800   -908.13196    43.316092   -864.81587    1551.4253   -73217.815    1.8918427    33.829611   0.19760823 
  195900    -908.4814    48.930622   -859.55078    1752.5174   -70521.736    1.8918427    39.008416   0.18381864 
  196000   -906.09717    43.128708   -862.96847    1544.7139    -69270.38    1.8918427    36.064757   0.19427644 
  196100   -908.64529    41.636951   -867.00834    1491.2846    -75297.88    1.8918427    33.233863   0.21100143 
  196200     -903.423    42.624011   -860.79899    1526.6375   -67884.331    1.8918427    36.545671   0.19733581 
  196300   -911.11655    49.027113   -862.08943    1755.9734   -75017.932    1.8918427    38.055396   0.18799887 
  196400   -907.06094    40.370265   -866.69067    1445.9165   -71745.965    1.8918427    36.532003   0.19540723 
  196500     -907.522    45.242105    -862.2799    1620.4081   -73614.095    1.8918427    29.259944   0.22208331 
  196600   -907.66358    49.594622   -858.06896    1776.2995   -71882.225    1.8918427    35.132653   0.21535678 
  196700   -907.27023    44.478475   -862.79176    1593.0577   -72280.476    1.8918427    47.987255   0.20152297 
  196800   -907.90082    42.963136   -864.93768    1538.7837   -75374.268    1.8918427    69.637045    0.2150322 
  196900   -903.57224    46.264377   -857.30786    1657.0222   -68422.284    1.8918427    33.517748    0.2175222 
  197000   -910.96276    47.041497   -863.92126    1684.8558   -75325.574    1.8918427    42.050479   0.22944992 
  197100   -908.86509    46.176899   -862.68819    1653.8891   -72733.992    1.8918427    41.636367   0.23340599 
  197200   -904.23494    48.376898   -855.85804     1732.685   -67022.448    1.8918427    35.854771   0.22369106 
  197300   -907.51913    44.456712   -863.06242    1592.2782    -73435.16    1.8918427    33.460378   0.21311536 
  197400   -907.16577    44.536771     -862.629    1595.1456   -71807.881    1.8918427    37.557453   0.21413437 
  197500   -903.81076    47.945427   -855.86533    1717.2313   -69728.016    1.8918427    47.232049   0.26073495 
  197600   -910.92629    46.338562   -864.58773    1659.6792   -77422.218    1.8918427    41.642463   0.21787654 
  197700   -907.63064    45.520403   -862.11024    1630.3758   -72004.607    1.8918427    45.684435   0.21985974 
  197800   -901.30255    47.333313   -853.96923    1695.3076   -65732.979    1.8918427    36.913826   0.25250107 
  197900    -906.3117    42.424444   -863.88725    1519.4897    -71742.01    1.8918427    50.301621   0.24341844 
  198000   -907.24764      45.0139   -862.23374    1612.2346   -74824.901    1.8918427     64.86087   0.24017959 
  198100   -897.37817    41.882794   -855.49538    1500.0898   -65833.224    1.8918427    49.870728   0.24357637 
  198200   -908.54123    43.282895   -865.25834    1550.2363   -76531.451    1.8918427    86.077889    0.1973312 
  198300   -906.91177    46.820782   -860.09099    1676.9506   -70317.437    1.8918427    68.986893   0.21503996 
  198400   -909.10356    47.071329   -862.03223    1685.9243   -73297.671    1.8918427    75.192681   0.19138864 
  198500   -909.63133    43.021581   -866.60974     1540.877   -77339.041    1.8918427    67.410878    0.1971646 
  198600   -908.64007    48.186495   -860.45358    1725.8655   -73392.191    1.8918427    61.330565   0.18405832 
  198700   -904.16899    42.105457   -862.06354    1508.0648   -72149.724    1.8918427    66.578535   0.22384189 
  198800   -906.75047    42.367746   -864.38273     1517.459   -73635.415    1.8918427    67.511008   0.21246044 
  198900   -909.56879    41.404554   -868.16424     1482.961   -77425.657    1.8918427    63.246904   0.21667311 
  199000   -904.89835    44.456629   -860.44172    1592.2752   -72154.909    1.8918427    75.785397   0.21678524 
  199100   -907.44436    44.964011   -862.48035    1610.4478   -73777.435    1.8918427    65.752546   0.21636329 
  199200   -909.27078    40.040473    -869.2303    1434.1045   -76065.544    1.8918427    69.861658   0.22188366 
  199300   -905.99762    47.930341   -858.06728     1716.691   -73388.846    1.8918427    74.139383   0.21576925 
  199400   -906.79508    41.842642   -864.95244    1498.6517   -73656.623    1.8918427    70.104189   0.21443676 
  199500   -907.69402    42.880145   -864.81388    1535.8113    -72854.67    1.8918427    67.042628    0.2298081 
  199600   -907.21084    49.097509   -858.11333    1758.4947   -73899.586    1.8918427    71.298572   0.22914987 
  199700   -908.51958    45.112408   -863.40718    1615.7629   -72789.824    1.8918427    66.121611   0.23357137 
  199800   -911.52097     48.04289   -863.47808    1720.7221   -75682.047    1.8918427    67.086125   0.21112169 
  199900   -906.74021    53.381733   -853.35847    1911.9401   -70089.716    1.8918427    82.428009   0.24066536 
  200000   -908.98898    47.489984     -861.499     1700.919   -71261.487    1.8918427    92.541946   0.22532531 
  200100   -908.29249    43.559778   -864.73271    1560.1533   -72251.613    1.8918427    76.904797   0.22356951 
  200200   -905.06464    48.214915   -856.84973    1726.8834   -69101.846    1.8918427     82.25171   0.22216019 
  200300    -903.8684     42.16029   -861.70811    1510.0287   -70955.607    1.8918427    70.585906    0.2263597 
  200400    -910.4296    46.944001    -863.4856    1681.3639   -75940.656    1.8918427    77.822341   0.22986602 
  200500   -905.12068    46.353262   -858.76742    1660.2057    -71575.56    1.8918427    89.902825   0.24383395 
  200600   -902.56357    42.872706   -859.69087    1535.5449   -70290.703    1.8918427    79.483817    0.2367095 
  200700   -909.03673    43.214351   -865.82238    1547.7813   -74397.864    1.8918427    99.693886   0.20472301 
  200800   -906.08527    48.465719   -857.61955    1735.8663   -71441.178    1.8918427    101.39893   0.24655095 
  200900   -905.17858      45.5243   -859.65428    1630.5153   -69596.099    1.8918427     84.86531   0.24268436 
  201000   -910.23488    46.563297   -863.67159    1667.7284   -76449.195    1.8918427    82.105574   0.22558141 
  201100   -909.13989    41.728288    -867.4116     1494.556   -73059.315    1.8918427    77.186357   0.22171578 
  201200   -908.99157    47.539537   -861.45203    1702.6938   -74886.588    1.8918427    80.944303   0.23846613 
  201300   -904.51548    43.861198   -860.65428    1570.9491   -72285.082    1.8918427    83.681216   0.25651407 
  201400    -909.0782    41.190029   -867.88817    1475.2775   -72513.617    1.8918427     92.28149   0.20855911 
  201500   -906.33043    42.844673   -863.48576    1534.5408   -72713.491    1.8918427    101.97265   0.20441957 
  201600   -907.56245    47.980725   -859.58172    1718.4956   -70959.887    1.8918427    100.92591   0.21770302 
  201700   -909.90378    43.620551   -866.28323    1562.3299   -76062.855    1.8918427     138.9334   0.23075984 
  201800   -905.84162    42.989238   -862.85239    1539.7186   -69194.672    1.8918427    159.88764   0.22490053 
  201900   -907.50358    47.375249   -860.12833    1696.8096   -71631.566    1.8918427    169.75452   0.22722085 
  202000   -912.15838    48.223034   -863.93534    1727.1742    -75859.92    1.8918427     160.2514   0.18334249 
  202100   -906.07729    42.289309   -863.78798    1514.6497   -71843.466    1.8918427    164.94072   0.20082963 
  202200   -903.50556    49.336687   -854.16887    1767.0612   -70075.382    1.8918427    166.36871     0.238051 
  202300    -907.0919    43.244147   -863.84776    1548.8485   -69321.095    1.8918427    161.60747   0.23315383 
  202400   -907.41762    42.835652   -864.58197    1534.2177   -73670.901    1.8918427    162.89974   0.22665088 
  202500   -905.63117    49.373398   -856.25777    1768.3761   -71192.887    1.8918427    154.23074   0.19391822 
  202600   -908.61567    44.365057   -864.25061    1588.9955   -72141.214    1.8918427    166.29457   0.22604272 
  202700   -906.25625    42.342148   -863.91411    1516.5422   -68829.449    1.8918427    165.55434   0.22602554 
  202800   -904.87086    46.666419   -858.20444    1671.4219    -68570.17    1.8918427    161.47506   0.23883105 
  202900   -907.49112    43.348716   -864.14241    1552.5938   -69924.323    1.8918427    163.19641    0.1815076 
  203000   -907.36302     41.98859   -865.37443     1503.879   -69974.877    1.8918427    159.84207   0.20708422 
  203100    -905.3431    48.009552   -857.33355     1719.528   -67698.647    1.8918427    171.22539   0.21614214 
  203200   -909.75853    42.532611   -867.22592    1523.3639   -73257.873    1.8918427    169.74109   0.20121879 
Loop time of 119.726 on 1 procs for 200000 steps with 217 atoms

Performance: 432.987 ns/day, 0.055 hours/ns, 1670.476 timesteps/s
100.0% CPU use with 1 MPI tasks x no OpenMP threads

MPI task timing breakdown:
Section |  min time  |  avg time  |  max time  |%varavg| %total
---------------------------------------------------------------
Pair    | 112.49     | 112.49     | 112.49     |   0.0 | 93.95
Neigh   | 4.8688     | 4.8688     | 4.8688     |   0.0 |  4.07
Comm    | 1.0541     | 1.0541     | 1.0541     |   0.0 |  0.88
Output  | 0.075763   | 0.075763   | 0.075763   |   0.0 |  0.06
Modify  | 0.96461    | 0.96461    | 0.96461    |   0.0 |  0.81
Other   |            | 0.2773     |            |       |  0.23

Nlocal:    217 ave 217 max 217 min
Histogram: 1 0 0 0 0 0 0 0 0 0
Nghost:    913 ave 913 max 913 min
Histogram: 1 0 0 0 0 0 0 0 0 0
Neighs:    3622 ave 3622 max 3622 min
Histogram: 1 0 0 0 0 0 0 0 0 0
FullNghs:  7244 ave 7244 max 7244 min
Histogram: 1 0 0 0 0 0 0 0 0 0

Total # of neighbors = 7244
Ave neighs/atom = 33.3825
Neighbor list builds = 8422
Dangerous builds = 223
Total wall time: 0:02:01
