LAMMPS (3 Mar 2020)
Reading data file ...
  orthogonal box = (0 0 0) to (17.469 17.469 17.469)
  1 by 1 by 1 MPI processor grid
  reading atoms ...
  217 atoms
  read_data CPU = 0.00107234 secs
Reading potential file library.meam with DATE: 2012-06-29
Reading potential file LiSi.meam with DATE: 2020-11-07
1 atoms in group Li
Neighbor list info ...
  update every 1 steps, delay 10 steps, check yes
  max neighbors/atom: 2000, page size: 100000
  master list distance cutoff = 6
  ghost atom cutoff = 6
  binsize = 3, bins = 6 6 6
  2 neighbor lists, perpetual/occasional/extra = 2 0 0
  (1) pair meam/c, perpetual
      attributes: full, newton on
      pair build: full/bin/atomonly
      stencil: full/bin/3d
      bin: standard
  (2) pair meam/c, perpetual, half/full from (1)
      attributes: half, newton on
      pair build: halffull/newton
      stencil: none
      bin: none
Setting up Verlet run ...
  Unit style    : metal
  Current step  : 0
  Time step     : 0.00133333
Per MPI rank memory allocation (min/avg/max) = 9.266 | 9.266 | 9.266 Mbytes
Step PotEng KinEng TotEng Temp Press Density c_msdli[4] 
       0   -951.06911    50.256344   -900.81276         1800    -114182.3    1.8918427            0 
     100   -920.79283    36.272046   -884.52078    1299.1331   -85521.826    1.8918427  0.090774176 
     200   -905.00747    45.563305   -859.44417    1631.9123   -66636.101    1.8918427   0.46000531 
     300   -901.64451    57.032509     -844.612    2042.6976   -60737.717    1.8918427   0.12555599 
     400   -909.02506    54.319372   -854.70569    1945.5229   -67358.626    1.8918427   0.12902494 
     500   -906.54793    47.436014   -859.11192     1698.986   -68564.484    1.8918427  0.069806682 
     600   -903.41868    54.252103   -849.16658    1943.1136   -62845.918    1.8918427  0.099398272 
     700   -899.28675    45.956115   -853.33064    1645.9814   -63521.765    1.8918427   0.08570143 
     800   -905.38032    46.475511    -858.9048    1664.5843   -67746.144    1.8918427   0.27276067 
     900    -901.6939    50.950319   -850.74358    1824.8557   -61701.505    1.8918427   0.34820223 
    1000   -904.56957    51.832174    -852.7374    1856.4405   -66400.406    1.8918427  0.042991539 
    1100   -905.82224    51.083042    -854.7392    1829.6093   -66198.224    1.8918427  0.063217523 
    1200   -900.84498    48.891144   -851.95383    1751.1035   -64066.932    1.8918427     0.186759 
    1300   -903.90097    49.421749   -854.47922    1770.1078   -65796.102    1.8918427  0.088345732 
    1400   -907.40196     48.87875   -858.52321    1750.6596    -66899.49    1.8918427   0.18148402 
    1500   -903.99903    55.284876   -848.71416    1980.1038   -63723.416    1.8918427  0.062338135 
    1600   -905.80537    53.057474    -852.7479    1900.3263   -67750.136    1.8918427 0.0045554775 
    1700   -904.85861    48.218213    -856.6404    1727.0015   -67898.079    1.8918427   0.11117164 
    1800   -901.36219    56.552683    -844.8095     2025.512   -61487.689    1.8918427  0.041767663 
    1900    -902.4461    47.856297   -854.58981     1714.039   -64094.496    1.8918427   0.19076712 
    2000   -904.66475    48.455328   -856.20942    1735.4941   -67738.991    1.8918427  0.044647264 
    2100   -900.53986    52.215491   -848.32437    1870.1695   -65093.223    1.8918427 0.0049761306 
    2200   -902.99414    47.935854   -855.05828    1716.8885   -66165.005    1.8918427   0.20093668 
    2300    -899.0563    44.495319   -854.56098     1593.661   -65058.035    1.8918427  0.055408378 
    2400   -899.87271    49.047115   -850.82559    1756.6898   -63629.864    1.8918427  0.019252037 
    2500   -900.73964    53.962284   -846.77736    1932.7333   -63375.383    1.8918427   0.20719007 
    2600   -904.55988    48.995056   -855.56482    1754.8252   -68969.851    1.8918427  0.027811377 
    2700   -902.65856     53.20777   -849.45079    1905.7093   -65302.726    1.8918427   0.27637194 
    2800   -900.52066    53.793896   -846.72676    1926.7023    -62881.26    1.8918427   0.27240701 
    2900   -904.71855    51.061914   -853.65664    1828.8526   -67272.013    1.8918427    0.6830386 
    3000   -900.68709    51.129096     -849.558    1831.2588   -63747.885    1.8918427    10.034075 
    3100   -897.91754    50.987047    -846.9305    1826.1711   -63381.985    1.8918427    10.811191 
    3200   -902.77695    48.944358   -853.83259    1753.0094   -66630.456    1.8918427     7.851202 
    3300   -900.69946    51.746285   -848.95317    1853.3643    -62820.52    1.8918427    3.3837776 
    3400   -899.61008    46.279283    -853.3308    1657.5561   -65315.491    1.8918427    6.4212534 
    3500   -904.76708    48.109092   -856.65799    1723.0932   -68534.607    1.8918427    16.947208 
    3600   -899.65278    51.686486    -847.9663    1851.2225     -61879.3    1.8918427    15.854759 
    3700   -903.05648    48.394494   -854.66199    1733.3153   -68354.662    1.8918427    19.268986 
    3750   -908.31536    52.912153   -855.40321    1895.1214   -72047.423    1.8918427    17.027346 
Loop time of 2.0687 on 1 procs for 3750 steps with 217 atoms

Performance: 208.826 ns/day, 0.115 hours/ns, 1812.729 timesteps/s
100.0% CPU use with 1 MPI tasks x no OpenMP threads

MPI task timing breakdown:
Section |  min time  |  avg time  |  max time  |%varavg| %total
---------------------------------------------------------------
Pair    | 1.9951     | 1.9951     | 1.9951     |   0.0 | 96.44
Neigh   | 0.035169   | 0.035169   | 0.035169   |   0.0 |  1.70
Comm    | 0.016488   | 0.016488   | 0.016488   |   0.0 |  0.80
Output  | 0.0011756  | 0.0011756  | 0.0011756  |   0.0 |  0.06
Modify  | 0.015965   | 0.015965   | 0.015965   |   0.0 |  0.77
Other   |            | 0.004788   |            |       |  0.23

Nlocal:    217 ave 217 max 217 min
Histogram: 1 0 0 0 0 0 0 0 0 0
Nghost:    919 ave 919 max 919 min
Histogram: 1 0 0 0 0 0 0 0 0 0
Neighs:    3638 ave 3638 max 3638 min
Histogram: 1 0 0 0 0 0 0 0 0 0
FullNghs:  7276 ave 7276 max 7276 min
Histogram: 1 0 0 0 0 0 0 0 0 0

Total # of neighbors = 7276
Ave neighs/atom = 33.53
Neighbor list builds = 64
Dangerous builds = 0
Total wall time: 0:00:02
