LAMMPS (3 Mar 2020)
Reading data file ...
  orthogonal box = (0 0 0) to (17.469 17.469 17.469)
  1 by 1 by 1 MPI processor grid
  reading atoms ...
  217 atoms
  read_data CPU = 0.00102493 secs
Reading potential file library.meam with DATE: 2012-06-29
Reading potential file LiSi.meam with DATE: 2020-11-07
1 atoms in group Li
216 atoms in group Si
Neighbor list info ...
  update every 1 steps, delay 10 steps, check yes
  max neighbors/atom: 2000, page size: 100000
  master list distance cutoff = 6
  ghost atom cutoff = 6
  binsize = 3, bins = 6 6 6
  2 neighbor lists, perpetual/occasional/extra = 2 0 0
  (1) pair meam/c, perpetual
      attributes: full, newton on
      pair build: full/bin/atomonly
      stencil: full/bin/3d
      bin: standard
  (2) pair meam/c, perpetual, half/full from (1)
      attributes: half, newton on
      pair build: halffull/newton
      stencil: none
      bin: none
Setting up Verlet run ...
  Unit style    : metal
  Current step  : 0
  Time step     : 0.003
Per MPI rank memory allocation (min/avg/max) = 8.895 | 8.895 | 8.895 Mbytes
Step Temp E_pair E_mol TotEng Press Volume 
       0         1650   -951.04357            0   -904.97525   -115000.87    5330.9442 
    3200    1552.3399   -943.98018            0   -900.63855     6767.626    4608.1995 
Loop time of 2.2674 on 1 procs for 3200 steps with 217 atoms

Performance: 365.811 ns/day, 0.066 hours/ns, 1411.308 timesteps/s
100.0% CPU use with 1 MPI tasks x no OpenMP threads

MPI task timing breakdown:
Section |  min time  |  avg time  |  max time  |%varavg| %total
---------------------------------------------------------------
Pair    | 2.1867     | 2.1867     | 2.1867     |   0.0 | 96.44
Neigh   | 0.032878   | 0.032878   | 0.032878   |   0.0 |  1.45
Comm    | 0.014233   | 0.014233   | 0.014233   |   0.0 |  0.63
Output  | 2.5173e-05 | 2.5173e-05 | 2.5173e-05 |   0.0 |  0.00
Modify  | 0.028672   | 0.028672   | 0.028672   |   0.0 |  1.26
Other   |            | 0.004898   |            |       |  0.22

Nlocal:    217 ave 217 max 217 min
Histogram: 1 0 0 0 0 0 0 0 0 0
Nghost:    953 ave 953 max 953 min
Histogram: 1 0 0 0 0 0 0 0 0 0
Neighs:    4153 ave 4153 max 4153 min
Histogram: 1 0 0 0 0 0 0 0 0 0
FullNghs:  8306 ave 8306 max 8306 min
Histogram: 1 0 0 0 0 0 0 0 0 0

Total # of neighbors = 8306
Ave neighs/atom = 38.2765
Neighbor list builds = 56
Dangerous builds = 0
Setting up Verlet run ...
  Unit style    : metal
  Current step  : 3200
  Time step     : 0.003
Per MPI rank memory allocation (min/avg/max) = 9.664 | 9.664 | 9.664 Mbytes
Step PotEng KinEng TotEng Temp Press Density c_msdli[4] c_msdsi[4] 
    3200   -943.98018    43.341628   -900.63855    1552.3399     6767.626    2.1885571            0 1.0234891e-31 
    3300   -947.92965    40.978784   -906.95086    1467.7114   -9591.7237    2.1572532   0.10223802   0.10893303 
    3400   -943.02304    44.810971   -898.21207    1604.9665    -2998.114    2.1645553   0.23892894   0.12650054 
    3500   -946.30877    48.811803   -897.49697    1748.2618    13246.433    2.2079243   0.15552623   0.12631192 
    3600   -949.30662    46.112516    -903.1941    1651.5831   -73.348325      2.18294   0.23307003   0.13651933 
    3700   -939.63351    44.440625   -895.19288     1591.702   -9487.0417    2.1408406  0.090102348   0.12852611 
    3800    -942.0777    46.382397    -895.6953    1661.2493    4964.7917    2.1827466    0.1583083   0.13202627 
    3900   -947.56477     47.08553   -900.47924    1686.4329    8801.0414     2.201965   0.32562857   0.12812975 
    4000   -945.73964    45.263125   -900.47651     1621.161   -4491.3086    2.1669309     0.387481   0.13327041 
    4100   -934.69213    42.665182   -892.02695    1528.1121    -5172.306    2.1438388   0.20307849   0.10506264 
    4200    -944.3525     42.71224   -901.64026    1529.7976    10553.739     2.203641   0.20291013   0.11097659 
    4300   -942.67416     42.04022   -900.63394    1505.7282    5477.0888    2.1884621   0.14508465   0.11089219 
    4400   -941.69364    45.486304   -896.20733    1629.1544   -9076.4443    2.1495837  0.070830361   0.14763996 
    4500    -945.0426    46.166244   -898.87636    1653.5074   -2940.0425    2.1679643   0.23153605   0.14905173 
    4600   -949.08591    45.576247   -903.50966    1632.3759    11265.252    2.2110233   0.32448308   0.15308361 
    4700   -942.44139    43.973062   -898.46833    1574.9556    5184.3926    2.1815317   0.19438173   0.13367949 
    4800    -944.5186    45.721792   -898.79681    1637.5888   -10947.226    2.1446696   0.30632134   0.14387063 
    4900   -950.76211    43.157831   -907.60428     1545.757    2275.9672    2.1943028   0.25900613   0.10806801 
    5000   -945.91018    46.222421   -899.68776    1655.5195    9131.9074     2.198895   0.31620655   0.12827437 
    5100   -948.83107    50.287739   -898.54333    1801.1244   -5865.3298    2.1685407   0.35131219   0.12648946 
    5200    -945.5865    42.761771   -902.82473    1531.5716   -7029.0059     2.155646   0.11314212  0.099450232 
    5300   -949.78034    44.972471   -904.80787    1610.7508    4895.9064     2.199055   0.27012348   0.12615966 
    5400   -939.74421    43.869376   -895.87483     1571.242    7150.0117    2.1829048    0.1926658   0.13774311 
    5500   -944.06943     43.68444   -900.38499    1564.6182   -4605.0033    2.1603828   0.23408792   0.16258338 
    5600   -952.19221    48.936236   -903.25598    1752.7185   -5613.9716    2.1737107   0.11309801   0.14921681 
    5700    -943.9293    49.608515   -894.32078    1776.7971    7644.0844    2.1926881   0.13608057   0.15876628 
    5800   -940.36378    44.340604   -896.02318    1588.1196    6112.7473    2.1806294    0.1570517   0.13757458 
    5900   -946.15425    44.314988   -901.83926    1587.2022   -9473.3315    2.1553862  0.036519401   0.13101045 
    6000   -944.27255     45.81013   -898.46242    1640.7527   -933.12133    2.1740311   0.13147988    0.1482021 
    6100   -942.72261    51.575606     -891.147    1847.2512    4765.3471    2.1839384   0.26791143   0.13926533 
    6200   -944.17197    43.704308   -900.46766    1565.3298    2129.4993    2.1828436    0.4023364   0.12893351 
    6300   -947.15169    46.367274   -900.78441    1660.7076   -8683.1453    2.1587356   0.27013453   0.12472639 
    6400   -943.80843    50.418115   -893.39032     1805.794   -180.64328    2.1680372   0.60406608   0.14490431 
    6500   -944.46294     45.53256   -898.93038    1630.8112    7465.6284    2.1931133   0.28355832   0.15516179 
    6600   -946.33146    44.330591   -902.00087     1587.761    -4627.834    2.1677759   0.20198124   0.17679206 
    6700   -947.37998    48.523612   -898.85637    1737.9398    -6526.493    2.1629996  0.074890834   0.15089414 
    6800   -943.87423    50.199747   -893.67449    1797.9729    5820.2334    2.1869736   0.18944093   0.12868286 
    6900   -951.24443    50.627809   -900.61662    1813.3045   -1658.9075    2.1787059  0.082049704    0.1216064 
    7000   -947.29056    44.703788   -902.58677    1601.1276   -13403.759    2.1453596  0.041005609   0.11717538 
    7100   -945.17513    45.527725    -899.6474     1630.638    4921.1136    2.1856607   0.48132554   0.12712119 
    7200   -943.59485     48.22428   -895.37057    1727.2188    18479.466    2.2116074   0.27501785   0.12120159 
    7300    -943.4781    48.456908   -895.02119    1735.5507   -11996.475    2.1392436    0.1758658    0.1233993 
    7400   -948.25832    44.071999   -904.18632    1578.4992    -8743.509    2.1577466   0.11692423   0.12352645 
    7500   -947.14221    47.230609    -899.9116    1691.6291    10051.186    2.2042215   0.15781836   0.16758822 
    7600   -944.95577    47.269481   -897.68629    1693.0214    2645.8925    2.1833808   0.13738789   0.17945206 
    7700   -942.93241    49.003942   -893.92847    1755.1435   -7066.7247    2.1503656   0.10581848   0.15593291 
    7800   -948.15348    43.395329   -904.75815    1554.2633    2068.2929    2.1905116    0.4138235   0.12576336 
    7900   -947.44048    45.546131   -901.89434    1631.2972    3289.9477    2.1863208    0.4854713    0.1034634 
    8000   -946.81506    47.729927   -899.08513    1709.5129    -4555.655    2.1691154   0.25088552   0.13996934 
    8100   -943.86375    46.361341   -897.50241    1660.4951    -2246.417     2.167921   0.39721067   0.13355925 
    8200   -954.35947    47.329963   -907.02951    1695.1876    3689.1513    2.2006841   0.16928085   0.11046457 
    8300    -947.4866    47.316453   -900.17015    1694.7038   -2834.8105    2.1697654  0.072169293   0.11993714 
    8400   -945.57008    46.889123   -898.68095    1679.3983   -5606.0233    2.1605496   0.12215702   0.14026954 
    8500    -948.1957    43.713271   -904.48242    1565.6509    4353.5635    2.1905737   0.14131988   0.15499463 
    8600   -945.28208    40.488072   -904.79401    1450.1359     9383.805    2.1988271   0.29638873   0.16423352 
    8700   -945.66827    47.579276   -898.08899    1704.1171   -5214.7211    2.1575378    0.1842341   0.14595609 
    8800   -946.81221    46.006496   -900.80571    1647.7858    -9851.225    2.1575485   0.39060518   0.11683607 
    8900   -951.45575    46.595804   -904.85994    1668.8927     8464.852    2.2087404   0.52599972   0.12735026 
    9000   -948.39676    53.837281   -894.55948    1928.2562    1152.3892    2.1793066   0.41747266   0.12460899 
    9100   -943.01843    45.099478   -897.91895    1615.2998   -8379.7085    2.1503742  0.030574831   0.13473099 
    9200   -947.72595    46.006483   -901.71947    1647.7854   -1980.3077    2.1749807  0.090864626   0.11261132 
    9300   -947.35637    46.224973   -901.13139    1655.6109    12961.067    2.2098055    0.0261934   0.12216756 
    9400   -942.63332    49.752203   -892.88111    1781.9435   -5840.6021    2.1506857   0.37140341   0.14716824 
    9500   -945.69721    44.759666   -900.93755    1603.1289   -12292.952    2.1471637   0.22076375   0.15837777 
    9600   -944.88554    44.478002   -900.40754    1593.0407    7933.9496    2.1946161   0.19588442   0.16573214 
    9700   -943.64762     49.25309   -894.39453    1764.0671    10148.025    2.1939834   0.14779866    0.1464048 
    9800   -945.49608      49.6283   -895.86778    1777.5057   -9935.3859    2.1440854   0.25307545   0.12514414 
    9900   -944.86819    41.946399   -902.92179    1502.3679   -3839.2833    2.1672354   0.16509154    0.1243793 
   10000   -946.10589    48.647911   -897.45798    1742.3918     6058.695    2.1914283  0.086875426   0.14665497 
   10100   -944.20346    48.183402   -896.02006    1725.7547   -302.45906    2.1714152   0.12099379   0.13154411 
   10200   -945.28527    40.132915   -905.15235    1437.4155    401.19577    2.1806282  0.058372441   0.14027971 
   10300   -947.52483    47.617892   -899.90693    1705.5002    -3.716328    2.1788678   0.44253183   0.13414056 
   10400   -942.05391    47.206858   -894.84706    1690.7785    3837.2246    2.1780493    1.1119572    0.1714735 
   10500   -944.32803    43.112525    -901.2155    1544.1343   -4442.4018      2.16689     15.75348   0.18972601 
   10600   -944.51082    43.593689   -900.91713    1561.3678   -4760.7852    2.1689077    16.493326   0.18576289 
   10700   -944.89475       50.506   -894.38875    1808.9417    7408.2161    2.1862986     16.63615   0.14659536 
   10800    -947.1825    46.833767   -900.34874    1677.4157    1137.7405    2.1864071    16.012002    0.1510006 
   10900   -939.89636    39.794633   -900.10172    1425.2994   -8164.8632    2.1566974    14.169009   0.16419853 
   11000   -939.53993    45.356725    -894.1832    1624.5134   -6281.6577    2.1577357     6.613327   0.15754548 
   11100   -946.91509    47.719497    -899.1956    1709.1393    7180.3797    2.1962618    6.2830395   0.15789021 
   11200   -948.49665    47.236089   -901.26056    1691.8254    3519.2309    2.1877466    6.4629486   0.15718651 
   11300   -941.40416    49.892659   -891.51151    1786.9741   -10565.961    2.1408204    2.7200601   0.17951749 
   11400   -945.00771    47.206918   -897.80079    1690.7806    -284.6416     2.174852    12.741024   0.16414477 
   11500   -947.32462     47.89345   -899.43117    1715.3697    2470.6855    2.1838086    6.5616172   0.17360329 
   11600   -945.29361     48.20496   -897.08865    1726.5269    -1528.424    2.1669311    2.5795467   0.16201882 
   11700   -937.75642     50.22642      -887.53    1798.9282   -7862.9872    2.1444523    5.4343628   0.16609097 
   11800   -942.04695     46.19542   -895.85153    1654.5524    9234.7668    2.1921487    13.222129    0.1498061 
   11900   -947.72913    49.293498   -898.43563    1765.5143    1122.0089    2.1785258    22.885243   0.12397892 
   12000   -940.73068    39.858495   -900.87219    1427.5867   -8002.1209      2.14848    21.561368   0.14858807 
   12100    -943.6095    47.428186   -896.18132    1698.7056    115.51289    2.1697862    23.339054   0.12967018 
   12200   -940.18462    49.366172   -890.81845    1768.1173    10024.155    2.1883426    24.567549   0.15296033 
   12300   -947.14492    47.497556   -899.64736    1701.1902   -5668.0274    2.1666602     24.96651   0.15302832 
   12400   -944.65827    44.057558   -900.60072     1577.982   -5982.3029    2.1589353    25.988419    0.1522033 
   12500   -944.50754    49.026394   -895.48114    1755.9476    5208.6743    2.1846487    25.255872   0.14693502 
   12600   -944.82554     53.69324    -891.1323    1923.0971    1171.2992    2.1751588    25.984034   0.14393655 
   12700   -948.47203     48.07683    -900.3952    1721.9377   -4050.3866    2.1657557    22.686682    0.1218874 
   12800   -944.07758    43.927924   -900.14965    1573.3389   -1286.9202    2.1695941    22.735306     0.130219 
   12900   -944.88643    48.869486   -896.01694    1750.3278    6079.1923    2.1882321    22.602046   0.12427246 
   13000   -940.00582    50.919865   -889.08596    1823.7649    1947.9818     2.161169    26.221417   0.13928408 
   13100   -948.38838    48.510695   -899.87769    1737.4772   -5370.9902    2.1652788    23.163997   0.12449623 
   13200   -947.17032    47.044754   -900.12556    1684.9725    -1687.747    2.1708585    24.793374   0.12538591 
   13300   -945.01044    46.247875   -898.76257    1656.4312    4829.1927     2.186266    24.878485   0.15175359 
   13400   -944.17674    48.921463   -895.25528    1752.1894   -714.04466    2.1696738    26.013096   0.14219728 
   13500   -941.17219    51.344466   -889.82772    1838.9726   -12949.865    2.1259589     25.25561   0.14730217 
   13600    -945.8123    46.545646   -899.26666    1667.0962     1973.486    2.1806141    24.351719   0.12441974 
   13700   -949.09671     50.27874   -898.81797    1800.8021    12918.871     2.210953     22.64471   0.12706465 
   13800   -944.08306    41.326107   -902.75695    1480.1513   -5581.0524    2.1594345    22.635329   0.12615077 
   13900   -948.30701    39.667262   -908.63975    1420.7375   -10639.132    2.1580634     23.49823   0.12653321 
   14000   -950.39324    44.053619   -906.33962    1577.8409    10394.888    2.2118562    22.805184   0.11439253 
   14100   -946.59104    46.016379   -900.57467    1648.1398    6627.4566    2.1949641     25.41154   0.12965288 
   14200   -944.18175    44.563513   -899.61824    1596.1034   -7298.7546    2.1536337    24.701689     0.139992 
   14300   -942.23324    46.493939    -895.7393    1665.2443   -1192.7843    2.1618783    23.564238   0.15236947 
   14400   -947.50999    48.575516   -898.93448    1739.7988     3875.402    2.1878641    21.690848   0.15230064 
   14500    -948.5775    44.556246   -904.02126    1595.8432    2133.6851    2.1841158    23.749975   0.12427311 
   14600   -945.85536    45.163225   -900.69213    1617.5829   -2302.5719    2.1687256    24.267436   0.12494892 
   14700   -944.41674    46.772713   -897.64403     1675.229   -1977.2573    2.1671385    23.686697   0.12487908 
   14800   -947.58409    44.274524   -903.30957    1585.7529      3153.34    2.1871784    24.762129   0.12088545 
   14900   -948.35986    43.285094   -905.07477    1550.3151    167.42575    2.1855266    23.549261   0.11677002 
   15000   -946.45398    47.327206   -899.12677    1695.0889   -2667.5824    2.1701818    19.978945   0.13312246 
   15100   -947.38648    48.795158   -898.59133    1747.6656   -3673.7521    2.1702622    26.576881   0.13137075 
   15200   -949.81442     42.25753   -907.55689    1513.5115    3825.4868    2.1985499     24.00344   0.13175151 
   15300   -947.55923    47.315285   -900.24395    1694.6619   -1344.0654    2.1721009    21.749059    0.1486136 
   15400   -946.66717    48.178254   -898.48892    1725.5703   -4186.3294    2.1671244    24.835222   0.15209616 
   15500   -949.94519    47.020681   -902.92451    1684.1103   -464.53882    2.1818045    20.291541   0.12954602 
   15600   -954.05694    47.430047   -906.62689    1698.7723    2646.8985    2.1982994    21.463349   0.11861848 
   15700   -945.01515    47.525376   -897.48977    1702.1866   -6064.4696    2.1576297    22.025598   0.11974433 
   15800    -946.2746    45.854886   -900.41972    1642.3557   -4078.3527    2.1623066     24.28754   0.12371813 
   15900   -948.30413    45.865072   -902.43905    1642.7205    8134.5686    2.2010829    21.684884   0.12809385 
   16000   -941.69018     49.74387   -891.94631     1781.645    2052.9168    2.1680405    27.387676   0.13500603 
   16100   -943.57881    46.839358   -896.73945    1677.6159   -3867.5432    2.1569266    22.160668   0.14172112 
   16200    -948.2606    47.258084   -901.00251    1692.6132   -717.15708    2.1763725    23.731898    0.1365722 
   16300   -944.95147    45.063205   -899.88826    1614.0006    9141.7484     2.198905    22.092843   0.15870354 
   16400    -940.4392    49.214979   -891.22422    1762.7021    -4486.401     2.152918    22.131373   0.14329505 
   16500   -949.22884    48.575524   -900.65332    1739.7991   -8700.2068    2.1594594    21.136737   0.13890835 
   16600   -947.99011    47.641886   -900.34823    1706.3596    4753.1865    2.1917783    21.749511   0.13045245 
   16700   -945.69226    49.353899   -896.33837    1767.6777    7629.0398     2.193195    22.900997   0.13838431 
   16800   -941.95448    48.983882    -892.9706     1754.425   -12931.555    2.1348023    25.107225   0.14618991 
   16900   -945.45501    42.603604   -902.85141    1525.9066   -4740.3685    2.1675934    25.301834   0.14791747 
   17000   -946.68106    47.735759   -898.94531    1709.7218    13847.933    2.2108837     19.72639   0.14954869 
   17100   -941.40193    43.852723   -897.54921    1570.6455    4000.9147    2.1756465    22.764927   0.14048499 
   17200   -939.54382    50.352039   -889.19178    1803.4274   -11770.122    2.1298901    18.740413    0.1593399 
   17300   -945.21913    46.009383   -899.20974    1647.8892    4373.1264    2.1827349    25.286276   0.13835594 
   17400   -946.57805    46.744308   -899.83374    1674.2116    3153.2355    2.1819023    24.438419   0.13115694 
   17500   -940.07102    40.276977   -899.79405    1442.5753    2518.7504    2.1694807    22.572174   0.14539832 
   17600   -945.91487    48.889497   -897.02538    1751.0445   -725.01061    2.1689384    23.741366   0.12987083 
   17700   -940.94703    52.257555   -888.68948    1871.6761   -2850.0982    2.1568829    21.280072    0.1430612 
   17800   -945.24097     46.96319   -898.27778    1682.0512    2050.5463    2.1818618    24.854746     0.151344 
   17900   -946.18582    46.087988   -900.09783    1650.7046    555.04735    2.1722404    25.713979   0.12363318 
   18000   -947.49005    47.650379   -899.83967    1706.6638   -2501.5515    2.1707564    24.358195   0.13370529 
   18100   -944.64939    55.309287    -889.3401    1980.9781    -3257.048    2.1598728    21.881396   0.13667527 
   18200     -947.128    49.620669   -897.50733    1777.2324    5436.7826    2.1928548    21.695325   0.13063683 
   18300   -945.06985    44.477528   -900.59233    1593.0237    -3593.821    2.1685586    24.799491   0.14775838 
   18400   -944.72813     45.39372   -899.33441    1625.8384   -8915.1316    2.1508314    23.373623   0.13663801 
   18500   -939.44426    49.467822   -889.97644     1771.758    8426.6852    2.1793121    22.719521   0.15018346 
   18600   -948.90527    50.835012   -898.07026    1820.7258    12725.149    2.2106901    26.504802   0.13884912 
   18700   -945.31642    44.055029   -901.26139    1577.8914   -9718.3679    2.1498498    22.047847   0.12845658 
   18800   -942.85035    45.802563   -897.04779    1640.4817   -9553.1622    2.1479051    25.656099   0.13280877 
   18900   -943.33163    50.307815   -893.02381    1801.8435    9864.0987    2.1918971     21.73138   0.12936362 
   19000   -950.53272    46.751849   -903.78088    1674.4817    4168.6519    2.1932045    27.463865   0.11657786 
   19100   -945.10618     43.25037   -901.85581    1549.0714   -9539.0486    2.1511721     23.64891   0.13960416 
   19200   -945.17389    46.201239   -898.97265    1654.7608   -1485.6099    2.1689702    24.711726    0.1303611 
   19300   -946.22335    48.514294   -897.70905    1737.6061    8081.1214    2.1910969    23.482221   0.12596041 
   19400   -952.95381    45.774965   -907.17885    1639.4932   -5407.7867    2.1759253    24.086183   0.12550768 
   19500   -950.85404    46.547538    -904.3065     1667.164   -10044.095    2.1561666     24.69858   0.12682541 
   19600   -947.23499    47.977966   -899.25703    1718.3967    5153.6287    2.1855579    23.006672   0.13452072 
   19700   -947.90132    49.847186   -898.05414    1785.3454    4144.6454    2.1852079     21.61181    0.1321635 
   19800   -946.67866    42.278685   -904.39998    1514.2692   -6988.9728    2.1605964    21.573614   0.12932016 
   19900   -950.75594    45.359289   -905.39665    1624.6052   -5709.0178    2.1700152    23.758828   0.13486888 
   20000   -949.07365    50.255424   -898.81823     1799.967    5857.8526    2.1914162     20.19507   0.12087013 
   20100   -945.25813    45.626182   -899.63194    1634.1644   -49.652662    2.1714064    22.476279    0.1358222 
   20200   -946.40154    39.811575   -906.58996    1425.9062   -7341.0173    2.1604027     23.62021   0.13986644 
   20300   -948.16671    44.079818   -904.08689    1578.7792    3054.8456    2.1874968    22.113836   0.13449305 
   20400   -945.88481    47.817198   -898.06761    1712.6386    5780.4256    2.1926883    20.498247   0.15790656 
   20500   -942.34383    41.320951   -901.02288    1479.9666   -1968.1775    2.1647429    24.663141   0.14373185 
   20600   -949.15275    41.802967   -907.34978    1497.2307   -5142.6107    2.1731206     23.06305   0.12883445 
   20700   -947.32635    44.463984   -902.86237    1592.5387    7402.8148    2.1925912    22.689933   0.13336308 
   20800   -943.69897    44.913641   -898.78533    1608.6437    4603.0575    2.1812125    19.778055    0.1514656 
   20900   -944.64249    44.457412   -900.18508    1592.3033   -3213.1299    2.1620074    22.735302   0.14647318 
   21000   -947.31867    45.571709   -901.74696    1632.2133    29.099521    2.1720552    23.937652   0.13960611 
   21100   -955.60179    44.892601   -910.70919    1607.8902    3873.7438    2.2072995    23.104756   0.13759628 
   21200   -946.89231    44.959945   -901.93236    1610.3022   -2274.0947    2.1707315    21.788829   0.14104657 
   21300   -945.57232    45.694932   -899.87739    1636.6267   -4780.0812     2.161957    22.764961   0.15028526 
   21400   -944.30429    46.276066   -898.02822    1657.4409    2990.4004    2.1777843    21.812776   0.13621306 
   21500   -950.31189    43.203833   -907.10806    1547.4046    3158.4454    2.1920724    23.210581   0.13844398 
   21600   -945.30889    41.360051   -903.94884     1481.367   -6335.2923    2.1630841     20.93726   0.14964746 
   21700   -943.85636    44.340796   -899.51556    1588.1265   -352.58919    2.1715806    22.850395   0.14207893 
   21800   -945.01956    47.023871   -897.99569    1684.2245    7859.3562    2.1930392     22.41497   0.15486781 
   21900   -946.44342    39.476798   -906.96662    1413.9157    1389.2125     2.182326    22.825998   0.14143847 
   22000   -945.26297    42.370792   -902.89218    1517.5681   -14312.538    2.1405473    23.475175   0.14435389 
   22100   -946.87905    48.288945    -898.5901    1729.5349    7640.0324    2.1941147    26.289899   0.13848628 
   22200   -943.98985    45.661739   -898.32811    1635.4379    17269.287    2.2155746    23.391891   0.15005972 
   22300   -948.00421    42.515941   -905.48827    1522.7668   -13680.459    2.1497097    23.367832   0.13089014 
   22400   -946.41557    43.591029   -902.82454    1561.2726   -8312.0305    2.1593737    20.550117     0.148867 
   22500   -945.34129    48.275785    -897.0655    1729.0636    7764.7127    2.1951489    23.547705   0.13343233 
   22600   -944.75116     44.60922   -900.14194    1597.7405    2871.0753    2.1814182     26.71771    0.1398962 
   22700   -950.14432    45.976472   -904.16784    1646.7105   -8407.3362    2.1638524    22.220626   0.13714215 
   22800     -954.882    43.948823   -910.93317    1574.0874   -2399.5744    2.1901893    21.774485   0.12243689 
   22900   -947.36238    46.035454   -901.32692     1648.823    3252.3387    2.1867346    23.399097   0.14698266 
   23000   -947.42452    47.311104   -900.11341    1694.5122    474.13654    2.1801745    19.455392   0.14226588 
   23100   -946.38551    46.618882   -899.76663    1669.7193   -4303.2544    2.1651088    25.521128   0.13282188 
   23200   -945.23301    49.810102    -895.4229    1784.0172   -1821.7334    2.1655574     22.74294   0.13830697 
   23300   -941.33124    51.858473   -889.47277    1857.3825    972.35237    2.1645657    25.380121   0.13364888 
   23400   -943.32211    44.437532   -898.88458    1591.5912    2762.2365    2.1767437    22.721423   0.13703384 
   23500   -945.89804    45.658786   -900.23925    1635.3321   -2886.1355    2.1717141    22.954493   0.14817679 
   23600   -942.37628     42.75904   -899.61724    1531.4737    1015.6899    2.1715888    21.231824    0.1417268 
   23700   -939.39429     50.37965   -889.01464    1804.4164    471.74878     2.156098     24.55484   0.13965725 
   23800   -944.33161    47.204611   -897.12699     1690.698    7265.8073     2.188961     22.70934   0.13558483 
   23900   -940.86803     40.48883    -900.3792    1450.1631    -2470.675    2.1620468    23.383458   0.13952238 
   24000   -947.23232    47.213359   -900.01896    1691.0113   -9998.9046     2.154442    23.803101   0.15755455 
   24100   -945.73394    50.131078   -895.60286    1795.5134    6716.4493    2.1930997    24.000297   0.13936405 
   24200    -940.3756    49.357539   -891.01806     1767.808    3468.3891    2.1695248     22.86947   0.15102717 
   24300   -945.71997    47.188271    -898.5317    1690.1127   -11555.454    2.1418513    23.389049   0.12969029 
   24400   -946.36081     45.61945   -900.74136    1633.9233    646.88397    2.1777736    24.512703   0.12247186 
   24500   -948.15637    48.060174    -900.0962    1721.3411    11308.538    2.2051417    23.077464   0.12402865 
   24600    -941.6614    50.378779   -891.28262    1804.3852   -5811.1007     2.147638    25.400963   0.14425311 
   24700   -946.93583    46.458734    -900.4771    1663.9834   -4751.9974    2.1637284    24.553978   0.13531893 
   24800   -946.15857    46.001853   -900.15672    1647.6195    5753.6684    2.1869356     20.93427   0.14579446 
   24900   -941.55118    46.694751   -894.85643    1672.4366    3939.8186    2.1758219    22.699204   0.12417436 
   25000   -941.92918    47.372809   -894.55637    1696.7222   -3972.6333    2.1505881    24.012698    0.1384193 
   25100   -949.06069    47.095841   -901.96485    1686.8022   -932.63014    2.1771853    22.970122   0.12690281 
   25200   -946.88827     48.10046   -898.78781     1722.784    5533.5211    2.1886962    24.755189   0.12637556 
   25300   -943.62824    48.827852   -894.80039    1748.8366   -1359.5423    2.1652992    24.614892   0.14475223 
   25400   -943.84482    47.251365   -896.59346    1692.3725   -8347.5832    2.1496186    24.486882   0.12979214 
   25500   -947.52391    45.058039   -902.46587    1613.8156    4450.3608    2.1890032    24.167535   0.12697032 
   25600    -945.9288    46.908849   -899.01995    1680.1048    7271.1609    2.1885506    26.459372   0.13512896 
   25700   -948.98749    50.690811   -898.29668     1815.561   -6855.2163    2.1611783    22.255605   0.13130392 
   25800   -953.42035    45.271315   -908.14903    1621.4543   -3892.7686    2.1812255    25.510056   0.13549901 
   25900   -953.08754    50.612289   -902.47526    1812.7487   -3382.0846    2.1791712    23.299487   0.13698509 
   26000   -945.08767    46.808061    -898.2796     1676.495    1890.7288    2.1791026    20.377206   0.13105299 
   26100   -947.96817    46.665254   -901.30291    1671.3802   -3075.6618    2.1724844    22.840654   0.13158805 
   26200   -952.63389    44.968327   -907.66556    1610.6024   -2429.4339    2.1893903     20.07529   0.11915139 
   26300   -946.77114    48.020351   -898.75079    1719.9148     -2544.37     2.172932    22.910629   0.13798038 
   26400   -944.89895    45.649372   -899.24958    1634.9949   -59.561488    2.1756773    23.552271   0.13788153 
   26500   -946.72883    41.146338    -905.5825    1473.7126    655.53627    2.1830115    22.794282   0.13665119 
   26600   -947.80521    44.174504   -903.63071    1582.1705    1498.0812     2.182674     22.07889    0.1280301 
   26700   -947.27191    49.289974   -897.98194    1765.3881   -794.02536    2.1741231    24.999207   0.12524861 
   26800    -948.9161     48.21166   -900.70444    1726.7668   -6820.6004    2.1628483    20.800935   0.13667134 
   26900   -949.37074    46.574691   -902.79605    1668.1365   -2934.8738    2.1778722    25.139668    0.1383112 
   27000   -955.46828     43.16532   -912.30296    1546.0252    7964.4828    2.2154379    24.599608   0.13116156 
   27100   -951.23213    45.894828    -905.3373    1643.7863   -6837.7538    2.1678185    25.211946   0.13415149 
   27200   -947.01098    45.098174   -901.91281     1615.253   -6331.2321    2.1614625    22.206272   0.13506765 
   27300   -946.13061    47.257205    -898.8734    1692.5817    6676.3509    2.1942435    22.668466   0.12269241 
   27400   -945.58085     45.39802   -900.18284    1625.9924    3327.9032     2.185512    24.389956   0.12989569 
   27500   -952.09826    43.016718   -909.08154    1540.7029   -8132.6172    2.1693567    23.717457   0.12416824 
   27600   -949.41555    47.259904   -902.15565    1692.6784   -7447.7333    2.1651679    24.485068   0.12363954 
   27700   -941.13724    43.258131   -897.87911    1549.3494    12504.055    2.1937852    22.677566    0.1548551 
   27800    -949.2328    46.996837   -902.23596    1683.2563    565.57305    2.1816101    23.244961   0.13785322 
   27900   -950.87446    41.842943   -909.03152    1498.6625   -8030.8315    2.1667077    25.343941   0.14458667 
   28000   -946.15713    45.949109   -900.20803    1645.7304   -2371.5373    2.1699272    23.866384    0.1402119 
   28100   -947.23314    48.682852   -898.55029    1743.6432    7706.2457    2.1969089    24.760757   0.14331177 
   28200   -947.26079    43.525021   -903.73577    1558.9084   -1115.4999    2.1745011     23.76674   0.13286493 
   28300   -949.37109    40.210389    -909.1607    1440.1903   -8554.4073    2.1637974    24.091899   0.13493064 
   28400   -944.56309    44.922516   -899.64058    1608.9616    486.10799    2.1769082    22.608341   0.13932031 
   28500   -947.69195    48.765018   -898.92693    1746.5861    9142.7949    2.2029773    22.480157   0.13073127 
   28600   -944.29061     42.56458   -901.72603    1524.5089   -2334.6608    2.1597271    21.811496   0.13501501 
   28700   -938.44879    45.661297   -892.78749    1635.4221   -11758.063    2.1281866    27.732656   0.13298952 
   28800   -946.73434    52.633747   -894.10059      1885.15    11046.398    2.2017651    24.383116   0.13486549 
   28900   -947.38725    48.801087   -898.58616     1747.878    7205.8933    2.1919658    25.415185   0.14054606 
   29000   -942.79709    41.261813   -901.53528    1477.8485    -12627.23    2.1370261    25.637905   0.15612049 
   29100   -942.37459    46.850288    -895.5243    1678.0074   -2235.9993    2.1614343    24.387077   0.14848664 
   29200   -943.82584    51.551028   -892.27482    1846.3709    5679.3088    2.1834637    23.578036   0.13400179 
   29300   -945.49355    44.824697   -900.66885    1605.4581    1477.7784    2.1788597    23.224666   0.12235531 
   29400   -947.83915    47.730608   -900.10854    1709.5373    -4695.949      2.16772    24.430911   0.12051832 
   29500   -940.57291    45.329695   -895.24321    1623.5453    521.33715    2.1669809     24.55574   0.15418501 
   29600   -939.73738    49.165434   -890.57194    1760.9276    55.276014    2.1617606    24.860781   0.14586469 
   29700   -945.00444    45.002168   -900.00227    1611.8145    1786.0152    2.1792462    24.828552   0.14150197 
   29800   -946.41845    46.423617   -899.99483    1662.7256   -1433.5696    2.1763446    21.584447   0.14565705 
   29900   -947.50259    49.207829   -898.29476     1762.446    -4133.522     2.166282    22.991573   0.14540506 
   30000   -938.15142    49.654256   -888.49717    1778.4354   -1890.1571    2.1542038    23.462718    0.1503184 
   30100   -946.98133    48.724238   -898.25709    1745.1255    7394.5246    2.1964804    25.752178    0.1477166 
   30200    -945.7487    45.548909   -900.19979    1631.3968     -2587.72    2.1678567    23.123305   0.12933284 
   30300   -941.72734     41.94973   -899.77761    1502.4872   -6360.8858    2.1518505    20.171154   0.14850161 
   30400      -948.91    43.540103    -905.3699    1559.4486    6018.2777    2.1959625    25.742137   0.12827727 
   30500   -949.55191    42.882167   -906.66974    1535.8837    11519.878    2.2120847    23.182237   0.11731424 
   30600   -943.57276    42.518779   -901.05399    1522.8685   -3709.7386    2.1604092    24.130277   0.14192839 
   30700   -944.72459    45.212343   -899.51225    1619.3422    -9945.137    2.1459874    21.460278   0.13099555 
   30800   -942.03047    46.542554   -895.48792    1666.9855    10599.289    2.1943207    24.020001   0.15180907 
   30900   -938.77047    52.555484   -886.21498    1882.3468    8066.4462    2.1719907    22.193101    0.1529841 
   31000   -943.16752     46.96242    -896.2051    1682.0236     -7397.18    2.1465789     25.54174   0.14207531 
   31100   -941.77143    42.557411   -899.21402    1524.2521   -2774.8877    2.1578913    23.286449   0.13982377 
   31200   -948.01394    48.351761   -899.66218    1731.7847    6091.7749    2.1914485     22.28361   0.13693442 
   31300   -947.32696    42.060079   -905.26688    1506.4395    3134.7816    2.1824414    24.726903   0.13384616 
   31400   -949.20157    40.466865   -908.73471    1449.3763   -1678.3565     2.179454    22.820559   0.12293213 
   31500    -944.4355    44.058126   -900.37737    1578.0023    347.87026    2.1688808    22.766219   0.13760795 
   31600   -945.83072    46.306332   -899.52439    1658.5249    1026.9516    2.1760719    23.402655   0.14210133 
   31700   -948.57063    48.474911   -900.09572    1736.1955   -2117.9149    2.1734298    22.480602   0.13673921 
   31800   -949.18412    40.144056   -909.04007    1437.8145   -2955.5076    2.1793065    22.399403   0.13642556 
   31900   -947.09281    41.705795   -905.38702    1493.7503   -782.71864    2.1756703    24.849068   0.13109067 
   32000   -948.25493    48.137708   -900.11722    1724.1181    2923.2355    2.1855474    21.538958   0.13184039 
   32100   -943.34321    45.154951   -898.18826    1617.2866    2060.9849    2.1720663    25.134856   0.15353989 
   32200   -943.63371    45.600533   -898.03317    1633.2457   -6885.8185    2.1523408    22.826145   0.14336914 
   32300   -950.37867    43.522496   -906.85617     1558.818    6110.2865    2.1970876    20.607624   0.15257715 
   32400   -945.43289    45.089804   -900.34308    1614.9533    8859.5345    2.1977232    23.277954   0.14105709 
   32500   -943.89794    45.145765   -898.75218    1616.9576   -6585.5511    2.1517521    22.092899    0.1499377 
   32600   -942.13896    45.226354   -896.91261     1619.844   -7679.2596    2.1464821    25.570216   0.14556105 
   32700   -950.31739    43.322271   -906.99511    1551.6466    17944.482    2.2328147    24.427575   0.13345294 
   32800   -946.57563    45.967929    -900.6077    1646.4045    2570.0811    2.1830156    24.003162   0.15610605 
   32900   -943.80022    44.440892   -899.35932    1591.7116   -11062.902    2.1426407    23.438994   0.14539839 
   33000   -942.92929    44.452965   -898.47633     1592.144    1922.8761     2.174659    22.002612   0.14650866 
   33100    -950.6366    42.467937   -908.16867    1521.0475     9074.591    2.2090379    22.771013   0.13632076 
   33200   -950.38377    49.290072    -901.0937    1765.3916    -4533.783    2.1689626    23.902033   0.12780104 
   33300   -943.69174    44.839162   -898.85258    1605.9762   -1390.6884    2.1669454     22.28581   0.15912853 
   33400   -949.30266    47.852839   -901.44982    1713.9152    641.59489    2.1860157     21.97429   0.15799803 
   33500   -951.66274    42.930669   -908.73207    1537.6209    2336.9262    2.1976996    22.607363   0.13649812 
   33600   -946.53364    47.416213   -899.11743    1698.2768   -7289.7704    2.1566731    22.879522    0.1270963 
   33700   -946.16467    46.446119   -899.71855    1663.5315   -2650.5047    2.1687751    26.216582   0.12072865 
   33800   -945.17339    44.083997   -901.08939    1578.9289    8983.4819    2.1974612    21.002018    0.1271333 
   33900   -945.58997    41.876857   -903.71312    1499.8772   -354.97764    2.1758247    22.349493   0.13710369 
   34000    -951.3512    40.124154   -911.22705    1437.1017   -3660.2154    2.1777491    21.292154   0.13121361 
   34100    -947.7781    43.096857   -904.68125    1543.5731     4472.631    2.1907837    23.972518   0.13574786 
   34200   -943.98469    43.594721   -900.38997    1561.4048    4478.9317    2.1832224    23.149156   0.13774217 
   34300   -947.30116    48.892572   -898.40859    1751.1546   -8497.8167    2.1556911    22.028593    0.1437039 
   34400   -943.44387    46.481964   -896.96191    1664.8154   -4054.4672    2.1610018    21.779032   0.15220887 
   34500   -950.79483    44.803066   -905.99176    1604.6834    17238.774      2.22856    23.784285   0.13101689 
   34600   -946.11681    46.101244   -900.01557    1651.1794   -708.76884    2.1722354    25.873416   0.12990547 
   34700   -944.91988    45.543653   -899.37622    1631.2085   -16566.507    2.1351632     21.69157   0.14534663 
   34800   -947.37844    48.465526   -898.91291    1735.8594    1979.2557    2.1839357    22.492508   0.12734998 
   34900   -952.36683      43.9736   -908.39323    1574.9749    11306.249     2.217477    22.204726   0.13196928 
   35000   -944.49714    43.679237   -900.81791    1564.4319   -6131.3176    2.1562947    22.191387   0.14943601 
   35100   -947.34134    48.122497   -899.21885    1723.5733   -6867.2129    2.1595292    23.067435   0.12945077 
   35200   -949.17262    48.724711   -900.44791    1745.1424    2767.1395    2.1890242    20.975652   0.14904333 
   35300   -950.92918    41.941347   -908.98783    1502.1869     3879.656    2.1976808    22.672321   0.13058362 
   35400   -945.58844    45.631196   -899.95724     1634.344   -7369.5766    2.1537589    22.658807   0.14468462 
   35500   -945.47269    46.396494    -899.0762    1661.7542    317.75437    2.1739681    21.663577    0.1431765 
   35600   -947.87981    47.458182   -900.42163      1699.78     6209.538    2.1943147    23.250301   0.13602448 
   35700   -950.34959    41.350563   -908.99903    1481.0272   -1883.6141    2.1818004    22.859237   0.11950888 
   35800   -946.21577    43.541853   -902.67392    1559.5113   -7778.8505    2.1574774    21.739272   0.13323388 
   35900   -945.69948    46.391699   -899.30778    1661.5824    4839.1938    2.1878484    22.492623   0.13005498 
   36000   -945.88296    46.430725   -899.45224    1662.9802    5688.2686    2.1880752     25.11645    0.1474417 
   36100   -945.97338    44.680339   -901.29304    1600.2877   -6162.7579     2.157574    26.488428   0.14466497 
   36200   -951.94749    42.712516   -909.23497    1529.8074    329.62842    2.1915837    22.882637   0.12368027 
   36300   -947.60914    45.837505   -901.77164    1641.7332      4749.37    2.1913661    23.940626   0.14202781 
   36400   -944.68855    45.560888   -899.12766    1631.8258   -1536.8032    2.1687573     23.54076   0.13937215 
   36500   -945.79762    47.431305   -898.36631    1698.8173   -2577.7368    2.1649703     22.74438   0.15223088 
   36600   -951.39669     43.51562   -907.88107    1558.5717    3621.5754     2.196167    24.408275   0.12243995 
   36700   -948.19303    47.306861   -900.88617    1694.3602   -2256.4895    2.1741362    23.485667   0.13681097 
   36800   -945.77522    47.243926    -898.5313    1692.1061   -2289.1979    2.1685648    25.413732   0.13247359 
   36900   -950.44665    47.002029   -903.44462    1683.4422   -2223.5226     2.177735    22.285101   0.12921117 
   37000   -953.24382    47.197935   -906.04589    1690.4589    980.34924    2.1915136    25.269871   0.13483419 
   37100   -947.86024    49.698877   -898.16136    1780.0335   -3384.8159    2.1684776     26.32847   0.13370535 
   37200   -946.33714    45.946607   -900.39054    1645.6408   -4803.8281    2.1638214     27.19824   0.15813942 
   37300    -949.6793    43.972288   -905.70701    1574.9279    1282.2413    2.1867769    23.300248   0.14108025 
   37400    -946.3883     43.87767   -902.51063     1571.539    6916.7057    2.1983367    21.802003   0.15037275 
   37500   -941.42108    43.735315   -897.68577    1566.4404   -2755.7307    2.1632108    23.235683   0.13932821 
   37600   -944.83224    44.216384   -900.61585    1583.6705   -10872.705    2.1479092    25.593736   0.14348486 
   37700   -942.35108    43.496524   -898.85455    1557.8878    11347.071    2.1980275    24.500123   0.13784413 
   37800   -938.74118    50.116055   -888.62513    1794.9753    9433.2078    2.1794698     25.22262   0.14953979 
   37900   -943.14967    45.946667   -897.20301     1645.643   -9428.4075    2.1479063    25.428976   0.15315474 
   38000   -946.73078     46.00422   -900.72655    1647.7043   -6389.4404    2.1583056    26.025869   0.14896942 
   38100   -946.37353     48.03154   -898.34199    1720.3156    10011.085    2.2025273    25.526203   0.15121216 
   38200    -935.0632    45.883658   -889.17955    1643.3862    6000.5652    2.1676034    23.236598    0.1732396 
   38300   -945.46572    47.035692   -898.43003    1684.6479   -7015.5098    2.1570302    26.328779   0.14736544 
   38400   -945.04813    44.548718   -900.49941    1595.5735   -1691.9263    2.1726837    21.900148   0.14112475 
   38500   -944.61458    46.419096   -898.19549    1662.5637     5076.828    2.1866776    22.972568   0.14150206 
   38600   -941.88142    52.360445   -889.52097    1875.3613   -2453.5807    2.1588202    26.899631   0.13715393 
   38700   -945.21142    45.577911   -899.63351    1632.4355   -588.02199     2.173831    24.315011   0.15079549 
   38800   -944.75518    44.486835   -900.26835    1593.3571   -731.27169    2.1739943    23.686621   0.14335657 
   38900   -947.27232    49.059456   -898.21287    1757.1318   -698.66594     2.177031    21.800422   0.14831563 
   39000    -938.1115    49.252193   -888.85931    1764.0349   -127.10742    2.1602843    22.301377   0.15361307 
   39100   -947.05826    48.257734   -898.80053     1728.417    1895.0095    2.1804018    23.013716   0.13849061 
   39200   -945.82839    45.290354   -900.53804    1622.1362   -2875.8813       2.1658     24.70463   0.16419529 
   39300   -942.99684    44.916175   -898.08066    1608.7345     826.8599    2.1702884    30.275453   0.17127652 
   39400   -937.75889    48.723969   -889.03492    1745.1159     4990.185    2.1664788    30.631612   0.16798655 
   39500   -937.41375    40.576061   -896.83768    1453.2873    6836.7364    2.1729025    33.423038   0.16005255 
   39600   -946.75095     47.31626   -899.43469    1694.6968   -7784.4534    2.1560211    45.220848   0.13841091 
   39700   -945.53586    47.737423   -897.79843    1709.7814   -2289.5798    2.1677114    48.523639   0.15121779 
   39800   -950.49382    43.472545   -907.02127    1557.0289    7752.4264    2.2039148    50.200569   0.13659599 
   39900   -948.44064    44.520573   -903.92007    1594.5655   -5905.1513    2.1665091    48.197395    0.1405428 
   40000   -943.01797    43.338798   -899.67917    1552.2386   -8170.4282    2.1479703    45.640178   0.15610148 
   40100   -945.07391    48.357612    -896.7163    1731.9943    11904.431    2.1995449    48.503913   0.14737896 
   40200   -947.76762    42.546138   -905.22148    1523.8484    10303.084    2.2065618     47.24116   0.13595519 
   40300    -945.0695    45.649129   -899.42037    1634.9862   -14569.843    2.1347194    53.876599   0.15072304 
   40400   -948.00654    50.181285   -897.82525    1797.3117   -6672.8193    2.1615806     51.74565   0.12485659 
   40500   -944.73074    44.703325   -900.02741     1601.111    10406.745    2.2001379    48.241175   0.12926785 
   40600   -948.30387    42.115671    -906.1882    1508.4306    174.64426    2.1831366    44.007856   0.13774531 
   40700    -943.6435    46.118513   -897.52499    1651.7979   -7670.9091    2.1525203    47.013407   0.12901044 
   40800   -944.36751    46.766432   -897.60107     1675.004    5507.5482    2.1849158    48.367046   0.15239372 
   40900   -949.35711      48.4378   -900.91931    1734.8663    1261.1498    2.1853814    44.227846   0.13331488 
   41000   -947.74398    44.613535   -903.13045     1597.895   -6176.6926    2.1647644    46.726982   0.13648478 
   41100   -941.93217     49.32801   -892.60416    1766.7504   -2890.9913    2.1563806    50.374957     0.154945 
   41200   -945.23515     48.64957   -896.58558    1742.4512    9852.3386    2.1947352    51.366056   0.14906947 
   41300   -947.48453    46.798334    -900.6862    1676.1466   -1038.4183    2.1718386    51.841172   0.11992957 
   41400   -946.71632    46.853903   -899.86241    1678.1369   -8084.7614    2.1533512    49.820829   0.12324222 
   41500   -940.45629    49.976881   -890.47941    1789.9906    318.67521    2.1616161    46.946727   0.14435381 
   41600   -944.01492    45.017117    -898.9978    1612.3499     9568.479    2.1969655    46.217446   0.12890202 
   41700   -945.03506    43.834287   -901.20077    1569.9852   -2493.5979    2.1693982     50.02077   0.14649487 
   41800   -941.37352    46.076218    -895.2973     1650.283   -2173.8584     2.158412    49.314093   0.12626134 
   41900    -943.6381    49.527737   -894.11036    1773.9039   -505.55618    2.1708305    51.954412   0.13285883 
   42000   -946.40036    44.610124   -901.79024    1597.7729    3492.1904    2.1867186     52.26026    0.1318316 
   42100   -944.24652    44.802226    -899.4443    1604.6533   -1005.0419    2.1735891    46.469893   0.14472829 
   42200   -941.34657    46.059637   -895.28693    1649.6892   -1719.7462    2.1598841    47.136008   0.13450236 
   42300   -948.84901    45.691852   -903.15716    1636.5164   -2036.3653    2.1768608    46.302278   0.12899012 
   42400   -949.39964    46.011703   -903.38794    1647.9723    -296.1319     2.183592    51.096273   0.13052782 
   42500    -945.9503    46.686329   -899.26397     1672.135    1867.0293    2.1813426    48.745015   0.12906634 
   42600   -940.90668    43.688029   -897.21865    1564.7468    512.36341    2.1666574    49.703459   0.14924387 
   42700   -952.10746    45.292706   -906.81475    1622.2205   -3337.0737    2.1780514    46.229825   0.11416963 
   42800   -951.66417    48.945429   -902.71874    1753.0478   -3109.9951    2.1766679    50.054299   0.12041096 
   42900    -943.0292    45.525405    -897.5038    1630.5549    6387.0512    2.1845589     49.20821   0.13974865 
   43000    -947.5571    46.093115   -901.46398    1650.8882   -2077.4448    2.1738888    48.121432   0.13599557 
   43100   -949.00269    41.530463   -907.47223    1487.4706   -5673.6485    2.1698756     46.96473   0.14397327 
   43200    -947.5138     48.31108   -899.20272    1730.3277   -472.53395    2.1786611    45.677829   0.15305175 
   43300   -943.84953      45.2927   -898.55683    1622.2203    7265.7766    2.1917288    43.155471   0.15339266 
   43400   -946.29242    40.372948   -905.91947    1446.0126   -3300.5208    2.1717345    46.278345   0.14314968 
   43500   -947.54332    47.146919    -900.3964    1688.6316   -8158.8279    2.1598927    50.307303   0.15408622 
   43600   -945.55449    48.462981   -897.09151    1735.7682    7303.2247    2.1973202    46.569043   0.13903359 
   43700   -948.66242    47.465455   -901.19696    1700.0405     612.3654    2.1842792     49.12641   0.14076342 
   43800   -943.60169      40.2379   -903.36379    1441.1756   -7882.3379    2.1520227    51.330612   0.14296348 
   43900   -943.82154    49.841367   -893.98017     1785.137    2363.8265    2.1751169    48.605844   0.13529476 
   44000   -943.05262    47.554246   -895.49837    1703.2206    13890.907     2.200279    47.591657   0.15385477 
   44100   -945.15445    44.361053    -900.7934     1588.852   -7072.3916    2.1592343    49.473455   0.15369843 
   44200   -944.95366    46.395205   -898.55845     1661.708   -5861.4944    2.1588585    43.177903   0.14196044 
   44300    -940.5582    51.303915   -889.25428    1837.5202    6482.7376    2.1720742    45.041348   0.15745112 
   44400   -948.98682    50.012688   -898.97414    1791.2731    4090.1655    2.1874193    46.023258   0.13070264 
   44500   -946.02709    45.163587    -900.8635    1617.5959   -5290.9356    2.1644166     49.17622   0.13990643 
   44600   -941.90138    45.381959   -896.51942    1625.4172   -320.28362    2.1675268     45.78615    0.1419028 
   44700   -938.39854    48.735815   -889.66273    1745.5401    5821.8007    2.1717856    54.371769   0.12553465 
   44800   -949.50568    49.271445   -900.23424    1764.7245    2108.3993    2.1834346    45.447361   0.12559379 
   44900    -947.9966    47.825034   -900.17156    1712.9193     -4891.79    2.1633308    48.633033   0.12378993 
   45000   -945.80033    48.225396   -897.57494    1727.2588   -4193.6443    2.1655686    48.113787   0.14552311 
   45100   -936.86483    48.231199   -888.63364    1727.4666    9892.7519    2.1739518    48.763966   0.15362865 
   45200   -943.79275    47.629323   -896.16343    1705.9096    1593.0786    2.1740111    52.211411    0.1376607 
   45300   -946.50022    46.750016    -899.7502     1674.416   -12056.681    2.1438081    47.140018   0.13807722 
   45400   -944.63097    44.857479   -899.77349    1606.6322    3314.0389     2.177664    43.642277   0.13374861 
   45500   -948.56614    44.878598   -903.68754    1607.3886    12911.558    2.2116262    49.314492    0.1274001 
   45600   -950.00219    40.012847   -909.98934    1433.1151   -2775.4937    2.1810612    50.799966   0.13062915 
   45700   -943.08593    41.214816   -901.87112    1476.1652   -8444.7601    2.1495341    52.893991   0.13206295 
   45800    -948.3185    49.117029   -899.20147    1759.1938    3542.8802    2.1873015    44.880055   0.12117658 
   45900   -946.69482    46.353744   -900.34108     1660.223    4267.4599    2.1853814    47.738923   0.12876064 
   46000   -950.12364    40.428918   -909.69472    1448.0172   -3799.5304    2.1774256    47.826254   0.13578041 
   46100   -948.94236    44.999192   -903.94317    1611.7079   -3331.8612    2.1741173    47.456489   0.13547004 
   46200   -945.86157    46.476234   -899.38533    1664.6102    4058.7415    2.1863353    47.274778   0.13601667 
   46300   -944.01972    44.962095   -899.05762    1610.3792    2253.7616    2.1787359    47.996652   0.14155668 
   46400   -946.48492    39.725702   -906.75922    1422.8306   -3600.0259    2.1735219     47.03998   0.13281418 
   46500   -948.70332    44.298523    -904.4048    1586.6124    290.51293    2.1810309     48.21011   0.13066313 
   46600   -946.06464    47.334644      -898.73    1695.3553    5723.2953    2.1909785    48.438004   0.13225009 
   46700   -940.99181    41.173498   -899.81831    1474.6854    96.373747    2.1727939    49.064878   0.14299797 
   46800   -951.81836    44.077906   -907.74045    1578.7107   -9098.8541    2.1653419     48.36842   0.11994237 
   46900   -945.73006    42.597606   -903.13246    1525.6918    3244.6782    2.1851253    44.663845   0.13376063 
   47000    -946.7601    48.937373   -897.82273    1752.7592    9888.8754    2.2009153    49.734082   0.12780212 
   47100   -944.28359    42.891512   -901.39207    1536.2184   -4621.2308    2.1620873      47.1168   0.14331888 
   47200   -946.19441    39.784946   -906.40946    1424.9525   -8604.2753    2.1589427    49.532129   0.13193822 
   47300   -951.49435    45.061941    -906.4324    1613.9553    9593.2578    2.2107731    47.979489   0.13377297 
   47400   -947.47604    48.256116   -899.21992    1728.3591    3492.0031    2.1875305    49.125274    0.1440064 
   47500   -945.07182    44.929068   -900.14275    1609.1963   -8394.9993    2.1509708    46.709197    0.1575834 
   47600   -947.09853    49.164343   -897.93419    1760.8885   -2777.8872     2.165824     48.39476   0.14193551 
   47700   -939.16259    51.772802   -887.38979     1854.314    6000.5842    2.1681417     45.53102   0.14842198 
   47800   -945.75764    49.193494   -896.56415    1761.9326    2915.0725    2.1765052     46.39095   0.12602685 
   47900   -949.83071    49.600665   -900.23005    1776.5159   -8323.7247    2.1588045    45.132862    0.1288139 
   48000   -948.09599    48.382092    -899.7139    1732.8711   -4143.4759    2.1682104    51.357909   0.12819717 
   48100    -941.0469    50.581264   -890.46564    1811.6374    7594.5664    2.1769773    43.080514    0.1320312 
   48200   -943.06919    47.574515   -895.49467    1703.9466    3756.7132    2.1768956    49.150656   0.14204477 
   48300    -943.1879    42.686482   -900.50142     1528.875   -6233.7898    2.1501468    45.264682   0.13978609 
   48400   -945.54133    46.165568   -899.37576    1653.4832    357.56966    2.1718975    48.664025   0.13952412 
   48500   -943.90814    48.012573   -895.89557    1719.6362     10047.93    2.1919329    46.252194   0.14885758 
   48600   -940.28357    49.788227   -890.49535    1783.2337   -5843.9453    2.1416145     45.62923   0.15600073 
   48700   -944.44927    44.840249   -899.60902    1606.0151   -5943.0771    2.1566489    44.216748   0.14298658 
   48800   -946.85594    47.017403   -899.83854    1683.9929     5746.887    2.1913168    49.524965   0.13694638 
   48900    -947.9111    46.904343   -901.00675    1679.9435    2083.9857    2.1830287    46.228349   0.12739524 
   49000   -937.54582    47.630595   -889.91522    1705.9552   -5695.0854     2.142982    47.991401   0.16142229 
   49100   -943.93017    47.123858   -896.80632    1687.8057    4121.1267    2.1759932    44.040546   0.12628589 
   49200   -947.16979     46.89868   -900.27111    1679.7406    996.64403    2.1771911    44.516804   0.14823712 
   49300   -946.58253    46.001388   -900.58114    1647.6029   -2253.4416    2.1678189    48.599064   0.14069697 
   49400   -941.44187    51.083838   -890.35803    1829.6378   -3353.4834    2.1527578    45.819579   0.15464491 
   49500   -944.18894    46.127076   -898.06186    1652.1046    6717.8744    2.1845024    51.147746    0.1453411 
   49600     -946.958     46.01738   -900.94062    1648.1757   -1564.7353    2.1671983    43.927104   0.12242981 
   49700   -941.47161    43.916985   -897.55462    1572.9471   -1697.6112    2.1578762    47.979347   0.14473899 
   49800   -939.89456    49.810007   -890.08456    1784.0138    1716.3759    2.1656619    46.861081   0.14029617 
   49900   -944.99822    45.078908   -899.91932     1614.563    8540.8298    2.1915561    47.183529   0.13687685 
   50000   -945.96875    45.537701   -900.43104    1630.9953   -6868.8035    2.1569668    46.921141   0.13572248 
   50100   -945.16703     48.74896   -896.41807     1746.011   -8460.5315    2.1482039    45.957598   0.13320123 
   50200   -946.97974    48.198208   -898.78153     1726.285    11093.419    2.2019068    48.873631   0.13688545 
   50300   -948.29024    44.215611   -904.07463    1583.6428    10578.767    2.2018576    45.101601   0.12819024 
   50400   -946.33466    45.681657   -900.65301    1636.1513    -14817.72    2.1379107    48.256099   0.13505258 
   50500   -945.67927    46.773407   -898.90586    1675.2538    -6633.037    2.1560428    50.977454   0.13713376 
   50600   -949.34699    46.579917   -902.76707    1668.3237    14989.453    2.2167332    48.300964   0.12928117 
   50700    -952.6678    45.305183   -907.36262    1622.6674    2806.5079    2.1952614    46.963366   0.10930348 
   50800   -944.28964    44.362131   -899.92751    1588.8906   -10872.563    2.1443709    46.656207   0.13865529 
   50900    -944.7918    46.336359   -898.45544    1659.6003   -2232.7289    2.1676737    45.528409   0.13385735 
   51000   -949.81534    47.033637   -902.78171    1684.5743    4178.8682    2.1931585    49.702834   0.13018747 
   51100   -950.16768    41.939271   -908.22841    1502.1126    1742.4917     2.190235    46.280708   0.12876449 
   51200    -946.4473    46.487871   -899.95943     1665.027   -7346.9091    2.1583868    50.579786   0.13331757 
   51300    -946.7493    47.616227   -899.13307    1705.4406   -983.28126    2.1714004     48.61288   0.12275427 
   51400   -950.11508    46.289355   -903.82573    1657.9168     2983.762    2.1928408     45.86841   0.12186168 
   51500    -948.1855    40.503189   -907.68231    1450.6773    2947.3304     2.191504    48.089237   0.12429833 
   51600   -945.78232    46.140185   -899.64214    1652.5741   -6320.0675    2.1597239    50.732591   0.12429788 
   51700   -943.06657    43.713019   -899.35355    1565.6418    769.39031    2.1707871    49.176297   0.12984748 
   51800   -946.01003    41.963721   -904.04631    1502.9883    8846.0912    2.1995568    47.055925   0.13529172 
   51900    -949.6801    41.656274   -908.02383    1491.9767    1886.9848    2.1894023    44.740577   0.13914709 
   52000   -942.60747    42.598402   -900.00907    1525.7203   -11262.068    2.1434279    45.649613   0.14983687 
   52100   -944.60771    45.108882   -899.49882    1615.6366    932.79584    2.1750713    49.687376   0.13746701 
   52200   -945.42598    44.193165   -901.23281    1582.8389    18479.695    2.2218578    47.006657   0.13448658 
   52300    -949.6384     39.03122   -910.60718    1397.9567   -6027.5119    2.1734966    45.734987   0.13177377 
   52400   -946.47655    43.815061   -902.66149    1569.2966    -16729.21    2.1362603    50.386318   0.13893543 
   52500   -947.35455    47.762088   -899.59246    1710.6648    8477.3528    2.1963004    45.760579   0.13004025 
   52600   -946.70217    47.658013   -899.04416    1706.9372    5892.4944    2.1908081    47.755271   0.14016151 
   52700   -947.41097    50.812058   -896.59891    1819.9036    -10110.48    2.1532048    52.997783   0.13476241 
   52800   -939.06521    51.826122   -887.23909    1856.2237   -5319.9848    2.1408561    46.672831   0.15966869 
   52900   -942.02169    44.653117   -897.36857    1599.3127    13232.994     2.197322    48.496431   0.15775297 
   53000   -945.98888    46.271399   -899.71748    1657.2737    1849.2585    2.1815598    47.636473   0.14377315 
   53100   -943.64397    41.806149   -901.83782    1497.3446    -7391.572    2.1531912    48.741425   0.13842094 
   53200    -952.6583    43.391122   -909.26718    1554.1126   -2462.1026    2.1853604    49.260351   0.11959958 
   53300   -950.47294     45.01781   -905.45513    1612.3747     9442.047    2.2065142     52.09183   0.12286251 
   53400   -944.81845    44.304309   -900.51414    1586.8197     3438.142    2.1781128    44.073825   0.14051321 
   53500    -944.5809    44.621736   -899.95916    1598.1888   -10159.657    2.1484448    46.884813   0.14186637 
   53600   -941.80729    46.868516   -894.93877    1678.6603    3721.0877     2.172177    45.813191   0.14836239 
   53700   -941.41447     52.61273   -888.80174    1884.3972    4615.8276    2.1724834    43.582912   0.14782334 
   53800   -947.73549    48.989156   -898.74633    1754.6139   -1070.7179     2.168349    47.168952   0.14305124 
   53900   -945.74267    45.676318   -900.06635      1635.96   -5250.3243    2.1594991    49.733921    0.1413437 
   54000   -943.62068    44.643518   -898.97717    1598.9689    1916.1391    2.1733823    55.072367   0.14412843 
   54100   -944.21516    55.222475   -888.99268    1977.8688   -28.116199    2.1675967    54.622678   0.13376922 
   54200   -946.18619      48.1431   -898.04309    1724.3113   -619.85786    2.1727597    51.726295   0.12868562 
   54300   -944.13837    43.373794   -900.76457     1553.492   -6329.0675    2.1551664    44.913303   0.14680808 
   54400   -944.79604    47.119508   -897.67653    1687.6499    2006.6599    2.1782127    51.482821   0.13828462 
   54500     -939.802    51.701335   -888.10067    1851.7543    10730.986    2.1843402    47.336085    0.1551446 
   54600   -943.71721    46.046363   -897.67085    1649.2137   -7866.0362    2.1500099     44.17852   0.15209695 
   54700     -942.358    41.554889   -900.80311    1488.3454   -16297.744    2.1289557    48.394378   0.13946777 
   54800   -940.86707    43.939952   -896.92712    1573.7697    18213.162    2.2092083    49.892595   0.14809248 
   54900   -948.71068    45.046612   -903.66407    1613.4063    11057.336    2.2068334    46.367538   0.12510923 
   55000   -948.95198    42.054523   -906.89746    1506.2405   -11756.072    2.1552262    51.662054   0.12542008 
   55100   -944.50691    44.133612    -900.3733    1580.7059   -3902.8151    2.1634524    46.680584   0.13099181 
   55200   -945.90661     47.61219   -898.29442     1705.296    8925.2305    2.1974654    45.570404   0.13022751 
   55300   -947.17448    43.469428   -903.70505    1556.9173    1374.9964    2.1824795    47.538622   0.12630691 
   55400    -949.7527    42.319762   -907.43294    1515.7404   -7351.2414     2.168307    48.503142   0.13243734 
   55500   -943.60828    43.836916   -899.77137    1570.0793     2089.048    2.1727432    46.108867   0.12544168 
   55600    -947.5571     48.56482   -898.99228    1739.4157    4508.9424    2.1851527    51.655224   0.13012168 
   55700   -951.71679    47.148977   -904.56782    1688.7054    -5959.644    2.1715286    48.544875   0.12042653 
   55800    -950.7771    43.824884   -906.95222    1569.6484   -4925.8268    2.1738327    51.117957   0.11373197 
   55900   -945.01089    45.860037   -899.15085    1642.5402    3404.6886    2.1787699    46.063402   0.11821812 
   56000   -948.01676    48.582892   -899.43387     1740.063    70.411122    2.1799333    47.274712   0.12013435 
   56100   -951.34073    46.414793   -904.92593    1662.4096   -8530.7506     2.165697    47.160002   0.12279148 
   56200   -951.30191    44.334998   -906.96691    1587.9188   -1722.8492    2.1819031    40.859955   0.13180668 
   56300   -946.83032    48.310226   -898.52009    1730.2971    6405.2347    2.1888456    42.517159   0.13470513 
   56400    -947.6676    47.849929   -899.81767    1713.8109   -6896.1751    2.1592358    51.336969   0.12774874 
   56500   -947.35775    45.009324   -902.34843    1612.0707   -9815.1363    2.1549715    44.870198   0.13129833 
   56600   -952.18176     43.71044   -908.47132    1565.5494    10952.086    2.2170253    48.925439   0.12613686 
   56700   -947.84917    49.277186   -898.57198    1764.9301    1963.0922    2.1818409    53.603729    0.1325887 
   56800   -946.56913    47.146127   -899.42301    1688.6033   -13158.635    2.1414323    45.710947   0.13534023 
   56900    -948.0533     47.92837   -900.12493    1716.6204    -2090.826    2.1697391    48.797395   0.11148626 
   57000    -952.6876    44.884125   -907.80347    1607.5866    12953.349    2.2184246    43.526736   0.11995151 
   57100   -947.71987    48.812614   -898.90725    1748.2908   -2738.0778    2.1635475    43.172808   0.11347021 
   57200   -942.23804    43.168502   -899.06954    1546.1392   -4068.3203    2.1567212    47.837539   0.14274673 
   57300   -945.14813    44.762372   -900.38575    1603.2258    2805.3887    2.1810288    46.643402   0.14447051 
   57400   -950.26051    42.694258   -907.56625    1529.1535    2835.9264    2.1909443    48.569571   0.13039763 
   57500   -947.69353    44.089151   -903.60438    1579.1135   -1801.7063    2.1772177    52.816866   0.14903107 
   57600   -944.75829    45.114849   -899.64344    1615.8503    331.54294    2.1731141    50.309879   0.14535396 
   57700    -942.8269    43.205285   -899.62161    1547.4566    578.33676    2.1730927    45.141461   0.15109987 
   57800   -948.50103    47.774488   -900.72654    1711.1089   -237.75591    2.1753682    51.188813   0.13342402 
   57900   -953.09014    43.254681   -909.83546    1549.2258    2569.6298     2.199252    46.264522   0.13261325 
   58000   -945.39062    43.301476   -902.08914    1550.9018   -4076.5048    2.1716507    46.556538   0.14184176 
   58100   -945.23594    45.887109   -899.34883    1643.5098   -2008.1651     2.170328     46.32816   0.14716426 
   58200   -944.63577    46.400285   -898.23548    1661.8899    4509.9064    2.1869199    50.436688   0.14955499 
   58300   -950.33347    42.379551   -907.95391    1517.8818    4145.6979    2.1990982    49.766293    0.1413951 
   58400   -946.71373     45.28349   -901.43024    1621.8904   -14693.912    2.1395041    53.765928   0.15707789 
   58500   -942.71174    43.555667   -899.15607     1560.006    1219.1592    2.1749985    50.137692    0.1618648 
   58600   -944.52917    46.651588   -897.87758    1670.8907      17169.1    2.2198883    48.878808   0.15439514 
   58700   -949.53341    45.537248   -903.99616    1630.9791   -8419.9052    2.1622194    46.815527   0.14364095 
   58800   -946.73179    40.188078   -906.54371    1439.3912   -10887.595    2.1564301    49.658041   0.15289255 
   58900   -946.42387     46.45665   -899.96722    1663.9087    7299.3257    2.1945454    50.430055   0.14992893 
   59000    -944.4039    46.200418   -898.20348    1654.7314    5025.2667    2.1874364    48.498652   0.16483484 
   59100   -948.12041    46.004921   -902.11549    1647.7294   -10053.524    2.1583956     50.44406   0.13358393 
   59200   -950.28494    43.432898   -906.85204    1555.6089    -2083.136    2.1821057    48.634637   0.12524756 
   59300   -943.45976    44.798193   -898.66157    1604.5088    8824.9318    2.1931738    47.210286   0.13847877 
   59400   -948.30646    49.277803   -899.02865    1764.9522   -1858.9344    2.1728511    49.663657   0.14792706 
   59500   -949.08861    44.795516    -904.2931    1604.4129   -9566.4261    2.1592513    44.805887   0.16581699 
   59600   -947.88874     41.90875   -905.97999    1501.0194    4830.2902    2.1973201    45.725165   0.14950883 
   59700   -942.55435     44.72276   -897.83159    1601.8071    7703.8309    2.1899636    46.757314   0.15264113 
   59800   -944.11537    44.015256   -900.10012    1576.4668   -4668.9459     2.159208    43.923273   0.14182814 
   59900   -947.81584    44.910834     -902.905    1608.5432   -3697.7469    2.1725388    49.029069   0.14934657 
   60000   -951.74482    41.705717    -910.0391    1493.7475    10067.092    2.2161482    43.097042    0.1286472 
   60100   -946.94662    46.737222    -900.2094    1673.9578   -4971.6217    2.1688551    49.522342   0.14232417 
   60200   -950.07915    50.146727   -899.93242    1796.0739    -8817.068     2.159876    52.488807   0.12950528 
   60300   -947.35123      49.2519   -898.09933    1764.0244    5100.7738    2.1873371    49.818682   0.13085594 
   60400   -941.81132    48.306164   -893.50516    1730.1516    4567.3962    2.1816442    47.410114   0.17080005 
   60500   -939.77071    49.077676   -890.69304    1757.7844   -6788.5672     2.144801    50.183013   0.16015359 
   60600   -946.24066    48.000281   -898.24038     1719.196    -2020.574    2.1734605    49.576637   0.14770007 
   60700    -947.9998    48.078447   -899.92135    1721.9956    4244.6474    2.1934046    50.576337   0.12974506 
   60800   -949.31642    46.554445   -902.76197    1667.4114   -1522.9572    2.1813931     46.52501   0.13787091 
   60900   -952.06382    40.552553   -911.51127    1452.4454   -6299.1195    2.1819579    47.385484    0.1211813 
   61000   -949.38348    43.740601   -905.64288    1566.6297     -130.981    2.1863316    45.486806   0.12342732 
   61100   -943.94914    43.172489   -900.77665     1546.282    8882.3594    2.1975832    51.270758   0.12787088 
   61200   -947.18738    48.355966   -898.83142    1731.9353   -3723.2824    2.1673643     49.74504   0.12093274 
   61300   -943.55339    46.766212   -896.78718    1674.9961   -7213.7048    2.1532258    49.613359   0.13615934 
   61400   -950.24656    43.075078   -907.17148    1542.7931    7602.8916    2.2074307    45.484509   0.14006465 
   61500   -947.70028    46.468645   -901.23163    1664.3383    3857.3382    2.1866455    43.235242   0.15760446 
   61600   -946.40326    47.660741   -898.74252    1707.0349   -9649.0072    2.1519515    49.528525   0.16190957 
   61700   -941.68786    44.592773   -897.09509    1597.1514    268.88291    2.1678911    49.970895   0.15272516 
   61800   -950.60277    43.793565   -906.80921    1568.5267    12723.762     2.221965    50.742971   0.12661052 
   61900   -942.71538    42.433867   -900.28151    1519.8272   -1949.1715    2.1668531    51.972579   0.14534241 
   62000    -942.3528    43.352901    -898.9999    1552.7437   -9020.4105    2.1475985    49.043764   0.12649572 
   62100   -945.00239    43.670745   -901.33164    1564.1277    6021.7869    2.1926781    48.888556    0.1553921 
   62200   -949.53611     42.29778   -907.23833    1514.9531    10578.309    2.2137803    49.634336   0.13334667 
   62300   -941.73213    43.476321   -898.25581    1557.1641   -4654.7384     2.155333    46.945403   0.15005844 
   62400   -945.79082    46.174242   -899.61658    1653.7939   -4834.0388    2.1653048    46.702635   0.16058552 
   62500   -949.33327     44.81111   -904.52216    1604.9715    4472.8629    2.1932218    43.059812   0.14527358 
   62600   -945.73432    48.837809   -896.89651    1749.1932    1712.0865    2.1802357    48.009191   0.16239779 
   62700   -941.83882    44.881979   -896.95684    1607.5097   -1255.5105    2.1647724    42.851921   0.14546496 
   62800   -946.83131    45.098244   -901.73306    1615.2556   -3254.2418    2.1681697    47.868051   0.14725122 
   62900    -947.4804    47.518042   -899.96236    1701.9239     3639.372    2.1849272    48.505765   0.12395642 
   63000   -942.98001    50.235999   -892.74401    1799.2713    -1390.685    2.1587168     48.33237   0.13108702 
   63100   -946.79429     45.75101   -901.04328    1638.6353   -3287.7737    2.1682595    48.576116   0.13003086 
   63200   -947.31606    46.968204   -900.34786    1682.2307    2006.6745    2.1819792    48.723242    0.1424353 
   63300   -940.22276    48.546194   -891.67657    1738.7486    4846.3534    2.1712365     45.67459   0.13494843 
   63400   -942.98601    43.769023   -899.21699    1567.6477   -686.71795    2.1672417    49.414779   0.15617115 
   63500   -950.07056    48.439875   -901.63069    1734.9407   -7426.1023    2.1613285    45.397364   0.14003331 
   63600    -944.4504    48.792002    -895.6584    1747.5526    5597.8715    2.1817249    47.603184   0.13268027 
   63700   -942.12462    44.865978   -897.25864    1606.9366    6623.5312    2.1816548    47.565763   0.14261979 
   63800   -945.53186    41.643118   -903.88874    1491.5055   -5685.9041    2.1606176    45.862298   0.12277662 
   63900   -944.46405    44.583915   -899.88014    1596.8342   -497.21036    2.1689557     46.92072   0.14177707 
   64000   -943.23522    47.876788   -895.35843    1714.7729    8610.1296    2.1883046    48.303486   0.13335608 
   64100   -949.44756    45.452145   -903.99541     1627.931   -3110.0667    2.1731639    49.317063   0.13000257 
   64200   -946.61257    43.631822   -902.98075    1562.7336    -14102.96    2.1442337    48.806463   0.13956587 
   64300   -943.28375     45.89133   -897.39242     1643.661    6385.6342    2.1838551    48.147622   0.14526602 
   64400   -946.51102    45.454695   -901.05633    1628.0223     10829.37    2.2044435    45.981362   0.15878359 
   64500   -948.68686    41.150699   -907.53616    1473.8688   -5894.7318    2.1679252    50.772405    0.1375017 
   64600   -946.11139    47.162192    -898.9492    1689.1787   -10934.896    2.1475431    44.314226   0.16317888 
   64700   -945.99519    48.034317   -897.96087     1720.415    7241.8824    2.1925352    49.229048    0.1329574 
   64800   -951.29574      46.1317   -905.16404    1652.2702    3935.1596     2.196586     47.72005   0.12694027 
   64900   -945.18282    47.952386   -897.23044    1717.4806   -7277.3067    2.1592998    47.994086   0.14262913 
   65000   -943.87596    46.481514   -897.39445    1664.7993   -67.021146    2.1725467    49.943978   0.13679831 
   65100   -944.90836    42.723566   -902.18479    1530.2032    5448.7641    2.1897275    53.895765   0.13521111 
   65200   -944.36751    43.650862   -900.71665    1563.4156    2452.7621    2.1795451    48.716528   0.14237292 
   65300   -946.25219     51.74394   -894.50825    1853.2803   -7705.4412    2.1534823    49.931233   0.15080924 
   65400   -947.12124    45.904647   -901.21659     1644.138    555.42012    2.1793257    46.381338   0.13970273 
   65500   -944.35126    43.680972   -900.67029     1564.494    5180.5696    2.1926584    46.395205    0.1502846 
   65600   -937.95272    45.731072   -892.22165    1637.9211   -1373.7069    2.1564594    49.827401   0.16272181 
   65700   -950.31257    48.967449   -901.34512    1753.8364    -4914.052    2.1696988    50.427169   0.12606437 
   65800    -950.3833     49.52518   -900.85812    1773.8124     961.5256    2.1854578    48.245252   0.13602425 
   65900   -944.07523    49.834232     -894.241    1784.8815    1295.1708    2.1764009    49.388133   0.13856887 
   66000    -945.1444    45.856955   -899.28744    1642.4298   -6802.4967    2.1517226    46.013074    0.1318563 
   66100   -950.32596     47.05012   -903.27584    1685.1647   -5036.8224    2.1696693    46.893442   0.13147345 
   66200   -944.17027    48.534455   -895.63582    1738.3282    14581.138    2.2074928    48.531403   0.14324749 
   66300   -945.11059    44.463578   -900.64701    1592.5241    179.06212    2.1749387    46.408608   0.14374959 
   66400   -950.95023    44.331863   -906.61836    1587.8066    -16282.31    2.1457696    46.479686   0.14185284 
   66500   -943.69045    44.799953    -898.8905    1604.5719    3288.3773    2.1759966    48.727635   0.15043602 
   66600   -948.27948    50.464604   -897.81488    1807.4591    10006.488    2.2005755    47.074097   0.13544618 
   66700    -952.7986    46.607427   -906.19117     1669.309   -4488.4343    2.1771485    44.875964   0.14676618 
   66800   -940.81793    41.723097   -899.09483      1494.37   -4346.5287    2.1545547    50.609345   0.14104652 
   66900   -944.42171    47.275103   -897.14661    1693.2227    4251.3566    2.1799818    52.174746   0.15693636 
   67000   -947.53344    44.586322   -902.94711    1596.9204    5616.2769    2.1887497    49.198469   0.12835481 
   67100   -944.29322    44.706612   -899.58661    1601.2287   -3206.5737    2.1678771    48.847252   0.13445422 
   67200   -943.79359    48.266724   -895.52686     1728.739   -4286.6467     2.158842    48.213803   0.14726007 
   67300   -945.65607    44.019835   -901.63623    1576.6308    1265.1626    2.1815668    45.899315   0.14372865 
   67400    -949.2397    47.987398    -901.2523    1718.7346   -32.017522    2.1836044    45.874142   0.13939762 
   67500    -944.5005    51.350235   -893.15027    1839.1792   -8822.1652    2.1505885      45.4566   0.13668876 
   67600   -944.62022    42.836265   -901.78395    1534.2397    1350.7575    2.1770692    46.749366   0.13860784 
   67700   -948.73328    48.348191   -900.38509    1731.6569    2958.7173     2.188058    50.090457   0.12132251 
   67800   -938.98948    45.310925   -893.67856     1622.873   -598.48916    2.1593486    51.336263   0.15718224 
   67900   -946.57171    44.889405    -901.6823    1607.7757   -5708.7007    2.1617192    50.445911   0.14115349 
   68000   -950.55834    48.884747    -901.6736    1750.8744    1449.9051    2.1841343    50.441407   0.12256883 
   68100   -942.51156    47.069785   -895.44177     1685.869    10691.664    2.1938918    44.635341   0.12705261 
   68200   -948.76929     47.72033   -901.04896    1709.1692   -7890.4579    2.1589825    46.151141   0.12992453 
   68300     -948.473    43.577618   -904.89538    1560.7923   -9606.5867    2.1583243    52.535281   0.12247526 
   68400   -945.57903    48.526389   -897.05264    1738.0393    6323.3978    2.1896366    53.166057   0.14542381 
   68500   -945.91876    46.362527   -899.55624    1660.5376    6932.2743    2.1914126    45.130619   0.12927581 
   68600   -948.66769    41.827752   -906.83993    1498.1184   -6357.6141    2.1644537     48.14914    0.1164078 
   68700   -943.05332    44.764527   -898.28879     1603.303   -3847.7748    2.1554897    48.057479   0.14693021 
   68800   -941.75046    45.770935   -895.97953    1639.3489    10901.776    2.1934566    51.877721    0.1652843 
   68900   -945.11022    42.103901   -903.00632    1508.0091    1595.0531    2.1797907    59.149951   0.16615513 
   69000   -941.93831    45.576272   -896.36204    1632.3768   -6481.3089    2.1490244    54.363249     0.148365 
   69100   -941.34728    47.151575   -894.19571    1688.7984      1459.48    2.1654922    63.381609   0.14106133 
   69200   -947.66058    47.739791   -899.92079    1709.8662    3262.8009    2.1870277    54.452178   0.15365294 
   69300   -948.66859     47.16694   -901.50165    1689.3487   -4826.8616    2.1685674    67.621064   0.15544106 
   69400   -941.54473    49.855243   -891.68949     1785.634   -11215.669    2.1424761    89.195752   0.18635581 
   69500   -947.47184    48.298243    -899.1736    1729.8679    135.78126    2.1803941    64.975224    0.1717508 
   69600   -946.85803    48.281486   -898.57654    1729.2677    4239.9276    2.1867934    48.362656   0.14280473 
   69700   -935.89773    44.641251   -891.25647    1598.8877   -2200.8192    2.1479633    56.415445   0.16341914 
   69800   -942.62954    42.260484   -900.36906    1513.6173    2171.3543    2.1725149    61.155328   0.16144766 
   69900   -945.87892    46.251709   -899.62721    1656.5685    1011.6114    2.1766165    81.662433   0.15968964 
   70000   -940.78007    46.602606   -894.17746    1669.1363    793.79627    2.1620192    64.435916   0.15850881 
   70100   -944.65901    48.137622   -896.52138     1724.115   -6550.8204    2.1574169     99.74885   0.14856312 
   70200   -945.62267    43.774857   -901.84781    1567.8566    3523.1591    2.1842132    109.10112   0.13350407 
   70300   -943.96377    45.924649   -898.03912    1644.8544    6511.4484    2.1862918    119.95936   0.14435819 
   70400   -941.67649    44.745185    -896.9313    1602.6103   -743.49299    2.1624319    116.96998   0.14779635 
   70500   -951.66454    45.097453   -906.56708    1615.2272   -740.20838    2.1865737    114.62203   0.13782156 
   70600   -944.76054    44.108038    -900.6525    1579.7899    1972.5583    2.1802833    120.99405    0.1451698 
   70700   -946.22701    48.287898   -897.93911    1729.4974   -560.33798    2.1713131    116.67159   0.12154626 
   70800   -951.59314    47.111404   -904.48173    1687.3596   -5546.4094    2.1728508      119.791   0.13289261 
   70900   -948.55589    43.995568   -904.56032    1575.7617   -593.68283    2.1817535     113.3121    0.1337102 
[...]
   86800   -951.73365     44.96385    -906.7698     1610.442    1402.5675    2.1921178     109.9583   0.13540793 
   86900   -942.10507    45.568149   -896.53692    1632.0858   -6652.2861    2.1485393    102.93912    0.1367614 
   87000   -945.61091    46.253444   -899.35747    1656.6306    456.15162    2.1785182    106.30516    0.1278954 
   87100   -948.59637    45.900713   -902.69566    1643.9971    5874.0164    2.1966458    103.14105   0.14292045 
   87200   -945.02679     51.57656   -893.45023    1847.2853   -4057.2666    2.1600149    101.95469   0.13326854 
   87300   -945.66906    49.038727   -896.63034    1756.3894   -3076.9694    2.1664666    110.24326    0.1237415 
   87400   -947.50981    46.115894   -901.39392    1651.7041   -1155.3648    2.1800431    115.21345   0.12393205 
   87500   -946.65033    47.461195   -899.18914    1699.8879    2625.5537    2.1853697    113.51963   0.13662619 
   87600   -939.75543    47.746893   -892.00854    1710.1205   -2525.1353    2.1537469    115.13505   0.14779861 
   87700   -945.04748    43.513308   -901.53418    1558.4889   -1740.1334    2.1727473    102.43587   0.14493151 
   87800   -947.21085     47.52942   -899.68143    1702.3315    7980.8752    2.1979604    99.220023    0.1353406 
   87900   -940.87541    47.203776   -893.67163    1690.6681    2553.8674    2.1707302    106.78993   0.14833365 
   88000   -942.86773    46.328392   -896.53934     1659.315    -16195.97    2.1277252    102.97833   0.16003758 
   88100   -944.78047    42.825043   -901.95543    1533.8377     1788.421    2.1801638    113.62801   0.13405352 
   88200   -945.48722    48.875062   -896.61215    1750.5275    15769.846    2.2153613    115.27806   0.15158351 
   88300   -944.75492    46.755941   -897.99898    1674.6282   -6033.6602    2.1600465     113.0411   0.12855943 
   88400     -947.481    41.065241   -906.41576     1470.808   -9939.2651    2.1597383    113.85827   0.14338902 
   88500   -947.07104    47.132387   -899.93866    1688.1112    3733.4531     2.189166    108.77213   0.13697805 
   88600   -945.00708    48.049813   -896.95727      1720.97    8702.9894    2.1933064    105.20355    0.1402056 
   88700   -946.08356    41.059272   -905.02429    1470.5942   -6264.3087    2.1629681    101.31831   0.15390965 
   88800   -947.54155    44.969713   -902.57184     1610.652   -7421.2768     2.161469    105.14333   0.15009821 
   88900   -947.17509    50.565905   -896.60918    1811.0873    7049.6428     2.195328    101.71007   0.14153701 
   89000   -948.35268    46.960797   -901.39189    1681.9654    2703.9927    2.1872937    105.55625   0.14541739 
   89100   -949.80096    43.315021   -906.48594     1551.387   -8830.6452    2.1625142    113.94318   0.14319482 
   89200   -941.79927    44.612934   -897.18634    1597.8735   -2295.3846    2.1672668    119.49629   0.17053256 
   89300   -946.92585    49.446172   -897.47968    1770.9826    11152.875    2.2039663    115.30802   0.14957356 
   89400   -948.13167    45.715131   -902.41654    1637.3502    -1684.665     2.177117     111.0639   0.13204316 
   89500   -941.31407    45.149185   -896.16489    1617.0801   -6315.3055    2.1521396    106.29397   0.15537895 
   89600   -941.73376    46.966681   -894.76708    1682.1762    3086.3646    2.1741032    110.17606   0.15042679 
   89700   -944.47792    43.900978   -900.57694    1572.3738    5906.9685    2.1873813    107.75763   0.16126146 
   89800   -947.51776    46.783147   -900.73462    1675.6027   -2579.2157     2.168946    111.95461   0.14620747 
   89900   -942.13511    50.308755   -891.82636    1801.8772   -4029.5294    2.1515519    114.47858   0.16980937 
   90000   -946.92856    46.231207   -900.69735    1655.8342    7379.2802    2.1946898    111.54239   0.14333599 
   90100   -947.96902    46.888243   -901.08078    1679.3668   -1129.4445    2.1786741    113.20782   0.14847716 
   90200   -940.68491    45.560488   -895.12442    1631.8115   -3157.8488     2.155856    109.23779   0.15229678 
   90300   -944.90565    46.848361   -898.05729    1677.9384    1310.3654    2.1747595     102.8462   0.12388551 
   90400   -948.81297    46.021606   -902.79136     1648.327    4447.0366    2.1940942     105.8149   0.15145488 
   90500   -942.72954    44.050494   -898.67904    1577.7289    1901.7837    2.1764153    104.40838   0.15151857 
   90600   -943.42896    47.208222   -896.22074    1690.8273   -2881.4822     2.163367    109.34717   0.14698177 
   90700   -949.53433      43.3186   -906.21573    1551.5151    3366.2326    2.1912043    113.36986   0.14985814 
   90800   -943.76932    43.324445   -900.44488    1551.7245   -60.728047    2.1752557    103.71664   0.17127849 
   90900   -944.57397    46.973657   -897.60031    1682.4261   -995.25749    2.1728772    111.76079   0.15327121 
   91000   -950.98684    46.107299   -904.87954    1651.3962   -345.35663    2.1834475    114.67934   0.12642464 
   91100   -949.19823    46.958291   -902.23994    1681.8757    382.34952    2.1807021    105.92457   0.12195888 
   91200   -942.25844     45.05516   -897.20328    1613.7124    616.53444     2.172432    104.56384    0.1294467 
   91300   -947.44489    44.906213   -902.53868    1608.3777   -2542.5996    2.1763342    100.16092   0.15574139 
   91400   -944.68885    39.997472   -904.69138    1432.5644    5220.3794    2.1858064    110.61392   0.14603199 
   91500   -943.76518    48.232868   -895.53231    1727.5264   -2661.0161    2.1636622    101.26619   0.15624732 
   91600   -945.21764    44.926702   -900.29093    1609.1115    186.93726    2.1740529    113.76666   0.14171127 
   91700   -949.98412    47.092804   -902.89132    1686.6935   -50.736888    2.1867646    112.88953   0.14577472 
   91800   -943.67754    50.868497   -892.80904    1821.9251    -3997.024      2.15836    114.23693   0.14240402 
   91900   -947.76363    48.965226    -898.7984    1753.7568   -481.77679    2.1747647    110.47712   0.13448991 
   92000   -948.88403    47.058106   -901.82592    1685.4507    2215.3822    2.1855077    110.33512   0.11905757 
   92100    -946.6011    51.472249   -895.12885    1843.5493   -2202.4662    2.1695526    108.94247    0.1258648 
   92200   -943.93166    47.942696   -895.98896    1717.1335   -3876.4507      2.16068    101.77604   0.14628791 
   92300   -948.65386    46.459494   -902.19436    1664.0106     632.9932     2.180909    109.02975   0.13343791 
   92400   -948.44545     51.25973   -897.18572    1835.9376    3711.8028    2.1885494    106.85601   0.13092363 
   92500   -944.12365    48.459959   -895.66369      1735.66   -3678.5866    2.1636072    111.26998    0.1589253 
   92600   -949.50577    44.599598   -904.90617    1597.3959   -3559.5264    2.1747436    111.67214   0.14872491 
   92700   -943.60844    44.017114   -899.59132    1576.5334    5478.6646    2.1878428    111.83683   0.14251036 
   92800   -943.33299    47.022055   -896.31093    1684.1595    3797.6976    2.1775707    110.28703   0.14022589 
   92900   -949.74355    44.799677   -904.94387     1604.562   -6289.2698    2.1656168    103.93293   0.12539235 
   93000   -945.78655    43.323322   -902.46323    1551.6843   -5262.4782    2.1661664    102.86459   0.12983171 
   93100   -943.88725    47.693254     -896.194    1708.1994    8685.1639    2.1950054     108.7659   0.14305351 
   93200    -948.2693    46.271321   -901.99798    1657.2709   -444.96008    2.1835519    111.43762   0.14233029 
   93300    -944.8859    39.658154   -905.22775    1420.4113   -9963.6872    2.1478397    126.91298   0.15661054 
   93400   -945.82658    48.176835   -897.64974    1725.5195   -1014.3699    2.1734215    112.24976   0.16103377 
   93500   -946.59822    47.604846   -898.99338     1705.033    11217.308    2.2053433    112.10957   0.15475578 
   93600   -950.52689    45.763097    -904.7638    1639.0682    -4681.292    2.1717314    106.14688   0.14009866 
   93700   -942.14046    46.694555    -895.4459    1672.4296   -8233.4482    2.1479992    112.80249   0.15760435 
   93800    -943.6297    46.194477   -897.43523    1654.5186    5875.0946    2.1872936    108.00785   0.14508853 
   93900   -945.33044     43.25174    -902.0787    1549.1205    4178.3559    2.1860393    108.33939   0.14518401 
   94000   -947.66394    51.800472   -895.86347    1855.3051   -5794.6504    2.1601802     104.3059   0.13878661 
   94100   -941.94775    46.789118   -895.15864    1675.8165   -1396.6006    2.1634661    106.08705   0.15471727 
   94200   -944.43507    42.107551   -902.32752    1508.1398    3627.4709    2.1853039    114.02995   0.15216013 
   94300   -945.17501    47.112756   -898.06226    1687.4081    1758.7293    2.1787689     119.3747   0.16236833 
   94400    -944.6104    49.843001   -894.76739    1785.1956    -3222.115     2.161135    116.07513   0.15101006 
   94500   -947.46103    43.078546   -904.38248    1542.9173    2756.7908     2.186841    107.03911   0.14063556 
   94600   -946.27497    46.724501   -899.55047    1673.5022    243.62362    2.1771785    104.84664   0.15539587 
   94700   -940.17631    43.559025   -896.61728    1560.1263    465.80292    2.1691769    102.67131   0.16311476 
   94800    -951.0393    45.146274   -905.89302    1616.9758   -972.64312    2.1873287    108.71325   0.13337036 
   94900   -945.26216    44.960642   -900.30152    1610.3271   -994.37594    2.1770051    110.80022   0.14840738 
   95000   -943.86011    46.702948   -897.15717    1672.7302   -620.18706    2.1751543    122.53644   0.15630991 
   95100   -950.80656    45.960531   -904.84603    1646.1395    1247.5769     2.188952    115.10206   0.15058345 
   95200   -949.54545    48.075206   -901.47025    1721.8795   -3188.4426    2.1770426    109.23672   0.15055976 
   95300   -945.06154    48.084207   -896.97734    1722.2019   -1138.6687    2.1726022    107.22671    0.1484523 
   95400   -944.36179    41.596117   -902.76568    1489.8221    2497.0191    2.1826417    106.26846   0.14587032 
   95500   -946.58878    43.288403   -903.30037    1550.4336     1615.933    2.1845793    101.09854   0.14754784 
   95600    -946.3949    50.689586   -895.70532    1815.5172   -3500.9502    2.1667781    106.05053   0.15384684 
   95700   -944.43158    43.395824   -901.03576    1554.2811    115.99262    2.1730845    104.20852   0.13834856 
   95800   -944.74616    42.048825   -902.69733    1506.0364     4278.311    2.1864463    108.82281   0.14353454 
   95900   -942.35435    49.319475   -893.03488    1766.4447   -1984.3482    2.1582896    112.67742     0.144367 
   96000   -948.62578    48.536001   -900.08977    1738.3835   -2816.2528     2.173533    108.40257   0.14563192 
   96100   -951.12144     49.45889   -901.66255    1771.4381   -2492.7009    2.1764571    111.86013   0.14159331 
   96200   -937.45811    44.684358   -892.77375    1600.4317    3187.2866    2.1653083    108.93464   0.15155105 
   96300   -946.00667    46.608919   -899.39775    1669.3625    1780.4449    2.1768282    105.17487   0.13331114 
   96400   -947.05517    45.074992   -901.98017    1614.4227    -2889.758    2.1698073    104.24025   0.13155567 
   96500   -944.08385    48.561047    -895.5228    1739.2806    -669.4363      2.16701    111.26467   0.14680703 
   96600   -944.72412    46.706617    -898.0175    1672.8616    5417.4305    2.1851392    110.57902   0.13942757 
   96700    -948.7824    45.419934   -903.36246    1626.7773   -1841.9222    2.1806917    109.76444   0.14400848 
   96800   -944.77057    46.199903   -898.57067     1654.713   -3865.2307    2.1680713    111.61815   0.12834019 
   96900   -945.91597    49.654155   -896.26181    1778.4318     609.6229    2.1743931    109.39234   0.12409813 
   97000   -951.50968    45.642818   -905.86686    1634.7602    5511.9061    2.2038329    109.99928   0.12596229 
   97100   -944.80576    45.205029   -899.60073    1619.0802   -3547.5486     2.165456    111.52119   0.14975551 
   97200   -944.27252    46.051715    -898.2208    1649.4054   -5922.1417     2.158262    106.14597   0.14161355 
   97300   -948.63595    43.398384   -905.23757    1554.3727    6571.7594    2.2015186    104.15313    0.1426519 
   97400   -950.61509    47.808075   -902.80701    1712.3119     5469.867    2.1992477    110.00899   0.12810895 
   97500   -944.59782    46.600019    -897.9978    1669.0437   -8801.4943    2.1520503    112.57342   0.13832012 
   97600   -948.02484    46.633827   -901.39101    1670.2546   -9423.4862     2.160839    117.69429   0.15917933 
   97700   -949.90971    45.628474   -904.28124    1634.2465    10711.466    2.2118913    111.48803   0.13950391 
   97800   -944.08028     49.84974   -894.23054    1785.4369   -489.09491    2.1707209    113.29684   0.12780436 
   97900   -944.84102    45.689197   -899.15182    1636.4213   -9761.1132    2.1506727    111.86403   0.13781675 
   98000   -946.78216     44.86139   -901.92077    1606.7723    782.05673    2.1783922    114.37691   0.13101551 
   98100   -948.89923    48.905049   -899.99418    1751.6015    9032.6731    2.2034741       104.97    0.1406175 
   98200   -942.12385    48.342317   -893.78154    1731.4465   -5054.2149    2.1510365    108.38356   0.14980547 
   98300   -946.67129    45.399332   -901.27196    1626.0394   -8643.7448    2.1569441    113.43488   0.13300999 
   98400   -947.12925    47.005212   -900.12403    1683.5562    3933.2228    2.1854964    105.22407    0.1270226 
   98500   -943.96738    52.332727   -891.63465    1874.3685    2322.3763    2.1717871    118.33858   0.14222023 
   98600   -946.06658    46.413607   -899.65297    1662.3671    -3470.221    2.1674856    114.10715   0.12723777 
   98700    -944.1466    42.705287   -901.44131    1529.5485   -2027.9409    2.1690863    109.71658   0.12686255 
   98800   -942.77582    46.560398   -896.21542    1667.6246     4116.757    2.1748113     105.1103   0.13574308 
   98900   -944.19144    50.696795   -893.49464    1815.7753    921.51209    2.1678763    109.84795   0.12701508 
   99000   -949.04006    46.016665   -903.02339      1648.15   -42.783339     2.180829    107.26141   0.12465937 
   99100   -943.59213    43.672274   -899.91986    1564.1825    676.73316    2.1711384    111.73108   0.13921917 
   99200   -942.94296    46.471628   -896.47134    1664.4452   -763.34919    2.1641682    109.52503   0.13898223 
   99300   -947.50341     43.45876   -904.04465    1556.5352    224.99624    2.1791472     104.8075   0.12667873 
   99400   -947.28173    43.458541   -903.82319    1556.5273    822.16219    2.1780975     114.7716    0.1381751 
   99500   -945.43554    46.884545   -898.55099    1679.2344    2221.9464    2.1771889    108.00595   0.12793122 
   99600   -943.53557    44.773306   -898.76227    1603.6175   -45.409058    2.1702053     108.8923    0.1417519 
   99700   -946.63874    38.827639    -907.8111    1390.6652    3208.9539    2.1880855    106.52565   0.13506968 
   99800   -945.22905     45.09867   -900.13038    1615.2708    291.53936    2.1731186    104.69783   0.13653529 
   99900   -948.02054    49.422873   -898.59766    1770.1481   -2007.5065    2.1743275     105.7414   0.14142351 
  100000   -946.79185     42.19411   -904.59774      1511.24    1417.4335    2.1854212    113.29969   0.15059763 
  100100   -949.01608    43.986174   -905.02991    1575.4252   -971.36291    2.1817253    116.11086   0.14334796 
  100200   -946.53623    48.362194   -898.17403    1732.1584    -3061.617    2.1707859    106.78578   0.15737411 
  100300   -945.75665    45.269837   -900.48682    1621.4014   -1847.8263    2.1726625    100.59784   0.15030246 
  100400   -948.64612    43.734563   -904.91155    1566.4135    1596.6451    2.1846794    110.87487   0.13202024 
  100500   -953.51186    43.756476   -909.75538    1567.1983    2211.4909    2.1976002    111.51731   0.13720491 
  100600   -944.64691    45.091616   -899.55529    1615.0182   -8503.2066    2.1538639    110.23168    0.1429299 
  100700   -945.36698    45.297119   -900.06986    1622.3785   -4313.9631    2.1642782    106.86419   0.14302777 
  100800   -944.87904    46.418137    -898.4609    1662.5293    9968.8602    2.1954702    102.86468   0.13837426 
  100900   -944.56013    44.737518   -899.82261    1602.3356    -12.00239      2.17138    108.32083   0.16491044 
  101000   -949.64339     41.69881   -907.94458    1493.5002   -5120.2456    2.1688301    109.37582   0.13085856 
  101100   -949.06534    46.373085   -902.69225    1660.9157    933.77319    2.1873272    104.92346   0.15673116 
  101200   -946.08598    47.640327   -898.44565    1706.3037    5364.5626    2.1862436    114.38595    0.1423105 
  101300   -944.20105    44.723336   -899.47772    1601.8277   -4961.7137    2.1561978    108.47814   0.13500577 
  101400   -950.82334     42.31587   -908.50748     1515.601   -2899.2347    2.1794843    109.36713   0.14069025 
  101500   -947.00606    46.663319   -900.34274    1671.3109    7646.6388    2.1987582    107.21768   0.11878591 
  101600   -942.70612    44.669094   -898.03702    1599.8849    3635.8093    2.1798012    104.34163   0.15225727 
  101700   -943.52487    41.146444   -902.37843    1473.7164   -11397.214    2.1431459    117.38074   0.13767908 
  101800   -953.39848    47.501702   -905.89678    1701.3387    -2108.489    2.1867272    109.26286   0.13211902 
  101900   -942.77075    46.724494   -896.04625    1673.5019    14612.479    2.2063391    99.109291   0.14679615 
  102000   -944.44123    45.409023   -899.03221    1626.3865   -3701.9883    2.1632142     114.5738   0.14391797 
  102100   -949.31403    46.214426    -903.0996    1655.2331   -11778.234    2.1519545    103.57808   0.15291784 
  102200   -946.34557    42.842668    -903.5029     1534.469    8262.1054    2.1983467    105.83172   0.13571293 
  102300   -942.15342    46.994739   -895.15868    1683.1811    2154.2494    2.1749472    106.24505   0.14119218 
  102400   -944.17059    44.047276   -900.12332    1577.6137   -3344.7424    2.1624841    109.76598   0.13397564 
  102500   -946.65251    44.515981   -902.13653     1594.401   -1961.2802    2.1756294    113.03628   0.13505296 
  102600   -942.89066     50.10537   -892.78529    1794.5926    3495.0872    2.1782075    114.29588   0.13848805 
  102700   -942.97795    46.764136   -896.21381    1674.9218    2280.0777     2.176745    108.29965   0.14024028 
  102800   -947.17059    45.311085   -901.85951    1622.8788   -6391.2687    2.1631044    109.06199   0.12050104 
  102900   -944.76087    46.909582   -897.85128    1680.1311     473.8113     2.174894    105.07359   0.14308618 
  103000   -941.27994    49.566328   -891.71361    1775.2861     4813.826    2.1746955    102.16602   0.14824407 
  103100   -945.79637     44.42324   -901.37313    1591.0794    2396.2485    2.1856301    110.35849   0.15533725 
  103200   -943.50486    43.122824   -900.38204    1544.5032   -4513.7931    2.1600732    112.08578   0.14897741 
Loop time of 70.7399 on 1 procs for 100000 steps with 217 atoms

Performance: 366.413 ns/day, 0.065 hours/ns, 1413.629 timesteps/s
100.0% CPU use with 1 MPI tasks x no OpenMP threads

MPI task timing breakdown:
Section |  min time  |  avg time  |  max time  |%varavg| %total
---------------------------------------------------------------
Pair    | 68.183     | 68.183     | 68.183     |   0.0 | 96.39
Neigh   | 1.016      | 1.016      | 1.016      |   0.0 |  1.44
Comm    | 0.44763    | 0.44763    | 0.44763    |   0.0 |  0.63
Output  | 0.034077   | 0.034077   | 0.034077   |   0.0 |  0.05
Modify  | 0.90525    | 0.90525    | 0.90525    |   0.0 |  1.28
Other   |            | 0.154      |            |       |  0.22

Nlocal:    217 ave 217 max 217 min
Histogram: 1 0 0 0 0 0 0 0 0 0
Nghost:    957 ave 957 max 957 min
Histogram: 1 0 0 0 0 0 0 0 0 0
Neighs:    4138 ave 4138 max 4138 min
Histogram: 1 0 0 0 0 0 0 0 0 0
FullNghs:  8276 ave 8276 max 8276 min
Histogram: 1 0 0 0 0 0 0 0 0 0

Total # of neighbors = 8276
Ave neighs/atom = 38.1382
Neighbor list builds = 1720
Dangerous builds = 21
Total wall time: 0:01:13
