LAMMPS (3 Mar 2020)
Reading data file ...
  orthogonal box = (0 0 0) to (17.469 17.469 17.469)
  1 by 1 by 1 MPI processor grid
  reading atoms ...
  217 atoms
  read_data CPU = 0.0010015 secs
Reading potential file library.meam with DATE: 2012-06-29
Reading potential file LiSi.meam with DATE: 2020-11-07
1 atoms in group Li
216 atoms in group Si
Neighbor list info ...
  update every 1 steps, delay 10 steps, check yes
  max neighbors/atom: 2000, page size: 100000
  master list distance cutoff = 6
  ghost atom cutoff = 6
  binsize = 3, bins = 6 6 6
  2 neighbor lists, perpetual/occasional/extra = 2 0 0
  (1) pair meam/c, perpetual
      attributes: full, newton on
      pair build: full/bin/atomonly
      stencil: full/bin/3d
      bin: standard
  (2) pair meam/c, perpetual, half/full from (1)
      attributes: half, newton on
      pair build: halffull/newton
      stencil: none
      bin: none
Setting up Verlet run ...
  Unit style    : metal
  Current step  : 0
  Time step     : 0.003
Per MPI rank memory allocation (min/avg/max) = 8.895 | 8.895 | 8.895 Mbytes
Step Temp E_pair E_mol TotEng Press Volume 
       0         1425   -951.04357            0   -911.25729   -116259.55    5330.9442 
    3200    1401.6397     -952.465            0   -913.33095    5329.6089    4572.0264 
Loop time of 2.34054 on 1 procs for 3200 steps with 217 atoms

Performance: 354.380 ns/day, 0.068 hours/ns, 1367.208 timesteps/s
100.0% CPU use with 1 MPI tasks x no OpenMP threads

MPI task timing breakdown:
Section |  min time  |  avg time  |  max time  |%varavg| %total
---------------------------------------------------------------
Pair    | 2.2657     | 2.2657     | 2.2657     |   0.0 | 96.80
Neigh   | 0.025634   | 0.025634   | 0.025634   |   0.0 |  1.10
Comm    | 0.014496   | 0.014496   | 0.014496   |   0.0 |  0.62
Output  | 2.9961e-05 | 2.9961e-05 | 2.9961e-05 |   0.0 |  0.00
Modify  | 0.029629   | 0.029629   | 0.029629   |   0.0 |  1.27
Other   |            | 0.005016   |            |       |  0.21

Nlocal:    217 ave 217 max 217 min
Histogram: 1 0 0 0 0 0 0 0 0 0
Nghost:    953 ave 953 max 953 min
Histogram: 1 0 0 0 0 0 0 0 0 0
Neighs:    4206 ave 4206 max 4206 min
Histogram: 1 0 0 0 0 0 0 0 0 0
FullNghs:  8412 ave 8412 max 8412 min
Histogram: 1 0 0 0 0 0 0 0 0 0

Total # of neighbors = 8412
Ave neighs/atom = 38.765
Neighbor list builds = 43
Dangerous builds = 0
Setting up Verlet run ...
  Unit style    : metal
  Current step  : 3200
  Time step     : 0.003
Per MPI rank memory allocation (min/avg/max) = 9.666 | 9.666 | 9.666 Mbytes
Step PotEng KinEng TotEng Temp Press Density c_msdli[4] c_msdsi[4] 
    3200     -952.465    39.134049   -913.33095    1401.6397    5329.6089    2.2058727            0 4.7495572e-32 
    3300   -955.85517    35.413158   -920.44201    1268.3709   -7550.5745    2.1833924    1.7657977   0.10415412 
    3400   -949.70765    36.023194   -913.68446    1290.2202   -8476.0472    2.1626756     1.645338   0.12805288 
    3500    -954.5583    42.249401    -912.3089    1513.2203    3399.1156    2.2006613    2.2343781   0.12260497 
    3600   -952.13921    36.984183   -915.15503    1324.6393    16020.426    2.2295741    1.4843048   0.12112095 
    3700   -956.50983    38.443302   -918.06652    1376.8997    2704.2267    2.2060474    2.1035827   0.11056125 
    3800   -948.78335    40.517236   -908.26612    1451.1805   -13744.846    2.1441045    2.0694346   0.14149083 
    3900   -953.12146    39.989997   -913.13146    1432.2967   -6223.1157    2.1736809    1.9543543   0.12813842 
    4000   -955.22722      41.0358   -914.19142    1469.7535    11029.453    2.2217349    2.3613642   0.12366036 
    4100   -954.96913    40.512394   -914.45674     1451.007     10384.97    2.2227854    1.6674583  0.092683485 
    4200   -947.24195    40.952251    -906.2897    1466.7611   -8606.9346    2.1574073    1.5788326   0.10981389 
    4300   -952.63622    38.961661   -913.67456    1395.4654   -12378.147    2.1605591     2.210091   0.11109853 
    4400   -950.66092    36.105185   -914.55573    1293.1568    3305.1746    2.1966339    3.0925064   0.11623045 
    4500   -953.15922    41.697999   -911.46122    1493.4711    12478.747    2.2239429    1.3806817   0.12860307 
    4600   -949.68473    43.593304   -906.09143    1561.3541    2210.7164    2.1886116    1.7735067   0.13909306 
    4700   -953.62542    39.322245   -914.30318    1408.3802   -8788.1546    2.1698385    1.8673489   0.12780828 
    4800   -954.08847    39.761691   -914.32678    1424.1196   -6856.0283    2.1749158    1.6402291   0.12779653 
    4900   -955.58626     44.39829   -911.18797    1590.1857    4398.9477    2.2037654    2.2532439   0.11845616 
    5000   -950.89181    46.914539   -903.97727    1680.3087    6646.4348    2.2002271    1.9961892    0.1216943 
    5100   -951.61451    39.019141   -912.59537    1397.5241   -450.19138    2.1923722    1.4209076   0.11170999 
    5200   -952.65314    38.664102   -913.98904    1384.8079   -10924.103    2.1630995    2.2944385   0.12470686 
    5300    -953.5858    39.642938   -913.94286    1419.8663   -5739.2164    2.1783001    2.0800263   0.11045294 
    5400    -957.8668    37.823026   -920.04377    1354.6836    7150.8494    2.2233155    1.5965814    0.1017884 
    5500   -957.04701    38.635826   -918.41118    1383.7952    11612.651    2.2273079    2.3038154   0.11326374 
    5600   -954.79969    40.784417   -914.01527    1460.7499   -2882.5589    2.1872612    1.9298526   0.12314916 
    5700   -948.74448    35.433692   -913.31079    1269.1064   -8437.4775    2.1630016    2.1115559   0.13820175 
    5800   -951.67259    41.098001   -910.57459    1471.9814   -3446.0183    2.1805523    1.9911016    0.1465458 
    5900   -948.99164    46.161884   -902.82975    1653.3513    6232.9592    2.1975757    2.0522599   0.13198123 
    6000   -953.69485    42.685218   -911.00964    1528.8297    7209.4021    2.2118126    2.3700107   0.11002559 
    6100   -953.68816    40.118939   -913.56922    1436.9149   -4486.5002    2.1851748    2.2187731   0.11188108 
    6200   -952.72876    37.227985   -915.50078    1333.3714   -9267.1626    2.1707397    1.6497181    0.1213484 
    6300   -957.08633    36.130792   -920.95554    1294.0739   -2341.9003    2.1982639    1.8910232   0.12261897 
    6400   -956.12939    36.931375   -919.19802    1322.7479    10651.271    2.2290874    2.3416454    0.1175184 
    6500   -952.34586    38.095517   -914.25035    1364.4433    8425.8079    2.2173761    2.0288313   0.12597361 
    6600   -951.39579    37.823854   -913.57194    1354.7133   -4291.6075    2.1807369    1.7040302   0.11342281 
    6700   -953.12249    41.590205   -911.53228    1489.6103   -9923.1352    2.1661149    1.8634497   0.12382334 
    6800   -956.20009    36.289822   -919.91026    1299.7698    1309.5622    2.2064398     2.371625   0.13757244 
    6900   -954.37271    36.797497   -917.57521    1317.9529    8996.6676    2.2181485    2.3912258   0.12334945 
    7000   -954.32619    40.696918   -913.62927     1457.616    2416.5842     2.201771    1.1294191   0.11944837 
    7100   -952.08921    39.480435   -912.60878     1414.046   -4670.5137    2.1806194    1.8125944   0.12333651 
    7200   -953.97361    33.859644   -920.11397    1212.7296   -3290.7999    2.1889719    1.7001715   0.11256873 
    7300    -956.4065    40.287649   -916.11885    1442.9575   -37.312676    2.2017272    2.3750443   0.11754494 
    7400   -954.90508    42.971683    -911.9334    1539.0898    8946.7604    2.2156055     1.966385   0.12143733 
    7500   -952.82431    37.090704    -915.7336    1328.4545    4808.4721    2.2067461    2.2955385   0.11511462 
    7600   -958.83433    38.114597   -920.71973    1365.1266   -7343.0198    2.1886434     2.001999   0.12127793 
    7700   -955.87033    42.965426    -912.9049    1538.8658   -12350.978     2.168048    2.1548168   0.13435388 
    7800   -954.83265    41.397592   -913.43506    1482.7116    1649.8891    2.2009913    1.6751873   0.11608268 
    7900   -955.02217    38.026369    -916.9958    1361.9666    13854.565    2.2329484    1.4801252   0.12445135 
    8000   -954.04313    39.702496   -914.34063    1421.9994    5689.7486    2.2110959    1.2501254     0.123151 
    8100   -950.62171     39.83478   -910.78693    1426.7373   -7428.9671     2.168725    1.8378241   0.12721824 
    8200   -952.33065    37.835639   -914.49501    1355.1354   -8507.1451    2.1777737    1.6934865   0.12427579 
    8300   -954.72159    40.222231   -914.49936    1440.6144    1729.3469    2.2042973    2.6957488   0.10568069 
    8400   -948.10085    42.020667   -906.08019    1505.0279    2239.2058    2.1926195    1.1690212   0.12682451 
    8500   -953.64856    40.270139   -913.37842    1442.3303    876.71071    2.1990323    1.7674667   0.10790534 
    8600    -951.1616    36.080722   -915.08088    1292.2806   -277.67906    2.1929613    2.6003737   0.13460697 
    8700   -952.96877    43.528227   -909.44054    1559.0232   -2140.8527    2.1860879    1.7494337   0.12993827 
    8800   -951.85512    41.687883   -910.16723    1493.1088    1077.9128    2.1903858    2.4488523   0.12084129 
    8900   -955.09793    39.902723    -915.1952    1429.1708    1022.0416    2.2033829    2.1567253   0.12354515 
    9000   -953.00213    40.068245   -912.93388    1435.0992    1552.7474    2.2026359    2.5713669   0.12181582 
    9100   -949.20054    40.255375   -908.94516    1441.8016   -966.17152    2.1874449    2.3998625   0.13543566 
    9200   -952.56345    37.424317   -915.13913    1340.4033   -5446.2279    2.1835345    1.5421488    0.1336645 
    9300   -953.32639    37.301763   -916.02462    1336.0139   -2641.3368    2.1910187    1.7664112   0.13472768 
    9400   -954.09643    40.941788   -913.15464    1466.3864    7200.0612    2.2143408    1.1423295   0.11336971 
    9500   -954.82311    42.812696   -912.01041    1533.3955    7975.1744    2.2184225     2.515414   0.12794595 
    9600   -955.59808    37.118036   -918.48005    1329.4334   -6859.0669    2.1860395     1.801746    0.1273886 
    9700   -953.72123    35.631213   -918.09002    1276.1808   -13240.595    2.1653785    2.1815851     0.130531 
    9800   -953.37396     39.19655   -914.17741    1403.8783   -1033.7239    2.1952055    1.9391144   0.13681463 
    9900   -952.59471    41.248976   -911.34574    1477.3887    11622.346    2.2207287    1.3233841   0.10128469 
   10000   -954.91945    36.587138   -918.33232    1310.4186    5366.0148    2.2129959    2.0125381   0.11145343 
   10100   -955.19854    38.046773   -917.15176    1362.6974   -5004.1661    2.1861696    1.7640659   0.12536484 
   10200   -950.69726    38.082089   -912.61517    1363.9623   -1551.5823    2.1836488    1.6449053   0.13698683 
   10300   -951.68929    37.413533   -914.27575    1340.0171    3028.1453    2.2043057    1.3363424   0.13469172 
   10400   -956.03574    35.698988   -920.33675    1278.6083    5857.7876    2.2218789    1.3389774    0.1261973 
   10500    -954.7702    42.577748   -912.19245    1524.9805   -2991.4857    2.1917207    1.5886075   0.12223458 
   10600   -952.28622    38.892455   -913.39376    1392.9867   -4247.9128    2.1853511     2.024403   0.13086128 
   10700   -954.42963    37.154034   -917.27559    1330.7228   -1628.4314    2.1973985    2.7092284   0.12813972 
   10800   -955.67504    37.306831   -918.36821    1336.1954    4116.9153      2.21324    1.7536878   0.12554228 
   10900   -952.56891    41.565634   -911.00327    1488.7303    1277.1796    2.1982891    2.5605461    0.1291041 
   11000   -954.29667    40.524568    -913.7721    1451.4431   -6871.2596    2.1809563    1.3974207   0.12137414 
   11100   -952.19585    35.777102   -916.41874     1281.406   -5750.0027    2.1808316    1.3347679   0.12349775 
   11200   -958.47594    39.920797   -918.55514    1429.8182    2340.2766    2.2150276    1.5218569   0.12299852 
   11300   -954.38885    44.820495   -909.56836    1605.3076    7271.2141    2.2142008    1.5073809   0.12820105 
   11400     -951.926    39.854015   -912.07198    1427.4263   -644.26384     2.190923    1.1282906   0.14595803 
   11500   -952.14697    37.227791   -914.91918    1333.3645   -13226.204     2.164293    2.2311071   0.14813182 
   11600   -953.19914    40.342484   -912.85666    1444.9215    -7629.173     2.178153    1.2732127     0.141161 
   11700   -949.22779    42.952454   -906.27534    1538.4012    8632.0193    2.2064503     2.086817   0.14175394 
   11800   -953.94793    41.250322   -912.69761    1477.4369    9290.7012    2.2174006    1.9456631   0.12360618 
   11900   -956.58475    41.480298   -915.10445    1485.6739   -6233.0437    2.1864816    1.4925022   0.12612613 
   12000   -953.84706    43.958165    -909.8889    1574.4221   -11059.119    2.1683039     2.078589   0.12599367 
   12100   -949.50151    40.813546   -908.68797    1461.7932   -1210.1279     2.184042    1.3917882   0.13249877 
   12200   -952.51063    38.261294   -914.24934    1370.3808    5190.7732    2.2093326    2.4095313   0.13057443 
   12300   -952.77318    38.841164   -913.93202    1391.1496    3680.8101    2.2040555    1.5917122    0.1329613 
   12400   -951.75593    44.876662   -906.87927    1607.3193    -3947.608    2.1807026   0.93926281    0.1393496 
   12500   -952.81674    40.213359   -912.60338    1440.2967   -3992.7068    2.1862688    1.6191796   0.14471934 
   12600   -951.72725    37.082896   -914.64436    1328.1748   -641.85077    2.1914275    1.8051407   0.14434407 
   12700   -950.77668    38.186882    -912.5898    1367.7156    3328.8361    2.1989311    2.0356922   0.14009129 
   12800   -948.22581     42.01235   -906.21347      1504.73    3863.8131     2.192534    1.3513717   0.13770229 
   12900   -953.89019    42.432187   -911.45801    1519.7671   -2337.6007    2.1889978    1.7452061    0.1237678 
   13000   -953.42576     39.36374   -914.06202    1409.8664   -6224.4356    2.1782305    1.2382631   0.11766159 
   13100   -957.60579    43.772215   -913.83358     1567.762   -3755.1324    2.1924872    1.6133567   0.12115019 
   13200   -957.43631    43.483392   -913.95292    1557.4174    6011.3445    2.2184183    1.2192158   0.12579313 
   13300   -957.06574    35.490754   -921.57499    1271.1501     4960.452    2.2205875    1.8224656    0.1193566 
   13400   -955.71152    35.780654   -919.93087    1281.5333   -11057.835    2.1768392    1.4592725   0.12006663 
   13500   -956.31077    40.267791   -916.04298    1442.2462   -13996.653    2.1659551    1.4849498   0.13135844 
   13600   -953.13955    40.024098   -913.11545     1433.518    7941.8275    2.2154283    1.2382101   0.12788169 
   13700   -954.81527    43.133819   -911.68145     1544.897    18579.491    2.2426631    2.1949227   0.13690506 
   13800   -948.63318     41.89819   -906.73498    1500.6412    2670.1577     2.186525    2.1715574   0.13671139 
   13900   -950.77616    43.464437   -907.31172    1556.7385   -12465.839    2.1558244    1.8106834   0.14047921 
   14000   -952.02242    39.114026    -912.9084    1400.9226   -4241.5168    2.1824208    1.8267537   0.12949067 
   14100    -955.0234    40.728636   -914.29476     1458.752     5077.438    2.2087962    1.6434115   0.11585921 
   14200   -957.74402    41.817752   -915.92627    1497.7602    4480.5759     2.213192    1.7075462   0.10671066 
   14300   -949.20829    42.756977   -906.45131    1531.3999   -3230.1293    2.1750137     1.185871   0.11339354 
   14400   -951.97137     40.09183   -911.87954    1435.9439   -3377.7171    2.1825224    1.6791138   0.13598934 
   14500   -952.87388    38.104775    -914.7691    1364.7749    1224.0272    2.1990213    1.9454318   0.14031368 
   14600   -954.21181    40.541065   -913.67074    1452.0339    4857.1483    2.2069246    1.9143939   0.12641081 
   14700   -951.77625    45.128119   -906.64813    1616.3256   -3302.9118    2.1784955    1.8189061   0.12025919 
   14800   -953.41069    39.192083   -914.21861    1403.7183    -3487.811    2.1837859     2.378241   0.12339734 
   14900   -953.41497    38.789037   -914.62593    1389.2826   -631.07246    2.1924221    3.1415252   0.12818379 
   15000    -953.7354    44.949995   -908.78541    1609.9458    2669.6082    2.1971864    2.2427226    0.1224562 
   15100   -950.61649    40.269733   -910.34675    1442.3158    2626.5998    2.1928994    1.4018212   0.11933829 
   15200   -950.99712    35.843379   -915.15375    1283.7799   -2190.3617    2.1816041    1.9824841   0.10095896 
   15300   -956.15435    42.819524   -913.33483    1533.6401   -7222.5817    2.1794192    1.4144596   0.10908487 
   15400   -952.91389    45.353115   -907.56078    1624.3841    2135.7228    2.1977373    1.5813156   0.12774019 
   15500   -957.20921    43.302221   -913.90699    1550.9285    6329.5761    2.2193802    1.7480846   0.12853149 
   15600   -957.29535    41.981011   -915.31434    1503.6076   -7254.8378    2.1851918    2.0630781   0.12411317 
   15700   -949.56624    36.053895   -913.51235    1291.3198    -9496.933    2.1637539    1.0857451   0.12138037 
   15800    -951.9413    43.100102    -908.8412    1543.6893   -1213.1563     2.186166    1.7775952   0.13809825 
   15900   -954.84415    42.067592   -912.77656    1506.7086    10160.891    2.2194587     2.204395   0.12420169 
   16000   -955.76167    39.856337   -915.90533    1427.5094     2424.522    2.2081229    1.9934054   0.13000838 
   16100   -952.06157    37.975173    -914.0864     1360.133   -4868.1762    2.1813138    1.6395942   0.11727771 
   16200   -953.34172    41.316568   -912.02516    1479.8096    -5650.134    2.1788377    1.5475944   0.10903576 
   16300   -957.65283    37.947127    -919.7057    1359.1285    907.60209    2.2068735    1.9144485   0.10967157 
   16400   -954.23126    36.972314   -917.25895    1324.2142    3387.1256    2.2083899    1.8071169   0.11201992 
   16500   -952.22138    39.287679   -912.93371    1407.1422      2280.31    2.1978098    1.4848456   0.12482786 
   16600   -953.79806    40.019205   -913.77886    1433.3428   -2567.1431    2.1901962    1.6257324   0.11127108 
   16700   -958.30959    37.288349   -921.02124    1335.5334   -1059.2345    2.2058657    1.3500185   0.11196559 
   16800   -952.41112    38.618035   -913.79309     1383.158   -1323.7767    2.1918823    2.2660056   0.13751574 
   16900   -950.10033    37.476271   -912.62406    1342.2641    2895.4376    2.1963199    1.9969941   0.12658365 
   17000   -957.08556    38.996415   -918.08915    1396.7101    380.31322    2.2035291    1.8228911   0.12218229 
   17100   -956.65005    39.367338   -917.28271    1409.9953     244.1214     2.203212    1.2888216   0.11428756 
   17200   -952.90883    40.877318   -912.03151    1464.0773    171.82424    2.1945689    1.4598651   0.11478174 
   17300   -954.48813    39.793371   -914.69476    1425.2542   -1850.9997    2.1932422    1.5523971   0.13001291 
   17400    -955.1999    36.692335   -918.50757    1314.1864    352.98678    2.2001295    1.6222884   0.12332533 
   17500   -953.54991    40.476411    -913.0735    1449.7183    2810.5301    2.2019566    1.9011015   0.10826829 
   17600   -955.25993    43.705971   -911.55396    1565.3894     1578.779    2.2019299    1.6900222   0.10913935 
   17700   -953.28665    39.281899   -914.00475    1406.9352   -2825.3944    2.1891643    2.5071535   0.11993394 
   17800   -954.11022    37.849143   -916.26108    1355.6191   -4498.4033    2.1838209    2.1777173   0.12716233 
   17900   -955.78844    34.589013   -921.19943     1238.853    995.57654    2.2028731    1.8552061   0.11278978 
   18000   -956.29425    34.856288   -921.43797    1248.4258    11147.123    2.2330557     2.030102   0.11097881 
   18100   -957.17642    41.730825   -915.44559    1494.6468    9745.1085    2.2260433    1.6233991   0.10795271 
   18200   -951.41645    37.738543   -913.67791    1351.6577   -10849.985    2.1624275    1.1402914    0.1336843 
   18300   -949.94112     37.22604   -912.71508    1333.3017   -15140.143    2.1484807    2.0886158   0.13728938 
   18400   -957.45728    36.899353   -920.55793     1321.601    2626.3852    2.2100643     1.316446   0.10918305 
   18500   -956.28659    40.167314   -916.11928    1438.6475     11415.56    2.2292047    2.2107698   0.11209644 
   18600   -952.72993    40.014123   -912.71581    1433.1608    4138.0691    2.2025494    1.5924466    0.1176371 
   18700   -952.20056    37.902686   -914.29787    1357.5368   -5678.4764    2.1791123    2.1633203   0.13193094 
   18800   -956.08875    34.637848    -921.4509    1240.6021     -2669.53    2.1958952    2.5350349   0.10703694 
   18900   -954.27589       40.178   -914.09789    1439.0303   -213.37575    2.1969725    2.4445124   0.11440405 
   19000   -952.53136    39.805278   -912.72608    1425.6807     6419.397    2.2085481    2.5121434   0.11592407 
   19100   -955.84312    39.157873   -916.68524     1402.493    2435.0891    2.2053589    1.4304363   0.12461338 
   19200   -957.43804    35.932794   -921.50525    1286.9824   -4084.3826    2.1973129    1.6905788   0.12762936 
   19300   -953.92484    40.680927   -913.24391    1457.0433   -9106.5343    2.1751237    1.2199823   0.11601881 
   19400   -954.97153    41.397798   -913.57373     1482.719    296.21538    2.1974359    1.3098609   0.11623804 
   19500    -956.9983     41.71229   -915.28601     1493.983    7889.0585    2.2230111    1.7221213    0.1396715 
   19600   -958.86037    36.057061   -922.80331    1291.4332    4043.9981    2.2228957     1.798304   0.13720635 
   19700   -955.94725    38.695265   -917.25198    1385.9241   -11329.204    2.1753503    2.8647762   0.13497393 
   19800   -955.30485    40.601965   -914.70288    1454.2151   -9884.1682    2.1763369    1.8280156   0.12858247 
   19900   -955.15424     42.14364    -913.0106    1509.4324    4282.3871    2.2114225    2.0524564   0.13034844 
   20000   -955.21353    39.792486   -915.42105    1425.2225    9325.9667    2.2248062    1.5304903   0.12993103 
   20100   -957.05154    35.768132   -921.28341    1281.0848    2059.3531    2.2100119    1.3270902   0.11454295 
   20200   -950.19531    35.819608   -914.37571    1282.9285   -4263.3982    2.1815189    2.0971087   0.11749832 
   20300   -953.71405    40.492353    -913.2217    1450.2893   -4045.3861    2.1889557    2.0610126    0.1292462 
   20400   -954.74906    37.816604   -916.93246    1354.4536    2603.0958    2.2050421    1.9471196   0.13753067 
   20500   -957.88829    37.870802   -920.01749    1356.3948    3882.6081    2.2146415    1.2471077   0.12289929 
   20600    -953.1735    40.084499     -913.089    1435.6814   -732.92599    2.1937462     2.204873    0.1430509 
   20700   -955.10661    41.312776   -913.79384    1479.6738   -4671.9575    2.1863237    2.1270663   0.14718068 
   20800   -956.54623    37.430783   -919.11544    1340.6349    -2679.912    2.1977141    1.8732694   0.13802487 
   20900   -951.82246    33.912834   -917.90963    1214.6347    5865.9627    2.2116411    2.3362926    0.1443027 
   21000   -953.40283    40.685937   -912.71689    1457.2227    3928.3316    2.2067722    2.7824293   0.11968997 
   21100   -954.40092    40.290165   -914.11076    1443.0476   -2002.6289    2.1919466    2.2046884   0.12044185 
   21200   -954.98616    36.065248   -918.92091    1291.7264    -7240.519    2.1834826    1.3196986   0.11683196 
   21300   -957.89289    39.351733   -918.54116    1409.4364   -1566.1972    2.1994244    1.4647751   0.11474542 
   21400   -949.73014    36.954399   -912.77574    1323.5725    11827.187    2.2213953    1.7710892   0.13345699 
   21500   -952.83494    39.340897   -913.49404    1409.0483    4426.9771    2.2097014    2.6765278   0.14122209 
   21600   -951.64205    35.077213   -916.56484    1256.3386   -9683.5262     2.172437    1.5706297   0.14580192 
   21700   -954.13382    31.417824   -922.71599    1125.2725   -7737.5426    2.1816241    1.7693137   0.12571325 
   21800   -954.11723    38.940235     -915.177     1394.698    4540.6904    2.2074434    1.7960097   0.13889817 
   21900   -954.04801    40.962198   -913.08581    1467.1174    11681.481      2.22461     1.418772    0.1263204 
   22000   -953.99625    40.122677   -913.87358    1437.0488    1646.7342    2.2004225    2.1540973   0.12542893 
   22100   -953.70309    39.926975   -913.77611    1430.0395   -6682.7439    2.1784225    1.2381494   0.12158099 
   22200   -956.86487    34.529902   -922.33496    1236.7359    606.04219     2.208427    1.2522854    0.1106078 
   22300     -954.814    37.105336   -917.70866    1328.9786    1167.4938    2.2047865     1.565374   0.11472697 
   22400   -953.69935    39.616908   -914.08244     1418.934    695.54655    2.1978575    2.0843074    0.1218466 
   22500   -951.59789    39.154289    -912.4436    1402.3646   -1304.7323    2.1893811    1.4427564   0.12777231 
   22600   -956.55807    38.180225   -918.37785    1367.4772   -2345.4996    2.1944928    1.6290733   0.11702927 
   22700    -955.2272     37.34056   -917.88664    1337.4034   -385.48499    2.1971841    2.0315664   0.13222231 
   22800   -958.16933    45.363726   -912.80561    1624.7642   -486.89823    2.1993375    1.2582084   0.12192034 
   22900   -954.07875    40.938494   -913.14025    1466.2684    1521.3383     2.198116    1.4210513   0.12331252 
   23000   -959.42172    38.732928   -920.68879     1387.273   -2571.1524    2.1993706    2.2170715   0.10737468 
   23100   -953.54834    39.934181   -913.61415    1430.2975   -5964.3985    2.1764263    2.8736777   0.12509678 
   23200   -952.85027    40.122091   -912.72818    1437.0278    -614.6296    2.1904657    1.9112526   0.12151319 
   23300    -955.7185     38.54087   -917.17763    1380.3942    9002.9076    2.2212857    1.3475508   0.11418507 
   23400   -957.75831    39.426879   -918.33143    1412.1278    5795.0913    2.2182517    2.5701393   0.11119229 
   23500    -948.6088    37.093495    -911.5153    1328.5545   -7905.7182    2.1648294    2.3902062    0.1251975 
   23600   -953.91615    39.121425   -914.79473    1401.1876   -14027.545    2.1602458    1.6097636   0.12430437 
   23700   -953.86679     38.68288   -915.18391    1385.4805    3489.3245    2.2049666    1.9664312   0.11922673 
   23800   -948.79984    42.020739    -906.7791    1505.0305    10100.031    2.2111885    1.3721393   0.14416759 
   23900   -956.73634    43.988098   -912.74824    1575.4941    1003.0105    2.2022716    2.0310072   0.11798922 
   24000   -957.75641    41.993855   -915.76255    1504.0676   -7492.5547    2.1809415    2.7988396   0.13088068 
   24100   -951.08387    41.576235   -909.50764      1489.11   -3559.2336    2.1762754    2.0182858   0.12950713 
   24200   -950.55052    40.368611   -910.18191    1445.8572    3588.1721    2.1953596    1.1892034   0.11680008 
   24300   -955.37748    40.328373    -915.0491    1444.4161    3249.9106    2.2060862    1.4363569   0.11519464 
   24400   -950.40721     37.51057   -912.89664    1343.4926    1808.1521    2.1945076     1.719633   0.11489809 
   24500   -950.42911    43.507448   -906.92166     1558.279   -4842.5113    2.1749399    1.6628654   0.12031826 
   24600   -955.52294    39.634173   -915.88877    1419.5523      810.646    2.2000184    2.2749891   0.11595171 
   24700   -956.77882    42.177051   -914.60177     1510.629   -199.89665    2.2004198    1.4729932   0.11999145 
   24800   -953.43703    42.398522   -911.03851    1518.5613    1136.6622    2.1943686    1.5422751   0.12695403 
   24900   -951.84109     40.03866   -911.80243    1434.0396   -2763.9584     2.183213    2.6783262    0.1421518 
   25000   -954.00475    35.948601   -918.05615    1287.5485   -933.83432    2.1979268    2.6857858    0.1427915 
   25100   -955.12775    41.538472   -913.58928    1487.7574    8780.3197    2.2181708    1.1280688   0.12468142 
   25200   -954.57547    43.489187   -911.08628     1557.625    5701.6967    2.2112487    1.7747594   0.12053135 
   25300   -953.81256    37.042096   -916.77047    1326.7135   -10243.712    2.1746386    1.3501775   0.12536227 
   25400   -955.33284    37.963204   -917.36964    1359.7043   -14977.286    2.1658459    1.9896559   0.13446185 
   25500   -950.93921    38.872156   -912.06706    1392.2597    3506.6432    2.2003794    2.4102481   0.15376802 
   25600   -953.53247    39.836102   -913.69637    1426.7847    11646.484    2.2283204    1.3259615   0.12750915 
   25700   -956.50664    36.480003   -920.02664    1306.5814    6236.2285    2.2194992     1.865408   0.12054372 
   25800   -952.57456    40.633026   -911.94153    1455.3276   -9031.8746    2.1715549    2.2975243   0.13929995 
   25900   -953.64757    40.375707   -913.27186    1446.1114   -4991.1953    2.1809214    1.7164862   0.13185102 
   26000   -955.00652    38.094647   -916.91187    1364.4121    4391.8417    2.2112797    1.9336984   0.13255065 
   26100   -954.37172    41.779984   -912.59174    1496.4075    6826.4079    2.2150731    1.6914874   0.12815185 
   26200   -950.69664    40.287589   -910.40906    1442.9553    427.89929    2.1899178    1.5596151   0.11794025 
   26300    -956.3956    41.077326   -915.31828    1471.2409   -9687.9642    2.1768829    1.8206634    0.1105593 
   26400   -954.91788    41.182963   -913.73492    1475.0244   -4712.5384    2.1842548    2.0078125   0.11882998 
   26500   -950.99069    43.967051   -907.02364    1574.7403    1854.1292    2.1911676    1.2371916   0.12762896 
   26600   -956.22059    42.070205   -914.15039    1506.8022    5876.9328    2.2099632    2.0316671   0.12164973 
   26700   -955.54411    40.593004   -914.95111    1453.8942   -593.95381    2.1951997    1.2218695   0.11628293 
   26800   -950.07204    42.393962   -907.67808     1518.398   -3853.7477    2.1697882    1.6446397   0.12150018 
   26900   -952.98875    39.266567   -913.72218     1406.386   -269.09824    2.1889917    1.8771066    0.1254794 
   27000   -952.97517     37.87195   -915.10322    1356.4359    3852.6913    2.2016211     1.305454   0.12517126 
   27100   -952.93321    41.531508    -911.4017     1487.508    3363.8807    2.1979336    1.9135263    0.1273998 
   27200   -949.45213    40.811486   -908.64064    1461.7194    15.396725     2.183025    1.8127395   0.12578024 
   27300   -957.90442     40.66176   -917.24266    1456.3568   -1645.3003      2.19639    1.6103035   0.10258244 
   27400   -956.29976    41.884801   -914.41495    1500.1617    866.45279    2.1995754    2.2473999   0.11236541 
   27500   -952.35589    41.174058   -911.18183    1474.7055    5564.1693    2.2007212    1.9083537   0.10997219 
   27600   -957.95179    41.387057   -916.56473    1482.3343   -5618.6006    2.1874412    1.6063808   0.10448088 
   27700   -954.01159    36.335448   -917.67615     1301.404   -5678.3354    2.1784647    2.1035677   0.12189464 
   27800   -952.68377    40.046075    -912.6377    1434.3052    463.79205    2.1948201    1.6942544   0.11974489 
   27900   -957.00884    43.639639    -913.3692    1563.0136    6830.1762    2.2145405    1.7112418   0.12808045 
   28000   -959.86546    39.571906   -920.29355    1417.3222    3761.8164    2.2168733    1.6858672   0.11093454 
   28100   -952.92623    40.435336   -912.49089    1448.2471   -6803.2277    2.1734545    1.7366142   0.12458182 
   28200   -953.61978    40.380871   -913.23891    1446.2963   -7703.3796    2.1769504    2.4411402   0.13882205 
   28300   -954.45591    37.105061   -917.35085    1328.9687    5028.8559    2.2106847    1.7969599    0.1302111 
   28400   -953.38614    37.426522   -915.95962    1340.4823    11485.597    2.2245074    1.0821452   0.12365978 
   28500   -951.06389    40.336157   -910.72774    1444.6949    780.77097    2.1893127    1.3865489   0.11783401 
   28600   -955.13224    40.196359   -914.93588    1439.6878   -9876.5694    2.1714973    1.3519394   0.11798477 
   28700   -953.73741    39.197746   -914.53967    1403.9211   -4531.7513    2.1845515    2.1405693   0.12212024 
   28800   -949.53341     42.79846   -906.73495    1532.8856    4298.9909    2.1946945    2.0212646   0.13468827 
   28900   -954.82653    41.407614   -913.41891    1483.0706     6978.116    2.2150171    1.1256364   0.12107308 
   29000   -955.43805    40.289517   -915.14853    1443.0244   -686.40623    2.1973387   0.98032323   0.11555351 
   29100   -953.39633    45.027851   -908.36848    1612.7343   -9025.9067    2.1691985    1.6541924   0.12731622 
   29200   -949.29354    37.097259   -912.19628    1328.6893   -454.49813     2.183592    2.1476839   0.12687413 
   29300   -953.09102    37.944569   -915.14645    1359.0369    3651.9532    2.2038042    1.7208449   0.13563159 
   29400   -952.65893    40.650321   -912.00861    1455.9471     5359.037    2.2038981    1.4413619   0.12268292 
   29500   -948.66501    40.665289   -907.99972    1456.4832   -1165.1962    2.1869101    1.0464942   0.13852733 
   29600   -952.30326     35.41408   -916.88918    1268.4039    511.71978    2.1959852    1.1785498   0.13228523 
   29700   -954.20359    39.444551   -914.75904    1412.7608   -2642.1396     2.190517    1.9786799   0.12965057 
   29800   -956.32643    44.606447   -911.71999    1597.6412   -1869.0687    2.1917044    1.4063067   0.12625303 
   29900   -954.10284    37.830034   -916.27281    1354.9346    76.354223    2.1985734    1.6033791     0.116256 
   30000   -954.46701    36.381574   -918.08544     1303.056    826.61948    2.2014065    1.4552217   0.11978323 
   30100   -949.15385    36.165109   -912.98874     1295.303    1867.1701    2.1944895    1.6196598   0.12901504 
   30200   -951.90921    39.299772   -912.60943    1407.5753    701.85976    2.1928649    1.4854659   0.12436323 
   30300   -956.85916    36.550669   -920.30849    1309.1124    422.75369    2.2048939    1.3528873   0.11913581 
   30400   -952.24251    38.525964   -913.71655    1379.8603   -2554.8098    2.1882829     1.390705   0.12646015 
   30500   -953.02262    40.563948   -912.45867    1452.8535    107.65486    2.1934184     2.008382   0.13352733 
   30600   -955.89592    37.727673   -918.16825    1351.2684    1026.7855    2.2074062    2.0680236   0.12918268 
   30700   -954.59456    38.710171   -915.88439    1386.4579    957.58862    2.2030511    1.7870459   0.12916978 
   30800   -951.66813    39.897208   -911.77092    1428.9733   -799.67056    2.1905649    1.3594107   0.13012684 
   30900    -952.7434    37.283188   -915.46021    1335.3486   -2075.9349    2.1914587    1.6773885    0.1258083 
   31000   -956.71857    39.364051   -917.35452    1409.8775    -1358.417    2.2008714    2.2074745   0.12033204 
   31100   -951.64634    42.557603   -909.08874     1524.259    607.30495    2.1938429    1.8181482   0.12268476 
   31200   -952.98042    39.697154   -913.28327    1421.8081    2765.9112    2.2029111    1.8943654   0.12320342 
   31300   -953.30358    37.369337   -915.93425    1338.4341    420.17439    2.1973825    2.0428747   0.12457615 
   31400   -949.69904    41.626804   -908.07223    1490.9212   -3445.6564    2.1783839    1.5862541   0.13451975 
   31500   -952.48553    41.138032    -911.3475    1473.4151    1230.8114    2.1980435    1.3553852   0.13570071 
   31600   -955.13444    40.215974   -914.91847    1440.3904    3678.6872    2.2092057    2.9065254   0.12790169 
   31700   -954.41467    41.914387   -912.50028    1501.2214   -48.587111    2.1957068    1.9100757   0.12162277 
   31800   -949.08793     41.62435   -907.46358    1490.8333   -5923.8637    2.1715023    1.9590369   0.13255647 
   31900   -957.30275    41.363052   -915.93969    1481.4745   -2180.7046    2.1976566    1.4730244   0.11770214 
   32000   -954.45884    40.793373   -913.66547    1461.0707    6278.4787    2.2126773    2.3799853   0.11693034 
   32100   -953.12444    44.368849   -908.75559    1589.1313     4139.117    2.2020874    1.7985506   0.11508834 
   32200   -954.50368    40.777715   -913.72597    1460.5099   -7235.1537    2.1791767    1.3038284   0.11691893 
   32300    -952.3668    36.357491   -916.00931    1302.1935   -9332.9853    2.1724558    2.0882444   0.11570972 
   32400   -953.26613    41.122426    -912.1437    1472.8562    2798.2214    2.2016733    1.9384155   0.11025946 
   32500   -955.08324    42.283911   -912.79933    1514.4563     10077.99    2.2236445    1.8277167   0.13455429 
   32600   -957.83559    38.351847   -919.48374    1373.6241    3377.3849     2.213986    1.3690627   0.11386581 
   32700   -951.82527     38.03866   -913.78661    1362.4069   -6912.2519    2.1769434    1.7403476   0.13739955 
   32800   -951.13508    38.537523   -912.59756    1380.2743   -5674.0835    2.1779005    1.4850231   0.13321943 
   32900   -955.03904     35.69121   -919.34783    1278.3297     2279.165    2.2080498    2.1113691   0.12221735 
   33000   -954.98501    39.723442   -915.26157    1422.7496    3477.6185    2.2093626    1.4626835   0.12347504 
   33100   -953.56758    41.553855   -912.01372    1488.3084    1757.7634    2.1959505    1.7699727   0.12281671 
   33200   -955.72939      39.6855   -916.04389    1421.3907   -3439.8033    2.1923056    1.7761976   0.11739078 
   33300   -956.45661    37.417896   -919.03872    1340.1733   -1301.6042    2.1991113    1.3388454   0.10455388 
   33400   -950.71657    39.799362   -910.91721    1425.4688   -24.916122    2.1911031    2.2026929   0.13236901 
   33500   -954.83271     41.03968   -913.79303    1469.8925     1112.481    2.2001994    1.0419998   0.11996012 
   33600   -955.11588    38.448968   -916.66691    1377.1026    515.95335    2.2034529    1.2164333   0.12310655 
   33700   -950.29549    42.098436   -908.19705    1507.8133   -1835.1346    2.1857217    2.6188721    0.1476591 
   33800   -952.50399    40.809882   -911.69411     1461.662    1036.1998    2.1965861    1.4740146    0.1441605 
   33900   -952.17756    36.639251   -915.53831    1312.2851    1250.0323    2.2033084    1.8001098   0.14571029 
   34000   -955.15595    43.371144   -911.78481    1553.3971   -1769.0398    2.1942596    1.9011166   0.12197483 
   34100   -952.26881    43.249304   -909.01951    1549.0332   -4211.6594    2.1835314    1.5446927   0.11980041 
   34200   -952.91563    37.296497   -915.61914    1335.8253   -2399.3398    2.1931433    1.9827389   0.12302582 
   34300   -955.40571    42.444177   -912.96153    1520.1965    2002.6591    2.2059592    1.7927089   0.13310698 
   34400   -952.29884    45.351114   -906.94773    1624.3125    3997.2247    2.2002216    1.0853105   0.12688295 
   34500   -955.21366    39.771049   -915.44261    1424.4547    1517.6792    2.2030309    2.4454457   0.12129956 
   34600   -952.48015    37.918619   -914.56153    1358.1074   -7434.3251    2.1800125    2.0367443   0.13265414 
   34700   -950.48145    39.977057   -910.50439    1431.8332   -2773.6122    2.1816749    1.3554173   0.13215709 
   34800   -955.90782    37.652674   -918.25514    1348.5822    5837.0183    2.2183009    1.8541759   0.13378284 
   34900   -956.04939    40.036028   -916.01336    1433.9453    5374.6707    2.2161403    2.1816362   0.13271201 
   35000   -954.38801    42.397816    -911.9902     1518.536   -4930.4653    2.1872032    2.0546006   0.13496699 
   35100   -952.52417    37.701028   -914.82315    1350.3141    -9041.192    2.1754316    1.9388445   0.12121933 
   35200   -954.74837    35.896281   -918.85209    1285.6746    1195.3025    2.2013634     1.299636   0.11263117 
   35300   -952.08997    40.699298   -911.39067    1457.7013    8526.9143    2.2127789    1.2343759   0.11524613 
   35400   -953.20537    39.760192   -913.44518    1424.0659    6043.5408    2.2079535    1.7299385   0.11064232 
   35500   -957.61418    38.280533   -919.33365    1371.0699   -6119.4815    2.1888973    1.5263623   0.12362166 
   35600   -952.84695    41.340043    -911.5069    1480.6504   -10073.397    2.1685391    1.9315424   0.11467324 
   35700   -951.90633    39.591884   -912.31445    1418.0377    4150.8136    2.2021477    1.7958043   0.11354674 
   35800   -956.47696    40.802987   -915.67398     1461.415    11195.018    2.2279609    1.9635847   0.12179207 
   35900   -954.45016    43.789816   -910.66034    1568.3924    1585.0153    2.1983217    2.3829895   0.12142948 
   36000    -950.2734    39.972942   -910.30046    1431.6858   -8928.6384    2.1641317     1.002614   0.13312458 
   36100   -955.41357     39.12717    -916.2864    1401.3933   -8455.1678    2.1771038    2.0353942   0.10768269 
   36200   -955.80858    43.276146   -912.53243    1549.9946    5632.5322    2.2072608    1.7145712   0.10954075 
   36300   -949.21264    41.481549   -907.73109    1485.7186    10834.162    2.2128046     1.956526   0.11920703 
   36400   -953.62148    37.846364   -915.77512    1355.5195    2964.1788    2.2020497    2.4781581   0.10593372 
   36500   -954.86191     40.83005   -914.03186    1462.3843   -5040.2618    2.1813927      2.53522   0.11293705 
   36600   -950.37901    41.475038   -908.90397    1485.4855     -2476.64    2.1790473    1.8931105   0.11678804 
   36700   -953.32476    36.016696   -917.30807    1289.9874    4973.5854    2.2076456     2.338081   0.13645081 
   36800   -956.35676    41.309109   -915.04765    1479.5425   -872.69148    2.1977076    1.6383907   0.10824392 
   36900   -952.14944    41.114018   -911.03542     1472.555   -1379.2283    2.1844167    1.9827594   0.10929887 
   37000   -954.73824    36.955036    -917.7832    1323.5954   -1043.4942    2.1950968    1.8498868   0.11772486 
   37100   -957.37463    40.930882   -916.44375    1465.9958   -193.75007    2.1952673    1.6096907   0.10195446 
   37200   -951.38844    39.987871   -911.40057    1432.2205    2608.8041    2.1962532    1.8457722   0.12843622 
   37300   -958.45642     42.34734   -916.10908    1516.7282   -439.01374    2.2007382    1.5653342   0.10372576 
   37400   -955.80296    37.528803   -918.27415    1344.1456   -1717.1902    2.1972517    1.9433736    0.1033251 
   37500   -953.19004    41.734155   -911.45588    1494.7661   -5150.0568    2.1810833    2.0327962   0.11532974 
   37600   -955.38854    40.493083   -914.89546    1450.3154   -1774.1084     2.194276    1.6451431   0.13238224 
   37700   -957.55444    39.664276   -917.89016    1420.6305    5283.8433    2.2139879    2.4175734    0.1222153 
   37800   -951.69703    42.417825    -909.2792    1519.2527    1400.6445    2.1917826    2.4637612   0.11096786 
   37900   -952.16694    38.532516   -913.63443     1380.095   -1868.4306    2.1866251    1.6835014   0.11886988 
   38000   -955.10971    38.583741   -916.52597    1381.9297   -4034.3374      2.18952    1.7927367   0.12146774 
   38100   -952.01586    43.175853   -908.84001    1546.4025    3.0102056     2.193099     1.742345   0.14368163 
   38200   -950.06704    38.129737    -911.9373    1365.6689    10107.871    2.2137586    1.2717003   0.13139625 
   38300   -954.07281    38.312662   -915.76015    1372.2206    1929.0506     2.198929    1.7129317   0.10852624 
   38400   -950.88756     40.01951   -910.86805    1433.3537   -9162.4761    2.1676827    1.5740114   0.12740891 
   38500    -949.3613    39.399987   -909.96131    1411.1647    -4566.996    2.1745475    2.3479863   0.12641278 
   38600   -954.67721     38.88464   -915.79257    1392.7068    8235.1189    2.2192035    2.2580211   0.12401115 
   38700   -950.79733    39.038006   -911.75932    1398.1998    12541.901    2.2215123    2.8011446    0.1231186 
   38800   -952.58639    41.433408   -911.15298    1483.9944    -4173.128    2.1825415    1.9731267   0.12615241 
   38900    -955.2667    36.742531   -918.52417    1315.9842   -8523.6694    2.1784332    2.2042703   0.11506191 
   39000   -955.79952    42.060969   -913.73855    1506.4714   -1613.7241    2.1927597    2.2176839   0.12337538 
   39100   -948.74691    37.943019   -910.80389    1358.9813    8122.6088     2.206796    1.6920062   0.12625333 
   39200   -956.41765    37.635732   -918.78192    1347.9754    3634.3566     2.210432    1.7474097   0.12319075 
   39300   -952.31511    38.082668   -914.23244     1363.983   -2010.5506    2.1868479    1.5431001   0.13632114 
   39400   -950.22359    38.562216   -911.66137    1381.1587   -2183.7825    2.1830779    1.6075991   0.12248006 
   39500   -956.97554    39.285783   -917.68976    1407.0743    2028.8557    2.2027844    2.2928792   0.12552361 
   39600   -955.92388     40.90327   -915.02061    1465.0068    3044.6194    2.2069573    2.4575907   0.11901639 
   39700   -948.78516    37.776672   -911.00849    1353.0234    2996.2449    2.1946581    1.9226648   0.12606914 
   39800   -952.50594    35.892904   -916.61304    1285.5537   -2146.3144    2.1895487    1.4568973   0.13223515 
   39900   -950.94308    36.646903   -914.29618    1312.5591    128.17057    2.1901585    1.6198203   0.10883062 
   40000   -947.26901    37.824115    -909.4449    1354.7226    3106.9879    2.1918368    2.2998776   0.13002131 
   40100   -955.85564    40.332126   -915.52351    1444.5505    1419.0388    2.2039296    1.4719026    0.1087279 
   40200   -953.22595    39.189264   -914.03669    1403.6173    2770.3538    2.1978404    2.5129303   0.12359508 
   40300   -950.73147    42.289021   -908.44245    1514.6394   -6115.5851    2.1712854    2.0601907   0.13746487 
   40400   -953.36245    36.917429   -916.44502    1322.2484   -2082.8908    2.1867566    2.0563619   0.12428363 
   40500   -953.59125    39.638246     -913.953    1419.6982    6096.2491    2.2084431    2.4394839   0.13165447 
   40600   -952.91467    44.872525   -908.04215    1607.1711    8758.9368    2.2107334    2.4641516    0.1340107 
   40700   -956.75844    41.083911   -915.67452    1471.4767   -2783.3067    2.1934636    1.5511687   0.13063187 
   40800   -951.61583     36.16454   -915.45129    1295.2827   -12156.374    2.1642195    2.4038435   0.12982761 
   40900   -953.43712    42.806373   -910.63075     1533.169   -5989.7485    2.1757232    1.5692052   0.13145711 
   41000   -952.68362    35.746591   -916.93703    1280.3132    12428.238    2.2249024    2.1027061   0.12741509 
   41100   -955.84524    39.504147   -916.34109    1414.8953    8319.8383    2.2195177    3.1016955   0.11365405 
   41200   -952.97988    41.243388   -911.73649    1477.1886   -4406.9503    2.1832667    1.4188614   0.12112672 
   41300   -951.05289    36.006576   -915.04631     1289.625   -6641.4016    2.1750859    1.4631257   0.12158015 
   41400   -956.75836    38.367234   -918.39113    1374.1752    -317.7505    2.2021903    1.8877116     0.123028 
   41500   -952.08082    41.255087   -910.82573    1477.6076    6073.3451    2.2057604    2.2050939   0.14294308 
   41600   -954.36089      40.0997   -914.26119    1436.2258    3400.3933    2.2044522    1.9491123   0.13521541 
   41700   -956.50105    37.678376   -918.82268    1349.5028   -3956.2677     2.193273    1.5500662    0.1218102 
   41800   -952.81457    42.516091   -910.29848    1522.7722   -5608.2068    2.1747633    2.0772153   0.12479332 
   41900   -951.60537    38.559448   -913.04592    1381.0596    2965.0625    2.1978462    1.8376106   0.12091726 
   42000   -953.44934    37.147949   -916.30139    1330.5048    7181.6145    2.2118711    2.4762465   0.10778162 
   42100   -948.27666    39.799121   -908.47754    1425.4602     1879.184    2.1871434    1.7978104    0.1316966 
   42200   -954.65113      42.1289   -912.52223    1508.9044   -3521.5298    2.1833802    2.2774121   0.11356091 
   42300   -952.31649     36.12085   -916.19564    1293.7178   -217.48031     2.191692    2.6340964   0.11815912 
   42400   -953.80054      43.8019   -909.99864    1568.8252  -0.95612751     2.193691    2.7393608   0.12701327 
   42500   -952.65629    41.247062   -911.40923    1477.3202    1617.7967    2.1966648     1.861374   0.12234122 
   42600   -955.23652    38.861796   -916.37472    1391.8886    -769.5528     2.195707    1.6846288   0.12532315 
   42700   -950.92272    39.156546   -911.76617    1402.4455   -156.92882    2.1874856    1.2284608   0.14175387 
   42800   -949.89801    39.639253   -910.25875    1419.7343   -316.41926    2.1870359    1.0044519   0.13767813 
   42900   -955.23351    37.725067   -917.50844    1351.1751    2099.3544    2.2038333    1.7930268     0.107147 
   43000   -952.08801    39.402397   -912.68561     1411.251    9.1722004     2.194943    1.7356235   0.12136853 
   43100   -950.70842    39.521879   -911.18654    1415.5304    281.00352    2.1879226    1.2883004   0.12112222 
   43200   -955.22426    36.391561    -918.8327    1303.4138    1562.9098    2.2026499     1.644045   0.11125949 
   43300   -952.34095     39.42403   -912.91692    1412.0258    17.953998    2.1916205    2.1697498    0.1245542 
   43400   -952.90327    40.909933   -911.99334    1465.2454   -447.21696    2.1895755    1.8066393   0.11563272 
   43500   -958.13573     38.95884   -919.17689    1395.3644   -1313.7326    2.2028805    2.1559165   0.11597054 
   43600   -951.01055    38.378325   -912.63222    1374.5724    426.86783    2.1913295    1.9161987   0.14019258 
   43700   -954.32796    42.156851    -912.1711    1509.9055    97.118547    2.1947097    1.9189265   0.13409148 
   43800   -956.07955    37.864223   -918.21532    1356.1592    719.13994    2.2033504     2.565123   0.12159328 
   43900   -948.95181    37.186086   -911.76573    1331.8707    2136.4725    2.1874918    2.1187317    0.1384746 
   44000   -954.82976    43.064016   -911.76574    1542.3969   -1388.3809    2.1896572    1.5622574   0.12344212 
   44100   -958.21912    41.246659   -916.97246    1477.3057   -2688.7716    2.1980017    1.7278816   0.10136894 
   44200   -948.18764    36.624165   -911.56347    1311.7448    3975.8833    2.1929556    1.6232094    0.1180208 
   44300   -952.17511     41.49806   -910.67705      1486.31    438.44437    2.1922758    1.5831145   0.11635426 
   44400   -952.55575    36.241992   -916.31375    1298.0567     547.7199    2.1941919    1.5859601   0.12669602 
   44500   -952.62378    40.581365   -912.04242    1453.4773   -1684.7773    2.1863421    1.8461595   0.12510639 
   44600   -950.45045    40.983894   -909.46656    1467.8944    2627.9205    2.1903018    1.3716668   0.11832631 
   44700   -955.68053    39.346179   -916.33435    1409.2374    4574.2399    2.2072977    1.7744895   0.11954313 
   44800   -953.23236    40.852427   -912.37993    1463.1858    285.13204    2.1941142    2.5269988   0.13751109 
   44900   -951.22988    40.938444   -910.29144    1466.2666   -3254.9913    2.1772867      2.34279    0.1424143 
   45000   -955.77755    37.904287   -917.87327    1357.5941   -3174.1318    2.1922599    1.2474903   0.10680714 
   45100   -952.67891    39.864185   -912.81473    1427.7905    3032.0728    2.1980058    1.7528152   0.10720584 
   45200   -953.09426    42.265401   -910.82886    1513.7934    4602.2099    2.1995844     2.267492   0.10663793 
   45300   -956.14565    37.424392   -918.72126     1340.406    779.36352    2.2017541    2.0186952   0.10886968 
   45400   -953.53569    40.182773   -913.35291    1439.2012   -7484.7044    2.1753153    1.9484927    0.1111667 
   45500   -953.66482    41.984899   -911.67992    1503.7468   -4030.6751    2.1809025    2.0245269   0.11850375 
   45600    -956.0593    37.645795    -918.4135    1348.3358    7632.3442    2.2155987     1.828626   0.10748848 
   45700   -954.39616    41.540162     -912.856    1487.8179    6371.0161    2.2120499    2.4888391   0.12950429 
   45800   -951.06454    39.274411   -911.79013     1406.667    -106.2621    2.1856631    2.1193653   0.12334309 
   45900   -954.71081     36.97064   -917.74017    1324.1543    -10075.19    2.1709164     1.838779   0.10755993 
   46000   -949.78671    36.676734   -913.10997    1313.6276   -3027.4194    2.1809166    1.6541224   0.13263234 
   46100   -950.53641    40.380108    -910.1563     1446.269    11449.393    2.2151614    2.5241691   0.12771272 
   46200   -957.10427    41.487306   -915.61697    1485.9248    7702.8537    2.2211246    2.3053155   0.12090928 
   46300   -952.09417    39.527461   -912.56671    1415.7303   -3276.7163    2.1834247    2.0831721   0.11743179 
   46400   -951.70991    42.098467   -909.61145    1507.8144   -9972.8255    2.1669429    1.7026741   0.11089511 
   46500   -953.49127    37.040708   -916.45056    1326.6638    471.14494    2.1985727    1.0058529   0.11624613 
   46600   -951.25223    38.505894   -912.74634    1379.1415     7756.616    2.2110965    1.6463299   0.12713422 
   46700   -948.31889    39.128552   -909.19033    1401.4428    2335.1736    2.1926505    2.5286464   0.14039191 
   46800   -955.03374    37.764348   -917.26939     1352.582   -816.60337    2.1974018    1.9798624   0.11627834 
   46900   -952.65052    39.253356   -913.39716    1405.9129   -415.29309    2.1907477    2.1286272   0.11459888 
   47000   -949.61198    39.593596   -910.01838     1418.099    997.41983    2.1889946    1.1959974   0.12649286 
   47100   -955.25152    37.247105   -918.00441    1334.0562    2342.3194    2.2069769     2.303653   0.13063133 
   47200    -952.7409    39.034828   -913.70607     1398.086    59.177279    2.1964145    2.7973217   0.13919449 
   47300   -951.62666    40.544975   -911.08169     1452.174   -1320.0929     2.188259    2.2973283   0.12990895 
   47400   -956.94079     38.23391   -918.70688       1369.4   -905.27468    2.2039455    1.3076244   0.11175932 
   47500   -952.08643    38.720683   -913.36575    1386.8345    2004.0246    2.1988546    1.1258283   0.10280859 
   47600   -953.88073    42.298562   -911.58217    1514.9811    763.46418     2.196039    1.7082393   0.12331701 
   47700   -956.42209     38.26355   -918.15854    1370.4616    -1783.599    2.1992044    1.4031159   0.11919387 
   47800   -953.02582    40.397046   -912.62877    1446.8757   -3747.6483    2.1832106    1.8532927   0.12495944 
   47900   -951.24928    39.816055   -911.43323    1426.0667    2135.2551    2.1947588    1.9923286   0.12846213 
   48000   -955.25691    38.886004    -916.3709    1392.7557    6605.5967    2.2162214    2.1499172   0.11676274 
   48100   -952.12641    40.191733   -911.93468    1439.5221    3497.3816    2.1993366    1.8173327    0.1162426 
   48200   -951.83516    41.531055    -910.3041    1487.4918   -5345.0803    2.1777426    2.3748535   0.13226758 
   48300   -955.02809    38.509842   -916.51825    1379.2829   -6525.5305    2.1853962    1.4439278   0.12247919 
   48400   -954.29135    41.785382   -912.50597    1496.6009    684.38372    2.2019171   0.96424777   0.12155508 
   48500   -950.70441    42.186385   -908.51803    1510.9633    8745.0681    2.2092113    2.0871467   0.12202347 
   48600   -953.34706    37.133392   -916.21367    1329.9834    5769.2551    2.2103854    1.9074699   0.11686977 
   48700    -953.7064    40.277832   -913.42856    1442.6059    -7655.657    2.1777561    2.6762359   0.12458021 
   48800   -951.81997    41.989903   -909.83006    1503.9261   -8743.3416    2.1689421    1.8004465   0.12378248 
   48900   -957.16704    39.030919   -918.13612     1397.946    3564.8314    2.2158276    1.5773759   0.11377378 
   49000    -954.2899    41.144271   -913.14563    1473.6386     10361.96    2.2225854      1.71197   0.12283455 
   49100   -951.73426    40.618187   -911.11608    1454.7962    2586.9779    2.1966301     2.203815   0.12946374 
   49200   -955.96807     37.35024   -918.61783    1337.7501   -9010.9682    2.1816768    1.6357465   0.11783604 
   49300   -955.20299    40.607664   -914.59532    1454.4193   -7300.8916    2.1816419    1.4406838   0.11985703 
   49400   -953.65886    42.913693   -910.74517    1537.0129    4310.3534    2.2070082    1.9147996   0.11926128 
   49500   -956.04208    38.849733   -917.19234    1391.4566    6013.1214     2.218527    1.6796605     0.117166 
   49600   -954.99937    40.778878   -914.22049    1460.5515   -1806.7567    2.1960258    1.6574875   0.12853473 
   49700   -954.80272    43.833661   -910.96906    1569.9628   -4918.5737    2.1818787    1.9141082   0.11944792 
   49800   -955.50905    38.857484   -916.65157    1391.7341   -1528.8689    2.1977663    2.5675375   0.12274632 
   49900   -952.51921    38.485738   -914.03347    1378.4196    3899.1862    2.2017517    1.5308975   0.12075794 
   50000   -953.20815    43.426487   -909.78166    1555.3793    668.27538    2.1921142    1.8440101   0.11485649 
   50100    -955.2185    39.096748   -916.12176    1400.3037   -1701.0498    2.1960932    2.6519216    0.1166793 
   50200   -954.93989    41.422354   -913.51754    1483.5985   -3393.4829    2.1916166     1.563254    0.1173648 
   50300   -950.56387    41.378464    -909.1854    1482.0265   -1317.7247     2.186796    2.1358011   0.12810663 
   50400   -956.50086    40.211386   -916.28948     1440.226    1941.2879    2.2062343    1.4476427   0.11581381 
   50500   -953.16128    39.990713   -913.17057    1432.3223    1773.6552    2.2010615    2.0262938   0.12509335 
   50600   -949.45722    40.095401   -909.36182    1436.0719   -1700.7593    2.1810037    1.8213989   0.12619327 
   50700   -957.39158    39.898265   -917.49332    1429.0112   -4750.1209    2.1913474    2.1880058   0.12277347 
   50800   -952.77848     39.28021   -913.49827    1406.8747    1459.5604    2.1967275    1.4716071   0.11740063 
   50900   -953.47566    43.643391   -909.83227     1563.148    4908.9254    2.2024248    2.2702167   0.13235931 
   51000   -954.52702    36.618625    -917.9084    1311.5464    3331.1963    2.2078114    1.1572847   0.11809851 
   51100   -953.27968    39.441703   -913.83797    1412.6588   -6342.0739    2.1759699    1.7718542    0.1166015 
   51200    -950.3593    39.072375   -911.28692    1399.4308   -4125.4922    2.1768573    1.9836806   0.12390921 
   51300   -955.13754     36.90008   -918.23746     1321.627    5050.3625    2.2148338    1.4797048   0.10818918 
   51400   -952.80401    39.530618    -913.2734    1415.8434    10119.229    2.2193564    2.0731883   0.12275139 
   51500   -953.31951    41.750277   -911.56924    1495.3435   -403.77161    2.1942085    2.0060433   0.13149387 
   51600   -953.36859    35.439013   -917.92958    1269.2969   -7586.3444    2.1783999    1.6269562   0.11879839 
   51700   -954.74123      41.3433   -913.39793    1480.7671   -6419.4507    2.1802021    1.6194962   0.11459565 
   51800    -952.8719    42.496092   -910.37581    1522.0559    7328.3376    2.2111175    1.4343089   0.12388253 
   51900   -957.47629    41.554841   -915.92145    1488.3437    7245.5786    2.2213674    1.6902013   0.12230317 
   52000    -954.4042    41.256281   -913.14792    1477.6504   -3657.0566    2.1866178    1.9742147   0.12120951 
   52100   -951.38336    41.663109   -909.72025    1492.2215   -8938.3998    2.1672402    1.3168513   0.12646926 
   52200   -954.48781    38.011525   -916.47629     1361.435   -1749.7944    2.1957628    1.9781666   0.10727792 
   52300   -951.98969    38.942288    -913.0474    1394.7715    7367.4976    2.2104074    1.7255507   0.11216187 
   52400   -951.68732    42.625601   -909.06171    1526.6945    908.44422     2.194203    1.6791881   0.11229848 
   52500    -953.1625    36.220719   -916.94178    1297.2948   -690.65953    2.1956226    2.2902502   0.11946102 
   52600   -955.01936    41.424027   -913.59533    1483.6584    -4581.586    2.1873959    1.3429766   0.11685716 
   52700   -952.31906    42.385864    -909.9332    1518.1079   -1789.8226    2.1871971    2.5874831   0.12345605 
   52800   -954.47724    36.348249   -918.12899    1301.8625    3864.9767    2.2099337    1.9210434   0.11537052 
   52900   -954.75602    40.851882   -913.90414    1463.1662   -1096.5848    2.1963783    2.1943104    0.1283357 
   53000   -951.50251    40.228157   -911.27435    1440.8267   -161.65342    2.1880532    2.0513945   0.12384731 
   53100   -955.83357    36.949829   -918.88374    1323.4089   -1170.7736    2.2015427    2.5124998   0.12430525 
   53200   -952.15709    38.436275   -913.72081     1376.648    795.01225    2.1978489    1.3529255   0.11231776 
   53300   -954.06003    42.615096   -911.44493    1526.3182    2068.3192    2.2027269    2.4102941   0.11660701 
   53400   -956.33803     38.22041   -918.11762    1368.9165    971.55843    2.2062705     1.789889    0.1112601 
   53500   -951.62822     38.76418   -912.86404    1388.3923   -4247.1054    2.1816604    1.7790397    0.1199846 
   53600   -951.33426    39.803092   -911.53117    1425.6024   -3766.9553    2.1841186    2.1506731   0.11496388 
   53700   -953.93924    37.355918   -916.58333    1337.9535    5549.1867     2.212565    1.4506294   0.10597525 
   53800   -955.37879     41.50377   -913.87502    1486.5145    7395.4348    2.2178136    2.4257734   0.12905947 
   53900   -951.26748    41.166482   -910.10099    1474.4341   -2058.0361    2.1875377    2.2717767   0.12916491 
   54000   -953.49182    37.045382   -916.44644    1326.8312   -8024.9149    2.1745227    1.6886797   0.13083362 
   54100   -952.77983    39.778686   -913.00114    1424.7283   -2598.2617    2.1876022    1.6430745    0.1180191 
   54200     -950.114    41.851722   -908.26228    1498.9769    8112.5073    2.2085156    1.8872098   0.10776502 
   54300   -953.79434    38.072168   -915.72218     1363.607    9341.5358    2.2225241    1.9097996   0.12112832 
   54400   -954.37993    40.564151   -913.81578    1452.8608   -4844.8405    2.1868529    1.6294951    0.1101939 
   54500   -949.61882    39.905839   -909.71298    1429.2824   -10036.705    2.1635853    1.5526238    0.1243533 
   54600    -954.1947     36.34012   -917.85458    1301.5713    1755.4686    2.2031195    1.5580139   0.10311574 
   54700   -952.42014    38.831327   -913.58881    1390.7973    8856.5246    2.2148412    2.3785989   0.11696322 
   54800   -951.74522    41.097336   -910.64789    1471.9575     2979.865    2.2002758    1.9812086   0.13569647 
   54900   -959.46455    40.911176   -918.55337    1465.2899   -4444.7593    2.1981895    2.2128286   0.13343049 
   55000   -954.10967    39.836887   -914.27278    1426.8128   -4481.4399     2.185708     1.665313   0.12617909 
   55100   -953.56671    42.453584   -911.11313    1520.5334   -1711.1114    2.1932732   0.95540337   0.10807285 
   55200   -956.54688    38.675741   -917.87114    1385.2248    2476.3937    2.2097988    1.2927114   0.11205311 
   55300   -955.96762    41.837901   -914.12972    1498.4819    -1105.582    2.1977531    1.9314767   0.11054058 
   55400    -949.5886    38.338654   -911.24995    1373.1515   -669.48589    2.1869944    1.6706242   0.13493117 
   55500   -954.89392    37.838084   -917.05584    1355.2229    551.19942     2.197582    1.8390557   0.10538361 
   55600    -955.7752    42.029907   -913.74529    1505.3588    27.217252    2.2009667    1.6576033   0.10997917 
   55700    -949.4052    39.302935   -910.10226    1407.6886     3410.897    2.1930754    1.8267267   0.11006648 
   55800   -955.27135    38.661207   -916.61014    1384.7042   -1198.1409    2.1959075    2.2267072     0.131555 
   55900   -953.20208    40.418064   -912.78401    1447.6285   -1266.1663     2.189073    2.3997372   0.13127042 
   56000   -953.88702    44.071333   -909.81569    1578.4753   -1713.3308    2.1904551     2.470936   0.12867101 
   56100   -956.56345    40.037552    -916.5259    1433.9999   -1251.8025    2.2028171    1.8817538   0.11700326 
   56200   -954.95908    42.332156   -912.62692    1516.1843    641.36851    2.1955139    1.8143132   0.11271045 
   56300   -952.36304    42.719915   -909.64313    1530.0724    -2375.594    2.1848456    1.4986344   0.12800055 
   56400   -955.43261    38.283156   -917.14946    1371.1638    165.33197    2.2007388    1.3447074   0.10886266 
   56500   -954.68223    41.775694   -912.90654    1496.2538   -229.06986    2.1974629    1.8700129   0.11095059 
   56600   -951.13489    40.767299   -910.36759    1460.1368    1255.7525    2.1936771    2.1227071   0.11903952 
   56700   -956.22857    38.105339   -918.12323    1364.7951   -1671.7799    2.1993996     1.922235   0.10867308 
   56800   -952.29973     39.13497   -913.16476    1401.6727   -2863.6604    2.1863237    1.7457564   0.12271912 
   56900    -951.7183     40.72181   -910.99649    1458.5076   -678.88953    2.1876694    2.9097433   0.11419359 
   57000    -956.1373    37.701248   -918.43605     1350.322    4849.3349    2.2134084    1.5571144   0.11426381 
   57100    -951.7369     39.17338   -912.56352    1403.0484    5463.9041    2.2021421    2.2217219   0.12961752 
   57200   -951.01248    39.209655   -911.80282    1404.3476   -888.36399      2.18574    1.7900331   0.12344353 
   57300   -952.84165    34.035007   -918.80664    1219.0105   -2345.6413    2.1913262    1.4919203   0.12896844 
   57400   -951.87685    39.042913   -912.83393    1398.3755   -92.580747    2.1914154    1.8901005   0.12016918 
   57500   -954.04356    42.541962    -911.5016    1523.6988      4014.83    2.2058442    1.9514916   0.10722966 
   57600   -954.65621    37.283689   -917.37252    1335.3665     5401.801    2.2132243    1.9891942    0.1197779 
   57700   -953.66995    42.391065   -911.27888    1518.2942    -5304.325    2.1796485    1.9789913   0.12834208 
   57800   -956.00077    44.324692   -911.67608    1587.5497   -8119.1933    2.1763449    2.2615013   0.12635464 
   57900   -954.69554    38.108871   -916.58667    1364.9216   -8.5334614    2.1993668    2.7744981   0.11026534 
   58000   -954.06858    42.038052   -912.03053    1505.6506    5627.0464    2.2082018    2.2251759   0.11537343 
   58100   -950.63061    42.380944   -908.24967    1517.9317    3792.5958    2.1931876    3.6978713   0.12628266 
   58200   -952.05207    36.496653   -915.55542    1307.1777   -7196.5202    2.1776602    2.0171502    0.1351116 
   58300   -952.54203    38.160086   -914.38194    1366.7559   -5488.2358    2.1771095    1.6921003   0.12183115 
   58400   -953.04164    45.255199   -907.78644    1620.8771    2291.5014    2.1958912    1.4937555     0.112855 
   58500   -955.20743    40.301201   -914.90623    1443.4429    12689.276    2.2282333    1.3713164   0.11651057 
   58600       -953.9     39.36012   -914.53988    1409.7367   -651.10652    2.1950206     1.579317   0.11100524 
   58700   -949.78638    39.571229   -910.21515    1417.2979   -11983.436    2.1532875    1.7257723   0.12569938 
   58800   -956.29935     38.11301   -918.18634    1365.0698   -5373.6768    2.1864594    2.7998207   0.11181466 
   58900   -957.87297     42.59829   -915.27468    1525.7163    5073.9706    2.2158022    1.8637394   0.10663822 
   59000   -951.18423    40.571622   -910.61261    1453.1284    7665.0052    2.2072947    2.1609607   0.12529708 
   59100   -955.01362    38.840297   -916.17333    1391.1186   -2097.1912    2.1914604     2.259472   0.11476792 
   59200   -954.98412    37.424636   -917.55949    1340.4147   -3917.1662    2.1893926    2.4835159   0.10823846 
   59300   -949.88456    38.524452    -911.3601    1379.8062    1233.6214    2.1888952    1.5641294   0.12258839 
   59400   -952.08567    36.770511   -915.31516    1316.9863     2452.165    2.2030214    2.2028037   0.13287314 
   59500   -954.97415    36.582332   -918.39182    1310.2465    4383.6834     2.210492    1.5034598   0.12091854 
   59600   -950.89944    40.402535    -910.4969    1447.0723   -1993.4525    2.1838813    2.5222138   0.13350829 
   59700   -952.78252    38.512009   -914.27051    1379.3605   -3179.6437    2.1877852    1.8484983   0.11927386 
   59800    -955.9202    38.927229   -916.99297    1394.2322    1065.9331    2.2043486    2.1598416   0.11911684 
   59900   -954.29197    45.707784   -908.58419    1637.0871    101.42474    2.1939559    1.7680403   0.13532787 
   60000   -951.14986    37.987509   -913.16235    1360.5748    5433.3137    2.2027431    1.7845067    0.1299682 
   60100   -954.78916    38.619537   -916.16962    1383.2117   -1170.4179    2.1954823    2.2611519   0.10394156 
   60200   -952.75212    44.082874   -908.66925    1578.8887    -7269.682    2.1725601    2.1590857   0.10845418 
   60300   -951.14248    38.313903   -912.82858     1372.265    936.72287     2.193786    1.7750446   0.13044675 
   60400   -955.73684    40.397313   -915.33953    1446.8853    6046.7086     2.214546    2.0857323    0.1225349 
   60500   -951.04078    40.547458   -910.49332    1452.2629    5534.1521    2.2022258    2.6128168   0.13317079 
   60600   -950.11621    39.052438   -911.06378    1398.7167   -5589.4966    2.1756686    1.7971026   0.13710002 
   60700   -956.54522    39.319349   -917.22587    1408.2765   -9098.0436    2.1792786    2.8761662   0.12545152 
   60800   -952.56466    40.174658   -912.39001    1438.9105    3122.3096    2.2017745    1.9815524   0.12512799 
   60900   -953.99171    43.281781   -910.70993    1550.1964    9554.3565    2.2199809    1.3865127   0.11128983 
   61000   -953.66612    35.113548   -918.55257    1257.6399    5978.2245    2.2146143    2.0691114   0.12338748 
   61100   -951.16303    37.595596   -913.56743    1346.5379   -8207.7364    2.1721812    1.7897947   0.12410321 
   61200   -951.29923    39.357609   -911.94162    1409.6468   -7771.0286    2.1719005    1.8027773   0.12575621 
   61300   -957.94454    39.007768   -918.93677    1397.1168    3214.3059    2.2162105    1.9141339   0.11674888 
   61400   -953.43891    38.889184   -914.54972    1392.8695    7782.1121    2.2188093    2.1752048   0.12227642 
   61500    -952.8085    40.841093   -911.96741    1462.7799    218.77224    2.1955755    1.7831815   0.12549576 
   61600   -954.41891     37.33953   -917.07938    1337.3665   -5576.3225    2.1838911    2.1925332   0.11944486 
   61700   -953.60628    37.689818   -915.91646    1349.9126   -733.38553    2.1935145    1.5195002   0.13438088 
   61800   -952.27817    41.741034   -910.53713    1495.0125    1836.5589    2.1970711    2.0866458   0.13741573 
   61900   -954.86828    39.714669   -915.15361    1422.4354    1381.5274    2.2019836     1.548874   0.12750557 
   62000   -953.21039    36.664826   -916.54556    1313.2011   -190.90501    2.1958449    1.9827536   0.12621599 
   62100   -947.45414    39.018886   -908.43525     1397.515   -3321.3914    2.1735337    1.4854408   0.11898558 
   62200   -952.36354     37.89081   -914.47273    1357.1114    1122.7915    2.1984027    1.4848083   0.11223766 
   62300    -952.7268    37.446459   -915.28034    1341.1964    6180.5418    2.2097852    2.2492879   0.11464716 
   62400   -947.26812    39.642121     -907.626     1419.837    2309.0623    2.1876183    2.0098039    0.1256982 
   62500   -954.94765    40.659488   -914.28816    1456.2754   -4424.4887    2.1869898    2.1779036   0.11531109 
   62600   -954.95653    39.585636    -915.3709    1417.8139   -4277.4691    2.1882438    2.3286493   0.11036587 
   62700   -952.11301    42.790415    -909.3226    1532.5975    698.16308    2.1928308    1.3024709   0.10918536 
   62800   -952.87875    38.588254    -914.2905    1382.0913    9716.9789    2.2170536    2.1776379   0.12205758 
   62900   -953.34617    37.128447   -916.21772    1329.8063    -588.5752    2.1952103    3.0836626   0.12820767 
   63000   -952.65242    40.326242   -912.32618    1444.3398   -15034.267    2.1548631    1.8365574   0.12093261 
   63100   -951.39342    41.249284   -910.14414    1477.3998   -7568.7418    2.1713629    1.4982476   0.12048616 
   63200   -954.27311    36.358596   -917.91452    1302.2331    14942.531    2.2362327    1.7788591   0.11008194 
   63300   -953.27506    40.759881   -912.51518    1459.8711    9862.4519    2.2186509    1.7446092   0.11018234 
   63400   -950.46916    38.115467    -912.3537    1365.1578   -4456.9978    2.1777986    2.4050156   0.12101159 
   63500   -951.36661    32.178462   -919.18815    1152.5158    -5607.504    2.1776598    1.5238229   0.11962609 
   63600   -954.23692    39.976541   -914.26038    1431.8147    -1851.077    2.1928864    1.8032356    0.1093225 
   63700   -954.25101    43.031298   -911.21971    1541.2251    7563.6563    2.2102045    2.2861667   0.11953979 
   63800   -955.08204    37.926911   -917.15513    1358.4044     4672.376    2.2091153    2.1016972   0.11003737 
   63900   -953.30201    39.865461   -913.43655    1427.8362   -2336.6339    2.1828642    2.0163274   0.11006394 
   64000   -954.41897    43.708628   -910.71034    1565.4846   -6640.9392    2.1733124    2.5597384   0.12516325 
   64100   -953.42058    37.391123   -916.02945    1339.2144    866.64441    2.1966152    2.2242125   0.12902465 
   64200   -953.57827    40.061892   -913.51638    1434.8717    7462.0508    2.2103486    2.1018021   0.11944949 
   64300   -949.48959    40.975734   -908.51386    1467.6022    3067.9256    2.1928435    2.1920877   0.13937866 
   64400   -952.77102    36.865451   -915.90557    1320.3868   -4644.9814    2.1854273    1.5200723   0.11740401 
   64500   -954.25165    40.309709   -913.94194    1443.7476   -7665.8438    2.1801961    1.8161328    0.1247176 
   64600   -951.97621    44.019391   -907.95681    1576.6149    1169.7994     2.190219    1.8985631   0.12353383 
   64700   -955.05291    38.937634   -916.11528    1394.6048     12339.38    2.2274568    1.7137949   0.11711327 
   64800   -950.04084    35.555258   -914.48558    1273.4604    5811.2185    2.2030254    2.2921114   0.12878551 
   64900   -949.47934    38.406472   -911.07287    1375.5805   -16197.471    2.1481362    1.8310508   0.13351817 
   65000   -955.21536    38.731616   -916.48375     1387.226   -14795.691    2.1628698    1.8513366   0.11883557 
   65100   -955.89317     39.12933   -916.76384    1401.4707    9465.1817    2.2242791    1.9963803   0.10769402 
   65200   -950.02599    39.098404   -910.92758     1400.363    13490.957    2.2263845    2.3896266   0.12432936 
   65300   -952.29214    37.659823   -914.63231    1348.8383    347.16292     2.194767    1.6776396   0.14208082 
   65400   -955.58583    35.828952   -919.75688    1283.2631   -6905.2271    2.1840842    1.9778899   0.12633998 
   65500   -950.66168    38.472352   -912.18933    1377.9401   -3517.7278    2.1807678    1.5275715   0.12389827 
   65600    -954.5119    41.490356   -913.02154    1486.0341    5304.1172    2.2088169    1.8935497   0.11369908 
   65700   -958.52748     40.32538    -918.2021    1444.3089    5248.2273    2.2181093    2.5067575   0.11038794 
   65800   -949.32213    39.379116   -909.94302    1410.4171    -2207.795    2.1827786    2.0985146   0.12981683 
   65900   -952.36208     39.60028    -912.7618    1418.3384   -5285.0698    2.1793395    1.7906466   0.13437938 
   66000   -955.98334    39.473049   -916.51029    1413.7815   -1841.6632    2.1962242    1.9941434   0.11439905 
   66100   -949.47498    39.136004   -910.33898    1401.7097    7480.6689    2.2040762     1.874004   0.11887633 
   66200   -950.88752    40.462361   -910.42516     1449.215    4484.9293    2.1993895    1.7884962   0.12938199 
   66300   -955.75099    39.673805   -916.07719    1420.9718   -5313.0316    2.1848049    1.5630687   0.12389739 
   66400   -952.63056     40.79397   -911.83659    1461.0921   -6317.6893     2.173873    1.3598083   0.12963723 
   66500   -951.08056    42.115872   -908.96468    1508.4378    439.57393     2.190028    1.8809472    0.1303078 
   66600   -954.01585    38.154974   -915.86087    1366.5728    10235.013    2.2229488     2.225644   0.13191445 
   66700   -951.96061    39.347162   -912.61344    1409.2727    6164.6404    2.2061332    2.2676554   0.12477026 
   66800   -950.33176    39.833441   -910.49832    1426.6894   -7857.9561     2.163089    2.1216491   0.13038491 
   66900   -954.60361    35.682235   -918.92138    1278.0083   -8773.5677    2.1753363    1.9518024   0.11623303 
   67000   -953.13225    38.649299   -914.48295    1384.2777    7172.8717    2.2103361    2.1474289   0.10900673 
   67100   -950.14968    39.885748   -910.26394    1428.5628    15541.941    2.2232735    1.3885424   0.12492955 
   67200   -954.38185     37.08663   -917.29522    1328.3086    2686.2922      2.20231    2.3889329    0.1124836 
   67300   -957.76112     41.60784   -916.15328    1490.2419   -12234.509    2.1730787    1.6379651   0.11667611 
   67400   -953.57622     42.05103   -911.52519    1506.1154    -5655.526    2.1793966    1.2546047   0.11081565 
   67500   -955.57186    39.713786   -915.85807    1422.4038    2026.6849    2.2070294    1.6556496   0.12730877 
   67600   -956.63096    38.943249   -917.68772    1394.8059    5896.9866    2.2150069    2.0655597   0.13635144 
   67700   -955.18277    44.852931   -910.32984    1606.4693   -4943.9162    2.1852312    2.1858327   0.13596752 
   67800    -954.1354    39.232287   -914.90311    1405.1582   -3981.1349    2.1848312    2.0691496   0.12820209 
   67900    -953.9744    37.470604    -916.5038    1342.0611   -1020.3131    2.1958927    1.5257048   0.11272857 
   68000    -952.5589    44.051969   -908.50693    1577.7818    105.68888    2.1931357    1.5895065   0.12634012 
   68100   -955.29204    41.365498   -913.92655    1481.5621    4360.8204      2.20783    2.2102035   0.11526579 
   68200    -957.1282    41.092468   -916.03573    1471.7832   -521.07509    2.2010364    1.2406539   0.11336011 
   68300   -947.48193    39.368767   -908.11316    1410.0464   -4214.6644    2.1722915    1.7863736   0.12996639 
   68400   -956.49156    42.854299   -913.63726    1534.8856   -4177.5667    2.1876223    1.8743079   0.11389177 
   68500   -954.78495    39.393828   -915.39112    1410.9441    5339.4618    2.2128898    2.1074577   0.12571436 
   68600   -950.05294    41.026845   -909.02609    1469.4328    8724.1247     2.213422     2.705409   0.15736629 
   68700   -953.93394    40.070923   -913.86301    1435.1951   -2937.6018    2.1914912    2.5454794   0.14932858 
   68800   -952.20858    35.281684    -916.9269     1263.662   -13618.284    2.1625992    2.1769611   0.13051905 
   68900   -949.32998    38.078884   -911.25109    1363.8475   -4610.7512    2.1789258    1.5954389   0.13300466 
   69000   -955.83794    42.043538    -913.7944    1505.8471    11320.401    2.2272789    1.5338336   0.12268619 
   69100   -957.07979    39.627014   -917.45278    1419.2959     11048.27    2.2286032    1.9281365   0.11695356 
   69200   -950.76123    39.138247   -911.62299    1401.7901   -3817.6947    2.1834495    2.4600556   0.14340046 
   69300   -953.42517    39.825989   -913.59918    1426.4225   -9241.1027    2.1741578    1.3630384   0.12224195 
   69400    -954.9366    36.498112   -918.43848      1307.23    1497.9118    2.2042635    1.7789481   0.12418023 
   69500   -950.69137    40.200391   -910.49098    1439.8322     4250.131    2.2018969     2.203994   0.14001962 
   69600   -953.13057    39.914062    -913.2165     1429.577    2905.5709    2.2045197    1.3339289   0.12769051 
   69700   -957.86845    40.103673   -917.76477    1436.3681   -2842.2755     2.198336    2.6429088   0.13809262 
   69800   -951.88818    42.096596   -909.79159    1507.7474   -6253.3025    2.1769799    1.0801914   0.14095499 
   69900   -952.49991      39.2883   -913.21161    1407.1644     2649.169    2.1984867    1.8867883   0.13120309 
   70000   -955.89923    39.776508   -916.12273    1424.6503    6121.8717    2.2153872    2.0100111      0.12371 
   70100   -949.76567    40.837085   -908.92858    1462.6363    3529.0711    2.1942401     1.737685   0.13306427 
   70200   -951.59879    38.478345   -913.12044    1378.1548   -3530.7151    2.1826656    1.8546083   0.13304777 
   70300   -953.31527    36.761619   -916.55366    1316.6679   -5179.5145    2.1837742    1.9883669   0.12450735 
   70400   -951.34649    41.408051   -909.93844    1483.0862    2144.2283    2.1954658    2.0360904    0.1397617 
   70500   -951.09748    37.958079    -913.1394    1359.5207    14802.465    2.2287991    1.3871231   0.13329622 
   70600   -956.74497    40.287873   -916.45709    1442.9655    2881.6879     2.207673    2.5430461   0.11793666 
   70700   -950.84516    38.974213   -911.87095     1395.915   -12785.654    2.1592617    1.2959659   0.13557925 
   70800   -949.11677    37.968464   -911.14831    1359.8927   -8867.7213    2.1666435    2.2491019    0.1370275 
   70900   -955.77376    38.195701   -917.57806    1368.0315    9611.2652    2.2259056    2.0106863   0.12598195 
[...]
  186800   -952.14917    42.494513   -909.65466    1521.9993    1770.8308    2.1953459    1.6270048   0.12903518 
  186900   -954.47517    38.726991   -915.74818    1387.0604    9515.5297    2.2187345    1.6484532   0.11131192 
  187000   -955.86322    40.404862   -915.45836    1447.1556    697.96987    2.2013799    1.8624939   0.11228284 
  187100    -952.4006    42.441817   -909.95879     1520.112   -9685.2395    2.1682047    1.0859545   0.13315517 
  187200   -958.14632    41.133679   -917.01264    1473.2592   -6423.2528    2.1870474    1.6125591   0.12238673 
  187300   -955.28929    40.592612   -914.69668    1453.8801    3148.1697    2.2069766    1.8329696   0.13794573 
  187400   -952.40452    43.189058   -909.21546    1546.8754    3828.5669    2.2037539    1.6595045   0.14140455 
  187500   -954.70605    38.105598   -916.60045    1364.8043   -554.76051    2.1996604     1.550169   0.13402176 
  187600   -952.74271    38.269551   -914.47316    1370.6765    -6642.357     2.177711    1.7186859   0.14516966 
  187700   -950.70485    40.439498   -910.26535    1448.3962   -3821.1581    2.1773907    1.1634964   0.12755986 
  187800   -955.89291    38.428051   -917.46486    1376.3534    5786.0572    2.2160885     3.564664   0.12576458 
  187900   -953.52942    39.630799   -913.89862    1419.4315    10155.656    2.2206951    1.2830447   0.11472026 
  188000   -950.85638    40.012854   -910.84353    1433.1153   -2091.2193    2.1846135    1.8610062   0.12440554 
  188100   -953.09527    35.472717   -917.62255    1270.5041   -11255.834    2.1649374   0.87680177   0.12669859 
  188200    -955.9146    41.561672   -914.35292    1488.5884   -8169.7905    2.1756454    1.5732854   0.11499785 
  188300   -951.50358    42.147798   -909.35578    1509.5813    12347.601      2.21786    1.5531003    0.1319233 
  188400   -956.77636    41.269167   -915.50719    1478.1119    12218.452    2.2286454    1.8463421   0.12756409 
  188500   -950.37569    35.130897   -915.24479    1258.2613   -1896.1719    2.1824706    1.2986324   0.13341333 
  188600   -950.85985    40.861573   -909.99828    1463.5134   -9542.9354    2.1647176    1.6505364   0.13128924 
  188700   -951.62832    35.264058   -916.36427    1263.0307    1704.9089    2.1959218    1.7625898   0.11564092 
  188800   -955.81392    41.380641   -914.43328    1482.1045    1646.7261    2.2038153    1.9877046   0.11759058 
  188900   -951.08773    41.966263   -909.12147    1503.0793    1174.8887    2.1917994     2.164067   0.12747028 
  189000   -955.58703    39.062564   -916.52446    1399.0794   -2462.3159    2.1945728   0.97790555   0.11321922 
  189100    -952.0027    38.277532   -913.72517    1370.9624   -147.92044      2.18948    1.9813879   0.10440725 
  189200   -950.96849    41.934781   -909.03371    1501.9518     678.6114    2.1870546    2.5699024   0.11747259 
  189300   -953.65725    36.754323   -916.90292    1316.4066    6012.2407    2.2119266    1.4201144   0.12609023 
  189400   -952.27696    38.501102   -913.77586    1378.9698     2602.303    2.1999099    2.1168177   0.13523567 
  189500   -952.80895    42.302598   -910.50635    1515.1256   -6529.1463    2.1795513    1.9738245   0.14148011 
  189600   -956.73724     38.53698   -918.20026    1380.2549   -4104.0613    2.1934284    2.2091978   0.12667794 
  189700   -955.39667    41.731021   -913.66565    1494.6538   -1391.5005    2.1963857    1.4470211   0.11891717 
  189800   -953.65341    43.006242   -910.64716    1540.3276    4910.7823    2.2062715    2.3418137   0.12495172 
  189900    -955.0124    37.389441   -917.62296    1339.1542    2920.0125    2.2050221    1.3697397   0.10761738 
  190000   -953.29766    40.772081   -912.52558    1460.3081   -7922.0822    2.1744713    1.5354799    0.1155288 
  190100   -950.92478    39.252817   -911.67197    1405.8935   -4865.1741    2.1765787     1.750921   0.11412253 
  190200   -954.59398    37.685114   -916.90887    1349.7441    6072.0221    2.2138326     1.416539   0.11424227 
  190300   -953.78406    42.006454    -911.7776    1504.5189    10464.825    2.2214992    1.5336002   0.11284346 
  190400   -951.92712    40.855935   -911.07119    1463.3114   -2072.8013    2.1864461    1.2450784   0.12062358 
  190500    -954.0356    36.572579   -917.46302    1309.8972   -10537.551    2.1696767    2.0429311   0.14456157 
  190600   -950.48479    37.820248   -912.66454    1354.5841    -3233.887    2.1787855    1.7766464      0.13067 
  190700   -955.19462    45.843765   -909.35086    1641.9574    5944.2888    2.2085941    1.3032792   0.12724636 
  190800   -956.48838    40.023697   -916.46469    1433.5037    8403.0371    2.2208188    1.2694519   0.11690561 
  190900   -951.11306    38.398374   -912.71469    1375.2905   -627.77772    2.1860415    1.4638093   0.11737163 
  191000   -949.46251    38.708637   -910.75388     1386.403    -5912.434    2.1698752    2.5352374   0.13107743 
  191100   -955.27412    37.354689   -917.91943    1337.9095    796.08338    2.1982304     1.892476   0.11323034 
  191200   -954.22977     41.87471   -912.35506    1499.8003    3192.7316    2.2025195    1.0057165   0.10881564 
  191300   -953.35351    41.791119   -911.56239    1496.8063    545.90648    2.1961538     1.091538   0.12553827 
  191400   -954.47631    36.004512    -918.4718    1289.5511   -901.73411    2.1962454    1.6508454   0.11788063 
  191500   -953.27686    40.914344   -912.36252    1465.4034   -3857.6383    2.1830433    1.7308188   0.12577647 
  191600   -953.45482    41.778699   -911.67612    1496.3615    564.39464    2.1929332    2.1107351   0.12901831 
  191700   -957.96026    39.970512   -917.98975    1431.5988    2629.3031    2.2091487    1.9426637   0.11802775 
  191800   -951.81527    40.609514   -911.20576    1454.4855    810.97296    2.1929651    1.9660606   0.12731713 
  191900   -952.23276    39.823291   -912.40947    1426.3259   -2777.3027    2.1860691     1.279486   0.12825211 
  192000   -955.64554    37.848667   -917.79687     1355.602   -3464.4629    2.1948124    1.0259916   0.10845422 
  192100   -952.16336    41.468202   -910.69516    1485.2406    1924.4688    2.1954188    1.0641604   0.11581908 
  192200   -951.92459    39.806033   -912.11856    1425.7077    8889.8972    2.2109081    1.6313157   0.12229179 
  192300    -957.9575    40.978717   -916.97879     1467.709   -1482.1108    2.2011922    1.3565085   0.10492109 
  192400   -950.89616    40.693178   -910.20299     1457.482   -9997.9584    2.1634781    1.7013909   0.12192392 
  192500   -951.87579    39.493628   -912.38217    1414.5185   -6971.6272    2.1754144     2.527429     0.126273 
  192600   -955.08187    38.904937   -916.17694    1393.4338    6173.8986    2.2160429    1.9656951   0.12027526 
  192700   -951.97514    42.065249   -909.90989    1506.6247    10593.284    2.2188697    2.2913086   0.13380243 
  192800   -956.84045     44.39138   -912.44907    1589.9383     -2208.03    2.1928202    1.9582648   0.11182689 
  192900   -958.66062    41.059354   -917.60127    1470.5972   -11337.548     2.178071    1.7677328    0.1130033 
  193000   -948.46569    36.820842   -911.64485     1318.789   -3376.5488    2.1810524    1.4838317   0.13748317 
  193100   -948.73154    36.258928   -912.47262    1298.6633    8489.4838    2.2079406     1.401081    0.1327896 
  193200    -956.3531    38.681873   -917.67123    1385.4444    8148.2505    2.2210043    1.4906699   0.12066253 
  193300   -949.87678    38.634841   -911.24194    1383.7599     282.1037    2.1896843     1.738551   0.12212136 
  193400   -951.10246    37.478481   -913.62398    1342.3433   -5045.5674    2.1785531    2.9972164   0.12215159 
  193500   -953.86515     35.65254   -918.21261    1276.9447   -172.48276    2.1962396    2.3882273   0.10894217 
  193600   -951.35865    40.816007   -910.54264    1461.8813    2704.1931    2.1986519    2.8744355   0.12907287 
  193700   -953.57559    40.076328   -913.49926    1435.3887    4437.9626    2.2030735    1.6194044   0.10359729 
  193800   -956.80715    39.002416   -917.80473    1396.9251   -1481.2753    2.1978567     1.987917    0.1102884 
  193900   -948.61657     38.91739   -909.69918    1393.8798   -2228.2326     2.179602    1.6862945    0.1293949 
  194000   -956.53594    43.109753   -913.42619     1544.035   -326.74889    2.1960097    1.6056692   0.10920028 
  194100   -956.57881    40.191188   -916.38762    1439.5026    2446.1909    2.2033782    1.2995207   0.10657663 
  194200    -952.6884    43.443041   -909.24536    1555.9722   -1832.1175    2.1868338    1.1860855   0.11303036 
  194300    -952.7159     38.98615   -913.72975    1396.3425    340.89896     2.189865    3.0355329   0.11535474 
  194400   -954.08452    37.824553   -916.25997    1354.7383   -1594.6763    2.1934679    1.7466062   0.12859832 
  194500   -947.83799    38.249692    -909.5883    1369.9652    2276.5095    2.1883538    2.6561273   0.13507348 
  194600   -954.90714    40.023644    -914.8835    1433.5018    1895.9106    2.2010362    1.7509435   0.11423112 
  194700   -954.86187    38.603228   -916.25864    1382.6276    665.74216    2.1976782    2.0527993   0.11491139 
  194800   -951.65319    40.964732   -910.68845    1467.2082   -1515.3409    2.1859702    1.5061731   0.11687215 
  194900   -957.99654    41.919809   -916.07673    1501.4155   -3504.0953    2.1955362    1.7140987   0.11844422 
  195000   -956.80497    39.912284   -916.89268    1429.5133    171.95732    2.2018544    1.4325263   0.11821918 
  195100   -950.94105    39.991414   -910.94964    1432.3474    1632.7609    2.1937989    1.3711775   0.10689524 
  195200   -952.96799    37.157492    -915.8105    1330.8466    940.28569    2.1980446      1.80862   0.12320906 
  195300   -954.84225    37.258455   -917.58379    1334.4627   -2204.9854    2.1973164    1.0384213   0.12899583 
  195400   -953.33572    42.418511   -910.91721    1519.2772   -3498.1669    2.1860661    2.2545403   0.14322518 
  195500   -951.91841      36.5842   -915.33421    1310.3134     1044.859    2.1976585    1.5421521   0.14130192 
  195600   -956.49948    39.165243   -917.33423     1402.757    1850.6071    2.2071646    1.5069599   0.12915646 
  195700   -952.58759    42.908654   -909.67893    1536.8324   -87.036203    2.1902909    1.6944592   0.12070507 
  195800   -952.93508    38.054725   -914.88036    1362.9822   -797.54002     2.190854    2.1294631    0.1184619 
  195900   -952.70681    36.495029   -916.21178    1307.1196    210.39981    2.1940861    2.4611882    0.1297959 
  196000   -952.15305    43.696544    -908.4565    1565.0517   -1476.8083     2.187205    1.7964055   0.12586184 
  196100   -954.11442     39.65642     -914.458    1420.3492    5506.1467    2.2087611    1.4896509   0.11696142 
  196200   -955.49296    39.624085   -915.86887     1419.191    330.68618    2.2040096    2.1047557    0.1193196 
  196300   -948.77762    40.149907   -908.62771     1438.024    -4708.891    2.1743014    1.8233081   0.13090835 
  196400     -957.206    42.130375   -915.07562    1508.9572   -7246.8011    2.1847552    2.0624863   0.13402723 
  196500   -953.73504    38.124276   -915.61076    1365.4733    1836.3378    2.2013198    1.6767907   0.13348156 
  196600    -952.6003    43.096138   -909.50417    1543.5474     5185.114    2.2063425     1.569516   0.14963592 
  196700   -955.20755    39.951784   -915.25576     1430.928    2868.5676    2.2065563    2.2057041   0.13364856 
  196800   -956.73106    40.000616   -916.73045     1432.677   -8277.8068    2.1802012    1.9081402    0.1261917 
  196900   -952.86397    41.473561   -911.39041    1485.4325   -8409.6092    2.1694526    1.5767227   0.12471741 
  197000   -954.14737    38.999378   -915.14799    1396.8163    4628.1371    2.2066738    2.3542664   0.10486827 
  197100   -956.03517    38.976971    -917.0582    1396.0138    12602.133    2.2314554    1.2043691   0.12041873 
  197200   -951.88786    40.843231   -911.04463    1462.8564    2328.5369    2.1971618    1.7372831   0.13335799 
  197300   -951.40486    36.825217   -914.57964    1318.9457   -9422.4496    2.1679486    2.5891209   0.13956339 
  197400   -958.05218    39.631334   -918.42084    1419.4507   -9017.6919    2.1829865    1.5223164   0.12792235 
  197500   -951.59468    41.082086   -910.51259    1471.4113    4819.2621    2.1989063    1.8084377   0.12021593 
  197600   -952.88298    39.665397   -913.21759    1420.6707    7914.2922    2.2132227    2.0907273   0.13023148 
  197700   -953.52708    35.850846   -917.67624    1284.0473    2383.5403    2.2039553    1.8369351   0.13221079 
  197800   -951.38481    41.877208    -909.5076    1499.8897   -6236.7336    2.1778758    2.0098227   0.14388478 
  197900   -952.56804    39.431066   -913.13697    1412.2778   -486.03595    2.1934063    2.0459253   0.13279145 
  198000   -957.27827    41.305265     -915.973    1479.4048     3024.108    2.2096901    1.7369569    0.1155994 
  198100   -952.16453    43.370926   -908.79361    1553.3893    1794.8152    2.1967004     1.963344    0.1250016 
  198200    -953.7585    41.081199    -912.6773    1471.3796    -1512.808     2.189723    2.2900903    0.1172665 
  198300   -951.91134    35.620893   -916.29045    1275.8112   -2740.9964    2.1896596    1.9500009   0.14366502 
  198400   -952.50498    42.426994   -910.07798     1519.581    572.71652    2.1918315     2.156597   0.12686448 
  198500   -954.86623    42.360511   -912.50571    1517.1999    4153.7454    2.2087454    1.8402519   0.11810587 
  198600   -956.01617    39.444869   -916.57131    1412.7722    493.78775    2.2045357    1.7305711   0.11875665 
  198700     -956.108    44.287585   -911.82042    1586.2207   -5757.9144     2.184048    2.0981947   0.12755391 
  198800   -952.90734    41.182641    -911.7247    1475.0129   -5792.9748    2.1804761    2.5631425   0.13875103 
  198900   -958.49067    40.195189   -918.29548    1439.6459    2923.3897     2.214681    2.9281237   0.12462267 
  199000   -954.33901    42.473842   -911.86517     1521.259    9290.3267    2.2228386    2.1884333    0.1400335 
  199100   -951.40916     38.44349   -912.96567    1376.9064    2816.5536    2.1998758    1.7401505   0.13223457 
  199200    -954.2763    34.645208   -919.63109    1240.8657   -9301.4239    2.1777274    1.8784632   0.13562938 
  199300   -953.35371    40.163377   -913.19033    1438.5065   -8450.9292     2.173097    2.5940847   0.13103347 
  199400   -951.56628    39.998797   -911.56748    1432.6118    8825.1233    2.2129361    1.6361708    0.1198625 
  199500   -955.30369    37.658124   -917.64556    1348.7774    11626.518    2.2295932    2.0023603   0.12835287 
  199600   -954.23155    42.762522   -911.46903    1531.5985   -3328.9512    2.1885062    2.2595231   0.12236208 
  199700   -950.29202     38.57462    -911.7174     1381.603   -5286.8651    2.1737833    2.5027263   0.12167726 
  199800   -953.01663    36.400995   -916.61563    1303.7516    -1459.995    2.1911236    2.6708269   0.13722944 
  199900   -952.41273    39.924724   -912.48801    1429.9588     5708.691    2.2064142    0.9544145    0.1424405 
  200000    -950.8489    41.239925   -909.60897    1477.0645    4531.5489    2.1997631    1.5507323    0.1301792 
  200100   -957.09426    40.989296   -916.10496    1468.0879   -4468.5892    2.1923847    1.8325056   0.12507798 
  200200   -955.13879    42.256144   -912.88264    1513.4619   -5708.4063    2.1813196    1.4078129   0.12813435 
  200300   -950.87737    42.422877   -908.45449    1519.4336   -2928.7841    2.1810061    2.0310157   0.12521929 
  200400   -955.00337     38.67026   -916.33311    1385.0285    4302.9087    2.2091901    1.6151174   0.12169376 
  200500   -951.61211    38.266206   -913.34591    1370.5567    3681.0553     2.200352    2.3300544   0.12265698 
  200600   -952.08798    42.255218   -909.83276    1513.4287   -4016.0207    2.1779385    1.5092198   0.11511764 
  200700   -957.39338    39.027531   -918.36585    1397.8246   -4297.4102    2.1930163    1.6757873   0.11077517 
  200800   -953.82218    39.372149   -914.45003    1410.1676    448.65633    2.1944623    1.4905642   0.12314159 
  200900   -951.63422    40.803453   -910.83076    1461.4317    4676.3365    2.1988501    2.1877546   0.13719129 
  201000   -956.15215    37.655539   -918.49661    1348.6849     1334.097     2.206753    2.0412522    0.1313287 
  201100    -951.3589    36.068682   -915.29022    1291.8494   -3583.1041    2.1808756    1.5161624    0.1292892 
  201200   -953.72896     41.90609   -911.82287    1500.9242    -7572.851    2.1737864    1.6774369   0.12577555 
  201300   -956.90916    40.737659    -916.1715    1459.0752    7410.4592    2.2179485    1.6088828   0.11220677 
  201400    -954.3241    37.449003   -916.87509    1341.2875    16334.954    2.2413693    2.1271185   0.13369365 
  201500    -950.7072    39.859845   -910.84735    1427.6351   -1172.8628    2.1875145    2.0927588   0.13151923 
  201600   -954.64598    39.554184    -915.0918    1416.6874   -15589.613    2.1597469    2.0504805   0.12481705 
  201700    -956.9641    40.173098     -916.791    1438.8547   -6478.7226    2.1885046    2.3584873   0.12498436 
  201800   -951.08663    42.289321   -908.79731    1514.6501    7530.4423    2.2085354    1.6367404   0.11441128 
  201900   -955.33508     41.83379   -913.50129    1498.3346    7785.6117    2.2191379    2.4265835   0.12646378 
  202000   -954.68495    37.925473   -916.75948    1358.3529   -1176.1958    2.1964845    1.2194795   0.13430833 
  202100   -950.43223    41.558099   -908.87414    1488.4604   -9891.1475    2.1652187    2.5482129   0.14227852 
  202200   -947.12863    33.249803   -913.87883    1190.8874    4040.3598    2.1926329    1.9346833   0.14122153 
  202300   -952.92066    37.694246   -915.22641    1350.0712    7375.1541    2.2158892    1.5958386   0.11794794 
  202400   -952.05261    42.487009    -909.5656    1521.7306    4791.6834    2.2034514    1.5143927   0.12715074 
  202500   -951.52201    38.430289   -913.09173    1376.4336   -4578.7486    2.1831409    1.5457859   0.13323375 
  202600   -953.54592    36.755289   -916.79063    1316.4412   -5827.3075    2.1820744    1.4320177    0.1234414 
  202700   -952.67811    41.490052   -911.18806    1486.0232    2156.1633    2.1961285    1.5906933   0.12198049 
  202800   -953.40766    39.595823   -913.81184    1418.1788    7967.7943     2.215791     1.912769   0.11240964 
  202900   -955.29649    37.462461   -917.83403    1341.7695    2888.6398      2.20825    1.5174241   0.12183716 
  203000   -953.69996    41.644169   -912.05579    1491.5431   -7750.6502     2.178824    2.2173602   0.11701751 
  203100   -949.58115    36.441383   -913.13977    1305.1982   -4679.2126    2.1783334    1.5867227   0.13609918 
  203200     -954.287    35.450774   -918.83622    1269.7182    7295.1835    2.2177883    2.2817577   0.13190475 
Loop time of 144.317 on 1 procs for 200000 steps with 217 atoms

Performance: 359.208 ns/day, 0.067 hours/ns, 1385.835 timesteps/s
100.0% CPU use with 1 MPI tasks x no OpenMP threads

MPI task timing breakdown:
Section |  min time  |  avg time  |  max time  |%varavg| %total
---------------------------------------------------------------
Pair    | 140.89     | 140.89     | 140.89     |   0.0 | 97.62
Neigh   | 0.31826    | 0.31826    | 0.31826    |   0.0 |  0.22
Comm    | 0.86428    | 0.86428    | 0.86428    |   0.0 |  0.60
Output  | 0.071319   | 0.071319   | 0.071319   |   0.0 |  0.05
Modify  | 1.8639     | 1.8639     | 1.8639     |   0.0 |  1.29
Other   |            | 0.3119     |            |       |  0.22

Nlocal:    217 ave 217 max 217 min
Histogram: 1 0 0 0 0 0 0 0 0 0
Nghost:    957 ave 957 max 957 min
Histogram: 1 0 0 0 0 0 0 0 0 0
Neighs:    4256 ave 4256 max 4256 min
Histogram: 1 0 0 0 0 0 0 0 0 0
FullNghs:  8512 ave 8512 max 8512 min
Histogram: 1 0 0 0 0 0 0 0 0 0

Total # of neighbors = 8512
Ave neighs/atom = 39.2258
Neighbor list builds = 535
Dangerous builds = 1
Total wall time: 0:02:26
