
     Program PWSCF v.6.4.1 starts on 14Dec2020 at  2:48:31 

     This program is part of the open-source Quantum ESPRESSO suite
     for quantum simulation of materials; please cite
         "P. Giannozzi et al., J. Phys.:Condens. Matter 21 395502 (2009);
         "P. Giannozzi et al., J. Phys.:Condens. Matter 29 465901 (2017);
          URL http://www.quantum-espresso.org", 
     in publications or presentations arising from this work. More details at
     http://www.quantum-espresso.org/quote

     Parallel version (MPI), running on     1 processors

     MPI processes distributed on     1 nodes
     Waiting for input...
     Reading input from standard input
Warning: card &IONS ignored
Warning: card / ignored
Warning: card &CELL ignored
Warning: card / ignored

     Current dimensions of program PWSCF are:
     Max number of different atomic species (ntypx) = 10
     Max number of k-points (npk) =  40000
     Max angular momentum in pseudopotentials (lmaxx) =  3

     Subspace diagonalization in iterative solution of the eigenvalue problem:
     a serial algorithm will be used


     G-vector sticks info
     --------------------
     sticks:   dense  smooth     PW     G-vecs:    dense   smooth      PW
     Sum         749     749    241                15515    15515    2721



     bravais-lattice index     =            0
     lattice parameter (alat)  =       8.8817  a.u.
     unit-cell volume          =     700.6323 (a.u.)^3
     number of atoms/cell      =           10
     number of atomic types    =            4
     number of electrons       =        32.00
     number of Kohn-Sham states=           16
     kinetic-energy cutoff     =      30.0000  Ry
     charge density cutoff     =     120.0000  Ry
     convergence threshold     =      1.0E-07
     mixing beta               =       0.5000
     number of iterations used =            8  plain     mixing
     Exchange-correlation      =  SLA  PW   PBX  PBC ( 1  4  3  4 0 0)

     celldm(1)=   8.881713  celldm(2)=   0.000000  celldm(3)=   0.000000
     celldm(4)=   0.000000  celldm(5)=   0.000000  celldm(6)=   0.000000

     crystal axes: (cart. coord. in units of alat)
               a(1) = (   1.000000   0.000000   0.000000 )  
               a(2) = (   0.000000   1.000000   0.000000 )  
               a(3) = (   0.000000   0.000000   1.000000 )  

     reciprocal axes: (cart. coord. in units 2 pi/alat)
               b(1) = (  1.000000  0.000000  0.000000 )  
               b(2) = (  0.000000  1.000000  0.000000 )  
               b(3) = (  0.000000  0.000000  1.000000 )  


     PseudoPot. # 1 for B  read from file:
     /home/modeler/qe_pseudo/b_pbe_v1.4.uspp.F.UPF
     MD5 check sum: cc6de2960df11db49a60e589f9ebb39b
     Pseudo is Ultrasoft + core correction, Zval =  3.0
     Generated by new atomic code, or converted to UPF format
     Using radial grid of  781 points,  4 beta functions with: 
                l(1) =   0
                l(2) =   0
                l(3) =   1
                l(4) =   1
     Q(r) pseudized with  8 coefficients,  rinner =    1.100   1.100   1.100


     PseudoPot. # 2 for H  read from file:
     /home/modeler/qe_pseudo/H.pbe-rrkjus_psl.1.0.0.UPF
     MD5 check sum: f52b6d4d1c606e5624b1dc7b2218f220
     Pseudo is Ultrasoft, Zval =  1.0
     Generated using "atomic" code by A. Dal Corso v.5.1
     Using radial grid of  929 points,  2 beta functions with: 
                l(1) =   0
                l(2) =   0
     Q(r) pseudized with 0 coefficients 


     PseudoPot. # 3 for N  read from file:
     /home/modeler/qe_pseudo/N.pbe-n-radius_5.UPF
     MD5 check sum: 16739722b17309cd8fe442a2ace49922
     Pseudo is Ultrasoft + core correction, Zval =  5.0
     Generated using "atomic" code by A. Dal Corso v.5.1
     Using radial grid of 1085 points,  4 beta functions with: 
                l(1) =   0
                l(2) =   0
                l(3) =   1
                l(4) =   1
     Q(r) pseudized with 0 coefficients 


     PseudoPot. # 4 for Na read from file:
     /home/modeler/qe_pseudo/na_pbe_v1.5.uspp.F.UPF
     MD5 check sum: 44600605ef58000f06b90626533354dc
     Pseudo is Ultrasoft, Zval =  9.0
     Generated by new atomic code, or converted to UPF format
     Using radial grid of  819 points,  5 beta functions with: 
                l(1) =   0
                l(2) =   0
                l(3) =   1
                l(4) =   1
                l(5) =   2
     Q(r) pseudized with  8 coefficients,  rinner =    1.250   1.250   1.250
                                                       1.250   1.250

     atomic species   valence    mass     pseudopotential
        B              3.00    10.81000     B ( 1.00)
        H              1.00     1.00800     H ( 1.00)
        N              5.00    14.00700     N ( 1.00)
        Na             9.00    22.98977     Na( 1.00)

     No symmetry found



   Cartesian axes

     site n.     atom                  positions (alat units)
         1           Na  tau(   1) = (   0.5000000   0.0000000   0.5000000  )
         2           Na  tau(   2) = (   0.0000000   0.5000000   0.5000000  )
         3           N   tau(   3) = (   0.5000000   0.5000000   0.5000000  )
         4           H   tau(   4) = (   0.6965851   0.5000000   0.4304957  )
         5           H   tau(   5) = (   0.4017064   0.6702489   0.4304957  )
         6           B   tau(   6) = (   0.0000000   0.0000000   0.0000000  )
         7           H   tau(   7) = (   0.2347000   0.0000000  -0.0829787  )
         8           H   tau(   8) = (  -0.1173489   0.2032553  -0.0829787  )
         9           H   tau(   9) = (  -0.1173489  -0.2032553  -0.0829787  )
        10           H   tau(  10) = (   0.0000000   0.0000000   0.2489362  )

     number of k points=     8
                       cart. coord. in units 2pi/alat
        k(    1) = (   0.0000000   0.0000000   0.0000000), wk =   0.2500000
        k(    2) = (   0.0000000   0.0000000  -0.5000000), wk =   0.2500000
        k(    3) = (   0.0000000  -0.5000000  -0.5000000), wk =   0.2500000
        k(    4) = (  -0.5000000  -0.5000000  -0.5000000), wk =   0.2500000
        k(    5) = (  -0.5000000   0.0000000   0.0000000), wk =   0.2500000
        k(    6) = (   0.0000000  -0.5000000   0.0000000), wk =   0.2500000
        k(    7) = (  -0.5000000   0.0000000   0.5000000), wk =   0.2500000
        k(    8) = (  -0.5000000   0.5000000   0.0000000), wk =   0.2500000

     Dense  grid:    15515 G-vectors     FFT dimensions: (  32,  32,  32)

     Estimated max dynamical RAM per process >      51.41 MB

     Check: negative core charge=   -0.000013

     Initial potential from superposition of free atoms

     starting charge   31.98707, renormalised to   32.00000
     Starting wfcs are   24 randomized atomic wfcs

     total cpu time spent up to now is        1.3 secs

     Self-consistent Calculation

     iteration #  1     ecut=    30.00 Ry     beta= 0.50
     Davidson diagonalization with overlap
     ethr =  1.00E-02,  avg # of iterations =  2.0

     total cpu time spent up to now is        2.0 secs

     total energy              =    -223.89589215 Ry
     Harris-Foulkes estimate   =    -224.82331199 Ry
     estimated scf accuracy    <       1.62682142 Ry

     iteration #  2     ecut=    30.00 Ry     beta= 0.50
     Davidson diagonalization with overlap
     ethr =  5.08E-03,  avg # of iterations =  2.4

     total cpu time spent up to now is        2.6 secs

     total energy              =    -224.21784186 Ry
     Harris-Foulkes estimate   =    -224.32773448 Ry
     estimated scf accuracy    <       0.24233181 Ry

     iteration #  3     ecut=    30.00 Ry     beta= 0.50
     Davidson diagonalization with overlap
     ethr =  7.57E-04,  avg # of iterations =  2.6

     total cpu time spent up to now is        3.2 secs

     total energy              =    -224.25817062 Ry
     Harris-Foulkes estimate   =    -224.27002797 Ry
     estimated scf accuracy    <       0.03104380 Ry

     iteration #  4     ecut=    30.00 Ry     beta= 0.50
     Davidson diagonalization with overlap
     ethr =  9.70E-05,  avg # of iterations =  2.0

     total cpu time spent up to now is        3.9 secs

     total energy              =    -224.26170179 Ry
     Harris-Foulkes estimate   =    -224.26216928 Ry
     estimated scf accuracy    <       0.00236616 Ry

     iteration #  5     ecut=    30.00 Ry     beta= 0.50
     Davidson diagonalization with overlap
     ethr =  7.39E-06,  avg # of iterations =  2.2

     total cpu time spent up to now is        4.5 secs

     total energy              =    -224.26186781 Ry
     Harris-Foulkes estimate   =    -224.26189767 Ry
     estimated scf accuracy    <       0.00012541 Ry

     iteration #  6     ecut=    30.00 Ry     beta= 0.50
     Davidson diagonalization with overlap
     ethr =  3.92E-07,  avg # of iterations =  3.0

     total cpu time spent up to now is        5.1 secs

     total energy              =    -224.26189750 Ry
     Harris-Foulkes estimate   =    -224.26189565 Ry
     estimated scf accuracy    <       0.00001050 Ry

     iteration #  7     ecut=    30.00 Ry     beta= 0.50
     Davidson diagonalization with overlap
     ethr =  3.28E-08,  avg # of iterations =  2.0

     total cpu time spent up to now is        5.7 secs

     total energy              =    -224.26189879 Ry
     Harris-Foulkes estimate   =    -224.26189889 Ry
     estimated scf accuracy    <       0.00000195 Ry

     iteration #  8     ecut=    30.00 Ry     beta= 0.50
     Davidson diagonalization with overlap
     ethr =  6.09E-09,  avg # of iterations =  2.4

     total cpu time spent up to now is        6.4 secs

     End of self-consistent calculation

          k = 0.0000 0.0000 0.0000 (  1935 PWs)   bands (ev):

   -51.3788 -50.6489 -23.4920 -23.2706 -23.1999 -22.6749 -22.5588 -22.5034
   -14.8684  -7.4942  -6.3145  -2.4072  -1.9190  -1.7097  -1.1120   0.5810

          k = 0.0000 0.0000-0.5000 (  1936 PWs)   bands (ev):

   -51.3786 -50.6487 -23.4918 -23.2706 -23.2002 -22.6741 -22.5585 -22.5035
   -14.8583  -7.3155  -6.2941  -3.1428  -1.7237  -1.6682  -1.3987   0.3058

          k = 0.0000-0.5000-0.5000 (  1956 PWs)   bands (ev):

   -51.3789 -50.6490 -23.4919 -23.2718 -23.2015 -22.6883 -22.5644 -22.5102
   -14.7571  -7.1807  -6.3997  -3.1250  -2.5295  -1.5988  -1.3099   0.4939

          k =-0.5000-0.5000-0.5000 (  1904 PWs)   bands (ev):

   -51.3779 -50.6481 -23.5151 -23.2688 -23.1994 -22.6789 -22.5592 -22.5048
   -14.6134  -7.0686  -6.6597  -2.8655  -2.3031  -2.1489  -1.7875   0.1680

          k =-0.5000 0.0000 0.0000 (  1936 PWs)   bands (ev):

   -51.3786 -50.6487 -23.5115 -23.2687 -23.2005 -22.6763 -22.5596 -22.5035
   -14.7196  -7.5390  -6.3890  -2.4095  -2.2514  -1.7138  -1.4390   0.4521

          k = 0.0000-0.5000 0.0000 (  1936 PWs)   bands (ev):

   -51.3786 -50.6487 -23.4907 -23.2703 -23.1994 -22.6869 -22.5630 -22.5081
   -14.7646  -7.4339  -6.3272  -2.4415  -2.2625  -1.6954  -1.5473   0.3917

          k =-0.5000 0.0000 0.5000 (  1956 PWs)   bands (ev):

   -51.3789 -50.6490 -23.5129 -23.2698 -23.2027 -22.6777 -22.5613 -22.5054
   -14.7129  -7.2013  -6.6148  -2.9192  -2.4883  -1.6183  -1.3249   0.5068

          k =-0.5000 0.5000 0.0000 (  1956 PWs)   bands (ev):

   -51.3789 -50.6490 -23.5187 -23.2726 -23.2021 -22.6826 -22.5626 -22.5077
   -14.6219  -7.2385  -6.6978  -2.6344  -2.2439  -2.1891  -1.3510   0.4674

     highest occupied level (ev):     0.5810

!    total energy              =    -224.26189920 Ry
     Harris-Foulkes estimate   =    -224.26189916 Ry
     estimated scf accuracy    <       0.00000007 Ry

     The total energy is the sum of the following terms:

     one-electron contribution =    -196.58147582 Ry
     hartree contribution      =     104.46483201 Ry
     xc contribution           =     -41.80437309 Ry
     ewald contribution        =     -90.34088230 Ry

     convergence has been achieved in   8 iterations

     Forces acting on atoms (cartesian axes, Ry/au):

     atom    1 type  4   force =     0.01895953    0.08109971    0.02072179
     atom    2 type  4   force =     0.12986293   -0.01305343    0.04027189
     atom    3 type  3   force =    -0.04267368   -0.07973457    0.07162641
     atom    4 type  2   force =    -0.07798919    0.01560048   -0.07640873
     atom    5 type  2   force =    -0.02879314   -0.00008320   -0.06488948
     atom    6 type  1   force =     0.00594500   -0.00326706   -0.02731597
     atom    7 type  2   force =     0.04670732   -0.00020880   -0.00842483
     atom    8 type  2   force =    -0.02567491    0.04171967   -0.01139289
     atom    9 type  2   force =    -0.02628101   -0.04149021   -0.01193888
     atom   10 type  2   force =    -0.00006284   -0.00058259    0.06775069

     Total force =     0.263163     Total SCF correction =     0.000502


     Computing stress (Cartesian axis) and pressure

          total   stress  (Ry/bohr**3)                   (kbar)     P=   39.57
   0.00066413   0.00014767   0.00008845         97.70     21.72     13.01
   0.00014767   0.00037869   0.00000575         21.72     55.71      0.85
   0.00008845   0.00000575  -0.00023588         13.01      0.85    -34.70


     init_run     :      0.94s CPU      0.96s WALL (       1 calls)
     electrons    :      4.99s CPU      5.04s WALL (       1 calls)
     forces       :      0.22s CPU      0.22s WALL (       1 calls)
     stress       :      0.53s CPU      0.53s WALL (       1 calls)

     Called by init_run:
     wfcinit      :      0.27s CPU      0.28s WALL (       1 calls)
     potinit      :      0.02s CPU      0.02s WALL (       1 calls)
     hinit0       :      0.59s CPU      0.59s WALL (       1 calls)

     Called by electrons:
     c_bands      :      3.82s CPU      3.84s WALL (       8 calls)
     sum_band     :      0.79s CPU      0.81s WALL (       8 calls)
     v_of_rho     :      0.11s CPU      0.12s WALL (       9 calls)
     newd         :      0.31s CPU      0.32s WALL (       9 calls)
     mix_rho      :      0.01s CPU      0.01s WALL (       8 calls)

     Called by c_bands:
     init_us_2    :      0.16s CPU      0.16s WALL (     152 calls)
     cegterg      :      3.55s CPU      3.57s WALL (      64 calls)

     Called by sum_band:
     sum_band:bec :      0.00s CPU      0.00s WALL (      64 calls)
     addusdens    :      0.27s CPU      0.29s WALL (       8 calls)

     Called by *egterg:
     h_psi        :      2.25s CPU      2.27s WALL (     221 calls)
     s_psi        :      0.48s CPU      0.48s WALL (     221 calls)
     g_psi        :      0.02s CPU      0.02s WALL (     149 calls)
     cdiaghg      :      0.11s CPU      0.11s WALL (     213 calls)

     Called by h_psi:
     h_psi:pot    :      2.24s CPU      2.26s WALL (     221 calls)
     h_psi:calbec :      0.53s CPU      0.53s WALL (     221 calls)
     vloc_psi     :      1.23s CPU      1.24s WALL (     221 calls)
     add_vuspsi   :      0.48s CPU      0.48s WALL (     221 calls)

     General routines
     calbec       :      0.83s CPU      0.84s WALL (     325 calls)
     fft          :      0.03s CPU      0.03s WALL (     124 calls)
     ffts         :      0.00s CPU      0.00s WALL (       8 calls)
     fftw         :      1.10s CPU      1.12s WALL (    6444 calls)

     Parallel routines

     PWSCF        :      7.05s CPU      7.12s WALL


   This run was terminated on:   2:48:38  14Dec2020            

=------------------------------------------------------------------------------=
   JOB DONE.
=------------------------------------------------------------------------------=
