LAMMPS (3 Mar 2020)
Reading data file ...
  orthogonal box = (0 0 0) to (17.469 17.469 17.469)
  1 by 1 by 1 MPI processor grid
  reading atoms ...
  217 atoms
  read_data CPU = 0.00100546 secs
Reading potential file library.meam with DATE: 2012-06-29
Reading potential file LiSi.meam with DATE: 2020-11-07
1 atoms in group Li
216 atoms in group Si
Neighbor list info ...
  update every 1 steps, delay 10 steps, check yes
  max neighbors/atom: 2000, page size: 100000
  master list distance cutoff = 6
  ghost atom cutoff = 6
  binsize = 3, bins = 6 6 6
  2 neighbor lists, perpetual/occasional/extra = 2 0 0
  (1) pair meam/c, perpetual
      attributes: full, newton on
      pair build: full/bin/atomonly
      stencil: full/bin/3d
      bin: standard
  (2) pair meam/c, perpetual, half/full from (1)
      attributes: half, newton on
      pair build: halffull/newton
      stencil: none
      bin: none
Setting up Verlet run ...
  Unit style    : metal
  Current step  : 0
  Time step     : 0.003
Per MPI rank memory allocation (min/avg/max) = 8.895 | 8.895 | 8.895 Mbytes
Step Temp E_pair E_mol TotEng Press Volume 
       0         1425   -951.04357            0   -911.25729   -116259.55    5330.9442 
    3200    1388.7044   -950.61463            0   -911.84174     8710.352    4563.0285 
Loop time of 2.31843 on 1 procs for 3200 steps with 217 atoms

Performance: 357.759 ns/day, 0.067 hours/ns, 1380.243 timesteps/s
100.0% CPU use with 1 MPI tasks x no OpenMP threads

MPI task timing breakdown:
Section |  min time  |  avg time  |  max time  |%varavg| %total
---------------------------------------------------------------
Pair    | 2.2622     | 2.2622     | 2.2622     |   0.0 | 97.58
Neigh   | 0.0090058  | 0.0090058  | 0.0090058  |   0.0 |  0.39
Comm    | 0.013669   | 0.013669   | 0.013669   |   0.0 |  0.59
Output  | 2.7063e-05 | 2.7063e-05 | 2.7063e-05 |   0.0 |  0.00
Modify  | 0.028771   | 0.028771   | 0.028771   |   0.0 |  1.24
Other   |            | 0.004713   |            |       |  0.20

Nlocal:    217 ave 217 max 217 min
Histogram: 1 0 0 0 0 0 0 0 0 0
Nghost:    957 ave 957 max 957 min
Histogram: 1 0 0 0 0 0 0 0 0 0
Neighs:    4250 ave 4250 max 4250 min
Histogram: 1 0 0 0 0 0 0 0 0 0
FullNghs:  8500 ave 8500 max 8500 min
Histogram: 1 0 0 0 0 0 0 0 0 0

Total # of neighbors = 8500
Ave neighs/atom = 39.1705
Neighbor list builds = 15
Dangerous builds = 0
Setting up Verlet run ...
  Unit style    : metal
  Current step  : 3200
  Time step     : 0.003
Per MPI rank memory allocation (min/avg/max) = 9.666 | 9.666 | 9.666 Mbytes
Step PotEng KinEng TotEng Temp Press Density c_msdli[4] c_msdsi[4] 
    3200   -950.61463    38.772893   -911.84174    1388.7044     8710.352    2.2102224            0 7.8549409e-32 
    3300    -951.7204    38.308482   -913.41191    1372.0709   -5619.8641    2.1768101  0.048456576  0.099710937 
    3400   -955.35317    36.052541   -919.30063    1291.2713   -8055.1454     2.181417  0.079941068  0.097143302 
    3500   -955.16654    41.063605   -914.10294    1470.7494      2653.33    2.2007489  0.083662724  0.095288474 
    3600    -954.7145    42.982748   -911.73175    1539.4862    8467.0319    2.2160604   0.13233483   0.10764324 
    3700     -956.348     38.00612   -918.34188    1361.2414    1279.2937    2.2038963   0.12773417    0.0908422 
    3800   -951.95854    34.628361   -917.33018    1240.2623   -8425.2198    2.1733466  0.021845289   0.11810502 
    3900   -949.91425    36.847589   -913.06666     1319.747   -3988.8701    2.1785511  0.080093007   0.11540422 
    4000   -952.51595    38.994909   -913.52104    1396.6562    7318.4496    2.2100276   0.17103418   0.12137113 
    4100   -956.10027    35.775356   -920.32492    1281.3435    11094.442    2.2295089  0.022506091  0.085428733 
    4200   -952.75118    39.422336   -913.32885    1411.9651    -974.0394    2.1864078   0.22059058   0.09632603 
    4300   -951.24291    38.290672   -912.95224     1371.433   -6908.1438    2.1707643  0.050090542  0.099243556 
    4400   -954.43271    39.421553   -915.01116    1411.9371   -2768.3724    2.1878031  0.064244096  0.082813791 
    4500   -958.83174     39.12152   -919.71022     1401.191    7147.5296    2.2206501 0.0077804337  0.089306768 
    4600   -957.00532    42.525679   -914.47964    1523.1156    6552.4493    2.2161741    0.2006191  0.092185036 
    4700   -955.00184    42.290237   -912.71161    1514.6829   -1889.1944    2.1876961   0.07401317   0.10162675 
    4800   -953.58931    39.284418   -914.30489    1407.0254   -9942.3269    2.1668856   0.23900921    0.1261442 
    4900   -952.83455    39.826876   -913.00768    1426.4543   -2744.8496    2.1829563  0.050629135   0.12391733 
    5000    -949.6882    44.857179   -904.83102    1606.6215    5338.9328    2.1959723  0.013171928   0.11059952 
    5100   -954.26575     42.24706   -912.01869    1513.1365    6834.5969    2.2118304  0.046363152  0.098424503 
    5200   -949.75999    35.197644   -914.56234    1260.6519   -124.75411    2.1897445    0.1104421   0.12039669 
    5300   -952.34174    39.668383   -912.67335    1420.7776   -8386.7649    2.1712258   0.24880337   0.10320504 
    5400   -953.04172    46.637998   -906.40372    1670.4039   -5576.2457    2.1743323  0.049461119   0.10111056 
    5500   -954.37854    40.383394   -913.99514    1446.3867    8702.5925    2.2174886   0.10747958   0.10845626 
    5600   -953.39873    39.436884   -913.96184    1412.4862    9054.1341    2.2173869  0.027742868   0.10131462 
    5700    -953.8766     44.69888   -909.17772    1600.9518   -6181.2435    2.1771234    0.0463633   0.13062152 
    5800   -946.61661    36.635956   -909.98065    1312.1671   -8856.3334    2.1590921   0.32705411   0.13298913 
    5900    -952.3206    37.019978   -915.30062    1325.9214   -538.56146     2.193242  0.033034335    0.1273104 
    6000   -953.37762    41.276952   -912.10067    1478.3907     9924.414    2.2194764  0.053787623   0.12188026 
    6100   -949.74175    41.111034   -908.63071    1472.4481    7639.9657    2.2054808   0.16708053   0.11760909 
    6200   -954.85141    37.853573   -916.99784    1355.7777   -4640.0313    2.1854838   0.23994472   0.10956911 
    6300   -951.64392    36.183196   -915.46072    1295.9508   -11462.491    2.1676399   0.19117233   0.11222199 
    6400   -952.49833    40.132273   -912.36606    1437.3925   -825.95068    2.1912991  0.049567035   0.10971306 
    6500   -953.87536    39.314354   -914.56101    1408.0976    9368.7005    2.2214394  0.093568106   0.10850623 
    6600    -958.7522    39.540174   -919.21202    1416.1857    4457.1162    2.2179585   0.10022533   0.10264411 
    6700   -952.25952    38.977709   -913.28181    1396.0402   -3492.7203    2.1776497  0.084650678   0.11164053 
    6800   -950.26178    37.323619   -912.93816    1336.7967   -7527.0715     2.170034  0.086193776    0.1231125 
    6900   -959.58407    39.529115   -920.05496    1415.7895   -444.12694     2.206511  0.063791311   0.11209988 
    7000   -953.77183     39.15434   -914.61749    1402.3665    8882.3119    2.2152061   0.14405264    0.1075104 
    7100   -953.22254    40.923892   -912.29865    1465.7454    3562.9182    2.2000768  0.016485587   0.10317067 
    7200   -956.82956    40.185992   -916.64357    1439.3165   -8157.5269    2.1805539   0.16657357  0.099536078 
    7300   -952.36385    34.056354    -918.3075    1219.7751   -3828.6664    2.1833634   0.13211853   0.10363799 
    7400   -948.91595     38.43897   -910.47698    1376.7445    1724.1303     2.188093   0.12789413     0.103467 
    7500   -951.10474      37.8209   -913.28384    1354.6075    7853.1128    2.2107487 0.0052470826   0.10058347 
    7600   -954.80521     38.86648   -915.93873    1392.0564    4220.6146    2.2052813  0.038841975  0.095526421 
    7700   -948.22973    40.646264   -907.58346    1455.8018   -2862.4157    2.1701186   0.21376762   0.10477057 
    7800   -950.16617     38.86641   -911.29976    1392.0539   -2118.5515    2.1815976   0.27438018   0.12176799 
    7900   -956.67407    41.751604   -914.92247     1495.391    2614.0916    2.2063296  0.050363386    0.1096629 
    8000   -953.43509    41.009989    -912.4251    1468.8291    10067.906    2.2192181  0.032710296   0.10717164 
    8100   -947.73746    41.333508   -906.40395    1480.4164   -2825.1223    2.1725855    0.1538898   0.10896256 
    8200   -954.20279    39.605614   -914.59717    1418.5295   -15557.793    2.1565598   0.29501429   0.11002287 
    8300   -954.45058      39.8957   -914.55488    1428.9193   -4128.1681    2.1837408  0.035424509    0.1100416 
    8400   -955.71591    44.814618   -910.90129    1605.0971    10449.107    2.2223158   0.25342591    0.1020035 
    8500   -952.44708    39.812948   -912.63413    1425.9554    8760.0877    2.2131549  0.078438415  0.096836906 
    8600   -958.44666    40.318594   -918.12807    1444.0658   -5943.9241    2.1875673   0.14162119  0.094204891 
    8700   -953.87964    39.408038    -914.4716     1411.453   -5949.7602     2.177906   0.11626539    0.1150382 
    8800    -951.0609    39.458965   -911.60194     1413.277    2105.8892    2.1938278  0.073187768   0.12135089 
    8900   -957.99709    39.147114   -918.84997    1402.1077    6213.5035    2.2175422  0.027723369  0.099022106 
    9000   -954.73144    38.029674   -916.70177     1362.085     1449.295     2.200518  0.062157503  0.096850309 
    9100   -951.47911    39.014573   -912.46453    1397.3605   -1372.1084    2.1841359   0.23416448  0.099380376 
    9200   -951.80915    37.064928   -914.74423    1327.5313   -1064.3859    2.1893943  0.015401983   0.10410739 
    9300   -954.76738    34.518986   -920.24839    1236.3449     4636.834    2.2138574   0.24386002   0.10316864 
    9400   -950.60687    38.628532   -911.97834    1383.5339    4348.3112    2.2000179  0.011711639  0.096757426 
    9500   -950.82527    37.572881   -913.25239    1345.7243    849.94481     2.192303   0.05706269  0.097954233 
    9600   -958.41207    40.518081   -917.89399    1451.2107   -7161.7731    2.1863104    0.2015871   0.10240817 
    9700   -956.76774    40.867498   -915.90025    1463.7256   -2146.4189    2.1937127   0.12932714   0.10719273 
    9800   -953.57659    42.582587     -910.994    1525.1538    9233.4379    2.2139812  0.079629163    0.1116018 
    9900   -956.19525    42.221247   -913.97401    1512.2119    1519.5591    2.2015174   0.10671222   0.10473792 
   10000   -954.58236    37.712051   -916.87031    1350.7089   -9899.9204    2.1715591  0.037706396  0.096742009 
   10100    -951.1171    39.964005   -911.15309    1431.3657   -8321.7392    2.1705572   0.06738763   0.10109176 
   10200   -952.09649    42.073424   -910.02307    1506.9175    6461.2437    2.2085364   0.28530694    0.1170285 
   10300   -953.67218    40.162818   -913.50936    1438.4865    6484.7761     2.215166   0.03289251    0.1042812 
   10400   -954.84088    38.664988   -916.17589    1384.8397   -4311.1419    2.1889058   0.17236688   0.11230226 
   10500   -952.27397    44.777356   -907.49662    1603.7625   -10835.299     2.160164  0.019729245  0.099492056 
   10600   -951.15648    39.569227   -911.58725    1417.2262    1782.0503    2.1926583   0.15464362   0.10996685 
   10700   -955.56487    40.860112   -914.70476     1463.461    6148.8363    2.2132846   0.10641338   0.11552258 
   10800   -955.54092     42.42501   -913.11591      1519.51    1776.9882    2.2015859  0.032516672    0.1056322 
   10900   -952.64551    45.876092   -906.76942    1643.1152   -8342.3716    2.1694431  0.080052957   0.11911713 
   11000   -955.42314    40.024275   -915.39887    1433.5244   -3502.0464    2.1899345   0.12703125   0.10772071 
   11100   -956.26897    41.955262   -914.31371    1502.6853    157.11349    2.2020497   0.17333039   0.10615137 
   11200   -951.68287    42.359884   -909.32298    1517.1774    3805.7728    2.2011807   0.15825035  0.095680587 
   11300   -950.81744    38.861995   -911.95544    1391.8957    397.25281    2.1913259   0.33864174   0.10350949 
   11400   -951.95093    35.794117   -916.15681    1282.0155   -2298.4488    2.1898203  0.081664351   0.11352753 
   11500   -950.55454    37.757061   -912.79748     1352.321    1652.5671    2.1949814   0.11335926   0.12374541 
   11600   -950.15989    40.337471   -909.82242    1444.7419    3223.7303    2.1974316   0.12123199   0.11916365 
   11700   -957.29748    38.876002   -918.42148    1392.3974    643.42458    2.2046288  0.058988534   0.10265833 
   11800   -955.08141    39.089787   -915.99162    1400.0544   -3138.4347    2.1897306   0.17554713   0.10033167 
   11900   -948.81702    36.437813   -912.37921    1305.0703   -306.84537    2.1891056    0.2355673   0.11634799 
   12000   -953.68007    39.633461   -914.04661    1419.5268    2028.7831     2.199051  0.016587702   0.10507052 
   12100   -955.32361       35.854   -919.46961    1284.1603    4795.1787    2.2125656   0.24734889   0.10805735 
   12200   -955.74434    42.913473   -912.83086     1537.005   -2513.4172    2.1955897  0.098644195   0.10146677 
   12300   -954.02947    40.841561   -913.18791    1462.7966   -2622.5002     2.190745  0.045646114  0.091904367 
   12400   -955.47047    35.500603   -919.96986    1271.5029    330.29805    2.2046814  0.080173526    0.1050807 
   12500    -954.0614    40.130321   -913.93107    1437.3226    256.74358    2.1999658    0.1361454   0.11676765 
   12600   -951.54601    39.347622   -912.19839    1409.2891    5802.5117    2.2036314   0.18263993    0.1281529 
   12700   -955.39082    39.289042   -916.10178     1407.191   -737.06876    2.1996658   0.16323937   0.10911018 
   12800   -956.81299    36.075615   -920.73737    1292.0977   -6487.3411    2.1880093  0.083214136   0.10080071 
   12900    -951.6267    39.585384   -912.04132    1417.8049   -5575.5299    2.1773651   0.12295045   0.11000917 
   13000   -950.44612    37.615964   -912.83015    1347.2674    9945.1243    2.2175469   0.35066594    0.1234531 
   13100   -954.08483    39.870261   -914.21457    1428.0082    11592.582    2.2289316  0.067294896   0.10614178 
   13200   -954.74101    39.000364   -915.74065    1396.8516     -3449.43    2.1897518  0.029914767   0.10795851 
   13300   -946.92681    41.475562   -905.45125    1485.5042   -12785.273    2.1456369    0.2423154   0.11951563 
   13400   -951.66081    40.497835   -911.16297    1450.4856    244.30603    2.1928181  0.086589901   0.11522256 
   13500   -952.81733    39.178301   -913.63903    1403.2247    9700.3212    2.2201708   0.18781327   0.12908094 
   13600   -955.29635    39.787459   -915.50889    1425.0425    2814.1429    2.2071989   0.11183405   0.11364705 
   13700   -948.75501    42.253282   -906.50172    1513.3593   -6011.1005    2.1723888   0.11131342   0.12419313 
   13800   -952.29339    40.251203   -912.04219    1441.6521    -776.7446     2.189961   0.08820566   0.11457961 
   13900   -954.34398    39.523221   -914.82076    1415.5784    1656.7438    2.2021002  0.043355823   0.11370246 
   14000   -952.15745    39.696252    -912.4612    1421.7758    3914.0605    2.2034228   0.20982656   0.11464083 
   14100    -947.1838    40.850387   -906.33341    1463.1127    1110.6509    2.1820018  0.077789868   0.10565782 
   14200    -953.3247    38.496945   -914.82776     1378.821   -2452.6001     2.192514  0.027535896   0.10742088 
   14300   -953.89094    39.818831    -914.0721    1426.1661     1373.967    2.1990845   0.13242123   0.11345476 
   14400   -950.36821    41.501299   -908.86691     1486.426    4410.0664    2.1995815   0.12703443   0.12784733 
   14500   -950.35701    40.036156   -910.32085    1433.9499    738.81039    2.1923607   0.26114547   0.12812732 
   14600   -951.85559    36.456503   -915.39909    1305.7397   -6474.4376    2.1810673   0.49876139    0.1164338 
   14700   -951.08117    37.552475   -913.52869    1344.9935   -1165.9055    2.1904011   0.12969017   0.11155963 
   14800   -952.05154     42.23039   -909.82115    1512.5394    8997.4478    2.2170741   0.16284767   0.11493665 
   14900   -948.18719    44.788422   -903.39877    1604.1588    7138.0953    2.2021819   0.17497457   0.12487383 
   15000   -952.65847    40.608095   -912.05037    1454.4347   -4738.5093     2.180315   0.13436095   0.10675097 
   15100   -949.61902    36.267048   -913.35197    1298.9541   -11360.827    2.1620205   0.20901896    0.1257948 
   15200    -956.3209    41.885997    -914.4349    1500.2045   -3776.6721    2.1922515   0.15467775   0.10488366 
   15300   -955.67265    40.721859   -914.95079    1458.5093    9934.6948     2.225279   0.20317357   0.11779229 
   15400   -948.97966    42.996925   -905.98274    1539.9939    1939.5385    2.1890719   0.10394986   0.12337319 
   15500    -951.5877     39.48231   -912.10539    1414.1132   -3561.4323    2.1797709   0.14139897   0.11282066 
   15600    -953.0589    38.168313   -914.89058    1367.0506   -3267.3559    2.1857839   0.02113522   0.10426023 
   15700    -953.0535    39.979908   -913.07359    1431.9353    2004.8072    2.1994011  0.093377077   0.10443918 
   15800   -950.83555    43.934828   -906.90072    1573.5862    76.581343    2.1892766   0.01333871    0.1189205 
   15900   -953.96499    39.706502   -914.25849    1422.1429    84.789765    2.1962709  0.051585031   0.10707213 
   16000   -952.49868    37.761553   -914.73713    1352.4819   -892.89671    2.1918159   0.14771752   0.10381528 
   16100   -949.76811    41.796164   -907.97194     1496.987   -187.61793     2.185871  0.028617665   0.10719353 
   16200   -953.95745    42.392822   -911.56462    1518.3571   -812.86196     2.193043   0.11698708    0.1082742 
   16300   -954.10604    39.043046     -915.063    1398.3803    140.46989    2.1945511  0.028121298   0.11280647 
   16400   -953.45293    40.798638   -912.65429    1461.2593    268.39692    2.1944697   0.41117696   0.12166142 
   16500   -949.23023    42.189691   -907.04054    1511.0817    836.75861    2.1886011   0.12944739   0.11589682 
   16600   -953.94895    39.150232   -914.79872    1402.2193   -269.97693    2.1976117   0.11488782   0.11449523 
   16700   -951.15885    36.314558    -914.8443    1300.6558   -3917.2853    2.1839664  0.022581104   0.11029522 
   16800   -951.77687    38.509143   -913.26772    1379.2579   -2963.0998     2.186895   0.12262772   0.11132851 
   16900   -954.41917    44.283617   -910.13555    1586.0786    3421.0972    2.2046854   0.13045401   0.11332665 
   17000   -951.02733     47.81553   -903.21179    1712.5789    375.07255    2.1877433   0.10054714  0.097203241 
   17100   -951.38329    39.404168   -911.97912    1411.3144   -1151.9394    2.1867129   0.16086073   0.10858977 
   17200   -953.12777    39.374082   -913.75368    1410.2368   -1927.0957    2.1865927   0.13128723   0.11083089 
   17300   -952.88881    40.703536   -912.18528    1457.8531    1725.7333    2.1976892   0.41399258   0.11255017 
   17400    -949.9501    45.104449   -904.84565    1615.4778    1950.9296    2.1886685    0.3050191    0.1210368 
   17500   -952.74946      41.8086   -910.94086    1497.4324   -2000.9171    2.1890682  0.093179794   0.11266543 
   17600   -952.37659    38.814034   -913.56255    1390.1779    -7331.235    2.1742352   0.23536263   0.11632452 
   17700   -951.17123    36.930418   -914.24081    1322.7137   -1239.2538    2.1868724    0.1087954   0.10967783 
   17800   -957.19047    40.553437   -916.63703     1452.477    6285.7823    2.2199983  0.081488795    0.1147101 
   17900   -958.77337    35.895942   -922.87743    1285.6625    11408.446    2.2371875   0.21103379   0.09922236 
   18000   -954.28514    39.245565   -915.03958    1405.6338   -5479.2425    2.1839439  0.091572628    0.1111782 
   18100   -951.07802    37.355128   -913.72289    1337.9252   -10186.207    2.1667746   0.15234954   0.12400716 
   18200   -952.96599    40.369664   -912.59633     1445.895   -1190.5996    2.1918712   0.23408359   0.11884894 
   18300   -957.66572    36.790442   -920.87528    1317.7002    7854.0921    2.2260449   0.23517928   0.11028366 
   18400   -954.90444    37.844047    -917.0604    1355.4365    1748.7684    2.2026644   0.18346924   0.10724501 
   18500   -954.84294    41.362115   -913.48082     1481.441   -4557.8995    2.1824044   0.10332652   0.11155739 
   18600   -952.55754     39.47659   -913.08095    1413.9083   -3814.4653    2.1836208  0.068260172   0.11360414 
   18700   -956.42583    35.329294   -921.09653    1265.3672    2412.3343    2.2099997  0.064612538   0.10300029 
   18800   -953.63228    38.947473   -914.68481    1394.9572    2208.1705    2.1993076  0.086724822   0.10468491 
   18900   -953.56605    41.213111   -912.35294    1476.1042   -1072.5558    2.1937623  0.043243522   0.10385812 
   19000    -953.6361    37.402918   -916.23318    1339.6369   -1668.6328    2.1921302  0.054144712   0.10449694 
   19100   -958.05501    38.493243   -919.56177    1378.6884   -1967.7819    2.2026438  0.061699196  0.096382207 
   19200   -953.46189    41.681894      -911.78    1492.8943   -1668.1154    2.1921808   0.31328381   0.11100232 
   19300   -953.73349    39.699933   -914.03355    1421.9076   -993.66909    2.1937442   0.11764221   0.12529716 
   19400   -956.82022     38.59699   -918.22323    1382.4042   -1145.3241    2.2014323  0.074551158   0.10395712 
   19500   -951.34039    38.893044   -912.44734    1393.0078    2821.5017    2.1993229  0.032757566   0.11321611 
   19600   -952.46643    41.240263   -911.22617    1477.0766    5612.4577    2.2064143   0.24281562   0.10319802 
   19700   -953.45142    38.841068   -914.61035    1391.1462   -2125.9912    2.1897748  0.010374871   0.11510685 
   19800   -955.21324     38.49641   -916.71683    1378.8018   -10897.303    2.1727862   0.11210247   0.11464178 
   19900   -955.68298    40.210966   -915.47201     1440.211   -861.11492    2.1967277   0.15706519   0.10592812 
   20000   -950.28731    41.058649   -909.22866    1470.5719    9896.9706    2.2149896  0.022857047   0.12591617 
   20100   -953.24864    41.012935    -912.2357    1468.9346     2124.048    2.1996987   0.14701325   0.11190247 
   20200   -954.53202    39.297218    -915.2348    1407.4838   -8895.4191    2.1742164  0.040921983   0.10744539 
   20300   -950.57225    38.719261   -911.85299    1386.7835   -4096.0751     2.178808   0.23635442   0.12580526 
   20400   -951.52102    43.824194   -907.69682    1569.6237    4615.7127    2.1979452   0.22812589   0.10842819 
   20500   -954.88922     41.07715   -913.81207    1471.2345    5409.4336    2.2134167  0.053981151   0.11373319 
   20600   -949.98939     35.43435   -914.55504    1269.1299    2569.7764    2.1957154   0.12874068   0.11783614 
   20700   -946.88981    39.711439   -907.17837    1422.3197   -6518.9336    2.1642852   0.15711178   0.11795184 
   20800   -950.68855    38.962813   -911.72574    1395.5067   -1972.4858    2.1832795    0.1320147   0.11348645 
   20900   -954.75393    40.426034   -914.32789    1447.9139    3788.9881     2.206519  0.087612226   0.10038612 
   21000   -954.27488     41.12987   -913.14501    1473.1228    3337.9168    2.2063349   0.19339176    0.1091028 
   21100    -949.4353    43.134487   -906.30081    1544.9209   -4017.0889    2.1729977   0.04652452   0.11899401 
   21200   -949.56576    37.893202   -911.67256    1357.1971   -7382.8613     2.168029   0.22833472   0.12163013 
   21300   -952.28533    37.944029    -914.3413    1359.0175    -2993.387    2.1854855  0.084008583   0.10778687 
   21400   -954.12275    41.463695   -912.65905    1485.0792    12667.662    2.2275194   0.23516785    0.1056848 
   21500   -954.46974    37.844785   -916.62496     1355.463      10868.3    2.2256543 0.0028263382   0.11450329 
   21600   -958.63775    37.699559   -920.93819    1350.2615   -7701.9402    2.1867444  0.084489042   0.10520126 
   21700   -954.15411     39.03052   -915.12359    1397.9317   -12608.099    2.1641232  0.072661141   0.11668508 
   21800   -951.99451    39.075644   -912.91886    1399.5479     778.6152    2.1920164   0.11905861   0.10704536 
   21900   -957.63262    42.220932   -915.41168    1512.2007    6619.6519    2.2185132   0.35696162   0.10267262 
   22000   -956.20308    35.540382   -920.66269    1272.9276    6247.8032    2.2177537  0.019900267   0.10557231 
   22100    -952.4814    38.912569   -913.56883    1393.7071   -4713.4305     2.179621   0.15582907   0.10776277 
   22200    -953.0089    39.642291   -913.36661    1419.8431   -5152.8435     2.177718  0.012205101   0.10875423 
   22300   -957.38536    38.891115   -918.49424    1392.9387    1310.8435    2.2047904  0.095467855  0.097728297 
   22400    -957.3175    39.243591    -918.0739    1405.5631    7257.4157    2.2184474 0.0078356441   0.08838074 
   22500   -950.78601    38.248434   -912.53757    1369.9202    3907.8274     2.195519   0.21312757   0.11290919 
   22600   -952.08596    37.628667    -914.4573    1347.7224   -4560.2266    2.1800784  0.066602833   0.11096601 
   22700   -954.35386    35.164326   -919.18953    1259.4586   -3548.2984    2.1896505  0.045424221   0.11538795 
   22800   -957.12838    39.180969   -917.94741    1403.3202    4817.0988    2.2122954   0.10988433   0.11385719 
   22900   -951.45116    38.776059    -912.6751    1388.8178    7196.3732    2.2087976  0.091668877   0.11539164 
   23000   -955.66802    41.625066   -914.04295    1490.8589   -3672.3222    2.1874814   0.02232986   0.10937731 
   23100   -957.31411     41.79942   -915.51469    1497.1036   -9140.8597    2.1810636  0.019229404   0.10787714 
   23200   -957.42213    34.137713   -923.28442    1222.6891    2761.1633    2.2115891   0.36266094   0.10029644 
   23300   -953.47755    37.499344   -915.97821    1343.0905    1899.1356    2.2012052  0.073225445   0.10371739 
   23400    -952.4502    38.646554   -913.80364    1384.1794    801.08386       2.1925   0.20820896  0.098367309 
   23500   -953.41302     40.45174   -912.96128    1448.8346   -728.95805    2.1877733  0.088396972   0.10058576 
   23600   -959.17366     38.30139   -920.87228    1371.8169   -1594.6558    2.2003086   0.14112973  0.091282569 
   23700   -957.33155    40.264087   -917.06746    1442.1136    -2085.157    2.1935341   0.11972897   0.09147352 
   23800   -951.58672    38.390704   -913.19601    1375.0158      1907.29     2.194555  0.045412813   0.12177132 
   23900   -952.11256    38.744019   -913.36854    1387.6703    3050.2063    2.1985782   0.19412937   0.11980812 
   24000   -956.62575    35.478189   -921.14756    1270.7001    2396.3005    2.2094499   0.02712232   0.10902914 
   24100   -954.83297    40.617753   -914.21521    1454.7806   -7483.9887    2.1792192   0.13979287   0.11789945 
   24200     -953.756    40.725518   -913.03048    1458.6404   -3363.9974    2.1850925  0.097501628   0.10163256 
   24300    -958.8839    43.019828   -915.86407    1540.8142    5069.3132    2.2134034  0.075233605   0.10115241 
   24400   -958.63754    37.714462   -920.92308    1350.7953     8896.045     2.228475  0.052903559  0.097204618 
   24500   -951.24742    39.268116   -911.97931    1406.4415   -4557.1037    2.1733248   0.20625154   0.10708071 
   24600    -954.5379    40.925408   -913.61249    1465.7997    -15892.49    2.1575102   0.29776609   0.10083932 
   24700    -956.3588    41.206677   -915.15212    1475.8737   -1026.8414    2.1961888  0.097263509  0.099803131 
   24800    -961.5476    40.286679   -921.26092    1442.9228    12735.017    2.2414545  0.030712405   0.10298551 
   24900   -953.46101    37.264237   -916.19677    1334.6698     6809.978    2.2140716  0.015876946    0.0941805 
   25000    -953.9403    39.762503    -914.1778    1424.1487   -5677.6893    2.1823578  0.071611083   0.11445014 
   25100   -955.23156     41.19103   -914.04053    1475.3133   -7980.6113    2.1796974   0.10673647   0.10771049 
   25200   -954.19239    42.391657   -911.80073    1518.3154    394.65935    2.1952441   0.13140708   0.10799848 
   25300   -947.96497    43.853836   -904.11113    1570.6854     3311.902    2.1901437  0.058531787   0.10625227 
   25400   -955.70168    43.453643   -912.24804    1556.3519    2316.1882    2.2024618   0.10170637  0.093864571 
   25500   -954.93814    40.592934    -914.3452    1453.8917   -3853.5878    2.1912254   0.17430346  0.095921238 
   25600   -952.76756    38.778688   -913.98887     1388.912   -4680.6985    2.1830976   0.24888415   0.11200129 
   25700   -946.09273    41.033491   -905.05924    1469.6709     677.1403    2.1769369   0.13166976   0.11991523 
   25800    -952.6512    40.305548   -912.34565    1443.5986    9290.3797    2.2151097  0.047697025  0.091232842 
   25900   -955.45939    41.150603   -914.30879    1473.8654    2352.7087    2.2072151   0.06225599   0.10835281 
   26000   -953.25947    40.208229   -913.05124    1440.1129   -6044.1861     2.175254  0.017402025  0.094215414 
   26100   -948.80669    43.381831   -905.42486    1553.7799   -11811.328    2.1534282   0.25172303   0.13873712 
   26200   -953.34604    38.916235    -914.4298    1393.8384    7158.5214     2.212726  0.050204893   0.12023847 
   26300   -953.46362    39.862127   -913.60149    1427.7168    15080.133    2.2322345  0.042886272   0.10020427 
   26400   -951.22318    38.691003   -912.53217    1385.7714    1333.9574    2.1941304   0.15776112   0.12192504 
   26500   -949.19576    43.367871   -905.82789    1553.2798   -15126.632    2.1475226    0.1041777   0.12324891 
   26600   -953.56088    38.453816   -915.10706    1377.2762   -527.68905    2.1910888   0.24011521   0.11487449 
   26700     -951.669    37.253844   -914.41515    1334.2976    4954.8831    2.2043793   0.16809881   0.11111784 
   26800   -955.30016    42.199629   -913.10053    1511.4377     1061.764    2.1999731   0.11249549   0.10840096 
   26900   -952.55726    42.178678   -910.37858    1510.6873   -1800.4423    2.1833864  0.052486726    0.1086325 
   27000   -945.57592    42.179299   -903.39662    1510.7095    -4127.198    2.1641713    0.2332574   0.12884816 
   27100    -951.5402    39.335269   -912.20493    1408.8467    2015.5985    2.1943155  0.015797301   0.12489573 
   27200   -955.78015    42.183823   -913.59632    1510.8716    5416.3936    2.2089889   0.20090104   0.09796566 
   27300   -953.98767    38.400984   -915.58669     1375.384    1107.6169    2.1983741  0.049513639   0.10498356 
   27400   -951.02734    43.133977   -907.89336    1544.9026   -4947.9207    2.1718354   0.14357214   0.10871028 
   27500   -948.41496    38.762177   -909.65278    1388.3206    237.41786    2.1817921   0.12127815    0.1209308 
   27600   -952.61924    38.588617   -914.03063    1382.1043    3722.9535    2.2003428  0.040829005   0.11227162 
   27700   -956.43472    41.325398   -915.10932    1480.1259    1516.7951    2.2050746    0.1481336    0.1084064 
   27800   -951.48952     45.03434   -906.45518    1612.9667   -3096.3416    2.1787853   0.14712836   0.12307868 
   27900   -952.04154    39.343004   -912.69854    1409.1237   -2103.4035    2.1888299   0.17511774   0.12038757 
   28000   -954.03675    39.170273   -914.86648    1402.9371   -363.40056    2.1935075   0.17994967   0.12208966 
   28100   -952.02972    40.589382   -911.44034    1453.7645    2327.5667    2.1966719  0.023512544   0.11398343 
   28200    -947.2208      40.5859    -906.6349    1453.6398    2501.3001    2.1892738  0.015027948   0.11590893 
   28300   -953.44422    38.533728   -914.91049    1380.1384    -168.2228    2.1963322   0.14648494   0.11886479 
   28400   -951.88773    37.788046   -914.09969    1353.4308   -1932.0492    2.1872584   0.12164323   0.11537496 
   28500   -948.67683    38.626609   -910.05022    1383.4651   -408.92701    2.1848953   0.37538721   0.13682567 
   28600   -947.43094    41.976891   -905.45405      1503.46    1713.8418    2.1879321   0.28860377   0.13609105 
   28700   -955.87153    41.650257   -914.22127    1491.7612    5478.9137    2.2104991   0.17239784   0.10423391 
   28800   -954.74938    40.876997   -913.87239    1464.0658   -119.29214    2.1983445   0.04639395   0.12577961 
   28900   -951.26042    37.641238   -913.61919    1348.1726   -5673.0694    2.1767205  0.061004025   0.12129774 
   29000    -950.6431    37.495096     -913.148    1342.9384   -1997.9015    2.1816487  0.083168879   0.11624226 
   29100   -948.50569    44.074738   -904.43095    1578.5973    8716.6049    2.2061522  0.044370224   0.10922832 
   29200   -946.70662    40.300479   -906.40614     1443.417    13145.661    2.2151515   0.14244122   0.12229578 
   29300   -950.31737    39.475174    -910.8422    1413.8576   -5910.2691    2.1774331   0.10167832   0.12005954 
   29400   -951.03999    36.900595   -914.13939    1321.6455   -9494.1665    2.1683782   0.27068349   0.11768412 
   29500   -955.64109    40.932587    -914.7085    1466.0568    -3185.958     2.194436  0.071934151   0.10960085 
   29600   -953.04634    46.512313   -906.53403    1665.9024    6156.0222    2.2038929   0.30718709   0.10021291 
   29700   -957.29597    46.633455   -910.66251    1670.2412    1916.1142    2.2029333   0.26311471   0.10924412 
   29800   -953.53367     38.75309   -914.78058    1387.9951   -2490.5278     2.187964   0.01776372   0.11132689 
   29900   -951.80698    38.228525   -913.57846    1369.2071   -4202.4546    2.1828397   0.10269518   0.12444088 
   30000   -948.93046    42.976849   -905.95361    1539.2749   -1329.6146    2.1829821   0.12523195    0.1313881 
   30100   -953.36314     39.27616   -914.08698    1406.7296    7975.2854    2.2143206  0.033180283   0.10129203 
   30200   -955.50786    40.773259    -914.7346    1460.3503    68.990189    2.2014095  0.083337786  0.094110365 
   30300   -951.69469    41.955041   -909.73965    1502.6774   -6969.9157    2.1746038   0.22503632   0.11435161 
   30400   -952.12499    42.357798   -909.76719    1517.1027   -6095.1362    2.1752929  0.057764696   0.11831281 
   30500   -953.78172    38.106332   -915.67538    1364.8306    3425.2999    2.2071813   0.29926082   0.10125755 
   30600   -956.32878    43.667551   -912.66123    1564.0133    6398.9562     2.212629   0.28923604  0.097491105 
   30700   -950.88257    39.793906   -911.08867    1425.2734     1015.709    2.1941452   0.11371957   0.11340887 
   30800   -955.38128     35.71616   -919.66512    1279.2233   -3274.4038    2.1954114  0.073844477   0.11556465 
   30900   -955.04774    39.521328   -915.52641    1415.5106   -5235.3898    2.1868585  0.056789783   0.10401179 
   31000   -952.91072    40.744455   -912.16627    1459.3186    1101.6159    2.1963121   0.14337079    0.1107144 
   31100    -956.1034    39.650975   -916.45242    1420.1541     2368.286    2.2071035   0.06367623   0.10694909 
   31200   -956.66753    37.887168   -918.78036    1356.9809    1908.8098    2.2060894   0.12732926   0.10335973 
   31300   -953.41869    40.932148   -912.48654    1466.0411   -848.67503    2.1902704   0.12437999   0.10442553 
   31400   -954.44988    40.579452   -913.87043    1453.4088   -2411.5249    2.1896548   0.09471547  0.093502115 
   31500   -956.10317    35.769934   -920.33323    1281.1493    2425.1874    2.2068838  0.068103783  0.099840773 
   31600    -953.3457    40.560425   -912.78528    1452.7273   -288.43722    2.1924978    0.2044628  0.095601835 
   31700   -952.28896     39.43733   -912.85163    1412.5021    1939.9844    2.1964289  0.023987354  0.099407057 
   31800   -955.68402    38.730052   -916.95397      1387.17    1771.6592    2.2030609   0.28164568  0.097273155 
   31900   -957.71091    38.685644   -919.02526    1385.5795   -1924.7586    2.2023738  0.040624563  0.098277916 
   32000   -951.95317    40.849016   -911.10415    1463.0636     -6285.44    2.1774888  0.036949149    0.1095855 
   32100   -953.19363    39.496451   -913.69718    1414.6196   -3048.0395     2.189563   0.06062595  0.098891548 
   32200   -953.04919    37.458347   -915.59084    1341.6221    6846.8646    2.2120564  0.095561177   0.10725613 
   32300   -952.96411    41.126894   -911.83722    1473.0162    8895.4576     2.213502   0.20432361   0.10296545 
   32400   -948.63645    40.383216   -908.25324    1446.3803   -1860.8712    2.1760706     0.783543   0.12499385 
   32500   -952.48765    38.490414   -913.99723     1378.587   -11679.007    2.1629744  0.080633276   0.10915416 
   32600   -952.92231    37.499797   -915.42251    1343.1067    -3131.118    2.1889201  0.038263986   0.11047031 
   32700   -951.44854    42.970145   -908.47839    1539.0348     12763.33    2.2193075 0.0072276059   0.10659132 
   32800   -952.94618    41.986019   -910.96016    1503.7869    8049.2107    2.2132188   0.10205813   0.10766026 
   32900    -953.8864    37.906369   -915.98003    1357.6687   -5842.7005    2.1818326   0.10622361   0.10208709 
   33000   -951.57598    39.415072   -912.16091    1411.7049    -5077.353    2.1742981  0.099040132   0.10106316 
   33100   -949.51642    41.383448   -908.13298     1482.205    831.55367    2.1836299   0.29824521   0.11082061 
   33200   -954.15256    37.301589   -916.85097    1336.0076    8297.4532    2.2181593   0.13697003  0.099709745 
   33300   -954.95636    41.145318   -913.81104    1473.6761     1448.563    2.1986605   0.10923762  0.099187115 
   33400   -952.58642    41.546236   -911.04019    1488.0355    -6242.371    2.1764182   0.24396868   0.11301897 
   33500    -957.1303    37.834674   -919.29563    1355.1008   -4838.2075    2.1921847  0.018286085   0.10634485 
   33600   -953.15428    37.741937   -915.41234    1351.7793    1054.4051    2.1961033  0.059000455   0.10154345 
   33700   -952.96898    41.427013   -911.54196    1483.7654    2943.9122    2.1981094   0.05515254   0.10907151 
   33800   -953.38448    36.016411   -917.36807    1289.9772     3774.789    2.2011622  0.088504916  0.089527168 
   33900   -953.48262    36.401578   -917.08104    1303.7725   -2552.1513    2.1893404   0.13029366    0.1022093 
   34000   -951.15328    39.374708   -911.77857    1410.2593   -2983.5642    2.1801704  0.023551785   0.11580851 
   34100   -955.92139     40.55737   -915.36402    1452.6179    659.97302    2.2004998  0.058898843   0.10336946 
   34200   -958.68371    40.718952   -917.96476    1458.4052    8332.2892    2.2225961   0.14871055  0.094652597 
   34300    -950.6806    40.988267   -909.69233    1468.0511   -651.99296    2.1835479   0.25502626   0.11040462 
   34400   -955.31717    41.095859   -914.22132    1471.9046   -14021.759    2.1627228  0.063925111   0.10134959 
   34500   -955.77445    39.816413   -915.95803    1426.0795   -6178.6947    2.1805037  0.034344098  0.095158673 
   34600    -951.9398    43.931472   -908.00833     1573.466    9134.7588     2.207965  0.045691253   0.10134543 
   34700    -953.0918     41.24312   -911.84868     1477.179    11274.915    2.2181987  0.064795586   0.09062541 
   34800    -955.3104    39.129333   -916.18107    1401.4708   -2887.5026    2.1873435  0.077079574   0.10208303 
   34900   -951.90392    40.877878   -911.02604    1464.0974   -10391.388    2.1643559  0.026070201   0.10989878 
   35000   -953.26399    43.133053   -910.13094    1544.8695   -3409.3665    2.1796469   0.21628749   0.10586502 
   35100   -955.51205    39.226873   -916.28517    1404.9643    7786.9944    2.2201426 0.0098174861   0.10851144 
   35200    -951.6857    39.715746   -911.96995     1422.474    6670.7168    2.2057425   0.13321108   0.10997555 
   35300   -951.46448    40.430609   -911.03387    1448.0778   -3993.6771    2.1774272  0.012412966   0.11189114 
   35400   -957.28597    39.026818   -918.25915    1397.7991   -5420.7222    2.1853822   0.16040112   0.10194365 
   35500   -954.47858     41.47317   -913.00541    1485.4186   -460.19292     2.193492   0.18077443   0.10996421 
   35600    -949.1684    38.049638   -911.11877       1362.8    7511.9357     2.199712  0.072398006   0.11453899 
   35700   -958.94096     39.90868   -919.03228    1429.3842    1214.4356    2.2075283  0.059726489  0.096323083 
   35800   -950.70497    37.484826   -913.22014    1342.5705   -3419.9356    2.1797696   0.09146933   0.12165364 
   35900   -952.26306    40.062988   -912.20007    1434.9109   -5519.0783    2.1769116   0.47460373   0.11057082 
   36000   -956.98285    38.359579   -918.62327     1373.901    2248.4317     2.204421  0.012560565    0.1030514 
   36100   -953.74972    40.345385   -913.40434    1445.0254    7888.4443    2.2090923   0.23278257   0.11740655 
   36200   -951.43806     41.11218   -910.32588    1472.4892    5216.7024      2.19917    0.4792616   0.13400181 
   36300   -953.97993     38.65956   -915.32037    1384.6452   -9658.5034    2.1683556   0.17081499   0.11365413 
   36400   -949.62738    36.077795   -913.54958    1292.1758   -13205.297    2.1535827    0.4013054   0.11228304 
   36500   -951.30528    42.152287   -909.15299    1509.7421    5048.9544    2.1991549   0.21804538   0.10809893 
   36600   -953.35384    40.697461   -912.65638    1457.6354    19383.092     2.237392   0.14725533  0.096110504 
   36700    -956.7071    40.621152   -916.08595    1454.9024    1447.9256    2.2040114  0.070647666    0.1044015 
   36800   -950.35094    42.265134   -908.08581    1513.7838   -7255.5322    2.1635613  0.013837155  0.095012663 
   36900   -952.61417    39.701055   -912.91311    1421.9478   -2332.2675    2.1846923  0.042480804   0.11028061 
   37000   -954.68788    39.345698   -915.34218    1409.2202    2030.8926    2.2032949   0.05583803   0.11464405 
   37100   -953.20807      42.4183   -910.78977    1519.2697     4757.171    2.2010427  0.061215677   0.11334803 
   37200   -952.47999    41.996763   -910.48323    1504.1718   -826.86013    2.1870617  0.066290628   0.11948334 
   37300   -955.08122    38.232293   -916.84892    1369.3421    -2652.345    2.1901391  0.071751365    0.1123823 
   37400   -955.96183    43.029583   -912.93224    1541.1636   -1104.8021    2.1940854   0.19810641   0.12286618 
   37500   -954.26285    43.829076   -910.43377    1569.7985    2632.3634    2.1985556  0.023823721   0.11230158 
   37600   -954.96048    36.024849   -918.93563    1290.2794    4080.6943    2.2114219  0.085103061   0.11148384 
   37700   -955.45764    40.887513   -914.57013    1464.4425    -6236.809    2.1839749  0.072043291   0.10237971 
   37800   -955.34809    43.287952   -912.06014    1550.4175   -10213.528    2.1748814  0.094611271   0.11741831 
   37900     -957.806    39.034597    -918.7714    1398.0777   -167.89551    2.2065276   0.15851656   0.10708378 
   38000   -954.10293    38.249578   -915.85335    1369.9612    10032.996    2.2215984  0.055149649   0.12148594 
   38100   -951.76816    40.261988   -911.50617    1442.0384    5664.5035     2.204423  0.054049384   0.11751534 
   38200   -953.29569    37.065103   -916.23059    1327.5376   -7316.8099    2.1766017   0.18382423   0.11504929 
   38300   -954.77448    36.858497   -917.91598    1320.1377   -9389.0378    2.1764642   0.13413079   0.12946006 
   38400   -955.48096    44.535243   -910.94572    1595.0909   -162.09643    2.1994462  0.045275889   0.12485691 
   38500   -953.28467    39.946167    -913.3385    1430.7268    11523.204    2.2224061  0.088027508   0.11859559 
   38600   -955.47309    38.249683   -917.22341    1369.9649    2602.9073    2.2078003   0.10088835   0.11387571 
   38700   -950.11237    41.459809   -908.65256      1484.94   -10364.593    2.1642791  0.096655404   0.12260684 
   38800   -954.42124    41.243709   -913.17753    1477.2001   -4979.8033    2.1839331  0.028497431   0.12011446 
   38900   -955.74837    40.352876   -915.39549    1445.2937    4892.0183    2.2105549   0.12243472   0.10876033 
   39000   -949.08296    39.700319   -909.38264    1421.9215    6855.2363     2.204777   0.10692413   0.11602759 
   39100   -948.36331    37.181705   -911.18161    1331.7138    84.239924    2.1851788   0.13238674   0.12066532 
   39200   -952.89517    36.538737   -916.35643    1308.6851   -2095.5772    2.1888353   0.06319347   0.11369696 
   39300   -952.70256    41.119454   -911.58311    1472.7497   -600.47316    2.1911962   0.10106834   0.11554732 
   39400    -951.6427    41.036828   -910.60587    1469.7904    138.05472     2.191552  0.075806252   0.12620738 
   39500   -956.26391    39.062983   -917.20093    1399.0944    1377.5237    2.2048947 0.0067318512   0.11517305 
   39600    -953.3666    40.949381   -912.41722    1466.6583    508.18842    2.1932874  0.070707247  0.096830154 
   39700   -951.84817    40.196275    -911.6519    1439.6848   -1684.4065    2.1865991   0.27813732   0.11504279 
   39800   -954.43357    35.386368    -919.0472    1267.4114    3955.6303    2.2069693   0.03361733   0.10333468 
   39900   -950.99616    38.194025   -912.80213    1367.9715    770.60519    2.1947776  0.052523928    0.1265423 
   40000    -952.5263    40.083468   -912.44283    1435.6445   -536.63987    2.1912399  0.036594606   0.12004843 
   40100   -956.72673     37.49056   -919.23617    1342.7759    -860.4707    2.2040887    0.1968851   0.10497916 
   40200   -952.62355    40.142455    -912.4811    1437.7572    297.10193    2.1943537  0.021947918   0.10966278 
   40300   -954.08118    41.843666   -912.23751    1498.6884    2300.6304    2.2013032  0.056823291   0.11425753 
   40400   -953.60987    35.883432   -917.72644    1285.2144    2592.5771    2.2053217   0.01220555   0.11448447 
   40500   -951.38039    39.633128   -911.74727    1419.5149   -701.03333    2.1879919  0.058820881   0.11681186 
   40600   -954.51345    43.188754   -911.32469    1546.8646   -1209.4544    2.1893213  0.060793555   0.09882055 
   40700   -953.77618    37.654135   -916.12204    1348.6346    1672.0056    2.2027624  0.049559012   0.10421891 
   40800   -951.88658    39.043704   -912.84288    1398.4039      3354.43    2.1980047   0.20457451   0.11789037 
   40900   -951.03196     41.56388   -909.46808    1488.6675    -2368.723    2.1824043   0.10442732   0.11751743 
   41000   -954.70019    38.631929   -916.06826    1383.6556   -4197.9649    2.1878913   0.14130551  0.098378598 
   41100   -952.99339    39.973581   -913.01981    1431.7087    1583.2346    2.1966699   0.06218257   0.10709315 
   41200   -951.32089    43.490656   -907.83023    1557.6776    4609.1006    2.1983081     0.016136   0.11465577 
   41300   -953.77886    37.860868   -915.91799     1356.039    3670.8468    2.2068019  0.059589589   0.11867049 
   41400   -955.72696    41.712691   -914.01427    1493.9973   -5967.6569    2.1837478  0.034431866   0.10987542 
   41500   -952.03732     42.53207   -909.50525    1523.3445   -6516.9785    2.1736441  0.067736138   0.10556514 
   41600   -956.20568    38.039138   -918.16654     1362.424    3496.4832    2.2126535   0.04980758   0.10089008 
   41700   -954.09393    39.768757   -914.32517    1424.3726    9348.6928    2.2173124  0.047616102   0.10331432 
   41800   -951.97905    40.840395   -911.13865    1462.7548    1.3311673    2.1916735  0.091520738    0.1182345 
   41900   -954.99809    37.479896   -917.51819    1342.3939   -9947.4091      2.17555  0.069085275   0.11068409 
   42000   -954.64705    38.549534   -916.09751    1380.7045   -6324.1792    2.1838409   0.17811567   0.10732356 
   42100   -954.31109    43.435829   -910.87526    1555.7139    5477.4375    2.2107971   0.09667049   0.11507275 
   42200   -955.83261    40.175481   -915.65713      1438.94    10540.268     2.225871  0.088898162   0.12140194 
   42300   -955.18162    36.675953   -918.50566    1313.5996    55.466318    2.1978807   0.11599449    0.1146428 
   42400   -951.38783    40.446107   -910.94172    1448.6329   -11444.949    2.1600085  0.022355459   0.11403843 
   42500   -952.97179    38.201425   -914.77036    1368.2365   -4002.0921    2.1865437   0.12512159   0.10382412 
   42600   -956.48137    40.015903   -916.46547    1433.2245    6094.9548    2.2152825  0.091132083   0.10538555 
   42700    -947.0017    38.448188   -908.55352    1377.0746    6079.7841    2.1965691  0.015201357   0.11295982 
   42800   -954.75138    40.320425   -914.43096    1444.1314   -1637.1129    2.1946397  0.027108538   0.10175607 
   42900   -953.83009    37.726874   -916.10321    1351.2398   -2886.6937    2.1910263   0.20722386   0.10403687 
   43000   -950.69312    42.282417   -908.41071    1514.4029   -2524.8775    2.1839188  0.094879472   0.10869364 
   43100   -955.27439    40.520244   -914.75415    1451.2882    2765.6741    2.2063359  0.055234589   0.11223016 
   43200   -954.61503    39.033869   -915.58116    1398.0516    2824.4328     2.204883  0.026803006   0.10780066 
   43300    -950.6983    41.322356   -909.37594    1480.0169   -2553.3804    2.1818107   0.23311947   0.13010918 
   43400   -952.16096    37.004914   -915.15605    1325.3818   -3758.1668    2.1879744  0.087779271   0.10941915 
   43500   -952.86293    36.842671   -916.02025    1319.5709   -698.41401    2.1966142  0.039290908   0.10931052 
   43600    -951.3985    41.143134   -910.25537    1473.5979    5462.4347    2.2042962    0.1356246    0.1121604 
   43700   -953.70582    38.087873   -915.61795    1364.1695     5331.921    2.2122279   0.16342488  0.098202282 
   43800    -954.1126    37.133326   -916.97927    1329.9811   -3886.1188    2.1878445   0.15596255   0.10757121 
   43900   -949.24967    37.366895   -911.88277    1338.3467   -7875.4588    2.1706255   0.20988507   0.10349926 
   44000   -952.97464    38.591769   -914.38287    1382.2172      1270.14    2.2025024  0.092034797   0.11182464 
   44100   -955.22435    37.584847    -917.6395    1346.1529    14358.455    2.2376312  0.071764189   0.11291726 
   44200   -952.02009     41.44119    -910.5789    1484.2731    4714.2952    2.2054639   0.12697464   0.10553552 
   44300   -956.83069    42.757069   -914.07362    1531.4031   -12041.648    2.1704079   0.21636513    0.1101416 
   44400   -955.95059    37.642474   -918.30812    1348.2169   -9512.0673    2.1798785  0.039160394   0.10398412 
   44500    -950.4927    39.925318   -910.56738    1429.9801    5769.0212    2.2007816  0.099211092   0.12034628 
   44600   -955.52715    43.389599   -912.13755    1554.0581    7476.5074     2.217821  0.029457644   0.10621529 
   44700   -955.30053    38.251676   -917.04885    1370.0363    2113.1003    2.2032256   0.17804178   0.10485573 
   44800   -949.04791    39.152344   -909.89556     1402.295    -5022.714    2.1717566   0.18146918   0.10929139 
   44900   -953.03467     41.12482   -911.90985    1472.9419    -3463.256    2.1836644   0.13292877   0.10503447 
   45000   -957.50731     41.33462   -916.17269    1480.4562    2001.0614    2.2057647   0.18247072   0.10614734 
   45100   -952.11262    41.830192   -910.28242    1498.2058    4011.6101    2.2007858   0.15299668   0.11463101 
   45200   -953.57644    41.695908   -911.88053    1493.3962   -1442.6876    2.1890424   0.14362065   0.11343685 
   45300     -956.817    39.837344   -916.97965    1426.8292   -6036.0161    2.1879836   0.21772787     0.105845 
   45400   -951.39008    39.971198   -911.41888    1431.6234   -726.24331    2.1889989   0.16824229   0.10768821 
   45500   -950.94883    39.071939   -911.87689    1399.4151    5704.4622    2.2036506   0.05010416   0.11207498 
   45600   -956.78915    39.240859   -917.54829    1405.4653    4267.7505    2.2128084   0.14177053   0.10458311 
   45700   -952.64877    40.737966   -911.91081    1459.0862    -1931.512    2.1888014  0.073603406   0.11359324 
   45800   -952.97543    40.050597   -912.92483    1434.4672   -9019.3249    2.1697734  0.017130343   0.10583821 
   45900   -957.10403    37.643027   -919.46101    1348.2367   -3365.7656    2.1952016   0.10608375  0.099932614 
   46000   -950.27213    38.274188   -911.99795    1370.8426    14159.232    2.2242901  0.099962711   0.11713125 
   46100   -952.66466    40.494722   -912.16993    1450.3741    13052.344    2.2247658   0.16060571   0.10396072 
   46200    -956.3943    37.735703    -918.6586     1351.556   -7553.1257    2.1835197   0.21289391   0.11244597 
   46300   -948.35915    36.444015   -911.91514    1305.2925   -11138.412    2.1557083   0.12980804    0.1071805 
   46400   -951.27889    40.051128   -911.22776    1434.4861    1737.7924    2.1925405   0.23069938   0.10293632 
   46500   -954.56489    38.989953   -915.57493    1396.4787    11023.273    2.2223079   0.02858799  0.099395228 
   46600   -952.58368    38.987226   -913.59645    1396.3811     4716.847    2.2059406  0.092265025   0.11390998 
   46700   -948.93686    39.763993   -909.17287     1424.202   -5616.2361    2.1715536   0.23846729   0.11594719 
   46800   -953.30399    37.169851   -916.13414    1331.2893   -5002.1206    2.1845535   0.14459604   0.11102774 
   46900   -953.09736    39.508666    -913.5887    1415.0571    1883.8955    2.1989134  0.066850342    0.1159375 
   47000   -952.39342    44.433072   -907.96035    1591.4315    3644.6681    2.1982627    0.0612379   0.11385548 
   47100   -954.49483    38.331762   -916.16307    1372.9047    2501.3009    2.2047837   0.20253392   0.12125839 
   47200   -952.79182    38.548497   -914.24333    1380.6674   -4283.0422    2.1818795  0.082612975   0.10046176 
   47300   -951.44468    41.553056   -909.89162    1488.2798   -5637.5163    2.1728768  0.035292384   0.12113647 
   47400   -953.13248    34.760679    -918.3718    1245.0015    5250.5925    2.2101433 0.0063255594   0.11909982 
   47500   -950.98116    36.318506   -914.66265    1300.7972    7473.9188    2.2114721   0.15361509   0.12168543 
   47600   -951.96525    40.678063   -911.28719    1456.9407   -1014.0858    2.1896462  0.026446629   0.12406407 
   47700    -953.3058    35.584763   -917.72103    1274.5172   -8788.3626    2.1753043   0.14951717   0.10944708 
   47800   -953.53656    37.360668   -916.17589    1338.1236   -5915.0557    2.1802527   0.10600956     0.112002 
   47900   -951.52131    40.916783   -910.60453    1465.4908    11863.479    2.2186449   0.05491225   0.12227269 
   48000    -952.4076    37.849483   -914.55812    1355.6312    15828.225    2.2353906   0.26128789    0.1213605 
   48100   -957.12489    37.838843   -919.28605    1355.2501   -6574.8041    2.1896796   0.14835653    0.1213539 
   48200   -949.91545    39.160364   -910.75508    1402.5822   -15367.234    2.1484883    0.1691786   0.11316743 
   48300   -950.64443    37.028392   -913.61604    1326.2227   -656.12335    2.1881438   0.23830187   0.11055481 
   48400   -955.82686    39.270003   -916.55686    1406.5091    8355.6066    2.2197117  0.060229812   0.11452699 
   48500    -948.9295     40.51436   -908.41514    1451.0775    5227.5538    2.1971585  0.095280763   0.11390329 
   48600   -953.76998    40.248647   -913.52133    1441.5606   -3342.6369    2.1862193  0.014332248   0.11584325 
   48700   -954.11398    37.896289    -916.2177    1357.3076   -3783.2347    2.1864236  0.019782737   0.11027717 
   48800    -951.2211    42.347498   -908.87361    1516.7338   -68.058733    2.1867744   0.19760846   0.12180933 
   48900   -954.23172    40.329523    -913.9022    1444.4573    5685.5072    2.2113856   0.22983257   0.12477916 
   49000   -955.21677    39.315772   -915.90099    1408.1484    2110.1602    2.2052551   0.10375036   0.10985288 
   49100    -949.7642    39.197258   -910.56695    1403.9036   -2845.0872    2.1798374   0.37765494   0.12006603 
   49200   -953.24839    40.120311   -913.12808     1436.964   -7150.9458    2.1784551   0.15414296   0.11573947 
   49300   -955.79459    38.647126   -917.14747    1384.1999    1031.9547    2.2031816   0.25625694   0.10762729 
   49400   -950.24129    39.296068   -910.94522    1407.4426    10034.387    2.2144915   0.37391313   0.11001167 
   49500   -954.20245    40.185752    -914.0167    1439.3079    3173.0595    2.2045769   0.24097295    0.1052905 
   49600   -954.57429    35.408433   -919.16585    1268.2017   -8468.4833    2.1798259   0.11729131   0.11689774 
   49700   -954.29155    41.571512   -912.72004    1488.9408   -10664.597    2.1693369   0.28424299   0.10895566 
   49800   -953.31464    41.055277   -912.25936    1470.4511    5994.9148    2.2075931   0.26081733   0.11232217 
   49900   -956.49281    38.349571   -918.14324    1373.5426    14081.012    2.2370209   0.13653728   0.11625055 
   50000   -950.94944    40.265706   -910.68373    1442.1716   -488.54075    2.1875867  0.080762012   0.11368437 
   50100   -952.10991    39.573875   -912.53603    1417.3927   -10394.036     2.165916   0.36502167   0.11196751 
   50200   -955.07437    38.448279   -916.62609    1377.0779   -3979.5993    2.1880241  0.076911898  0.095479827 
   50300   -951.98147     37.74654   -914.23493    1351.9442    8238.5684     2.212205   0.27609898   0.10660098 
   50400   -951.92582    42.195737   -909.73009    1511.2983    3783.0218    2.1971632  0.034029211   0.10094831 
   50500   -954.38008    38.865053   -915.51502    1392.0053   -2978.5565    2.1924465   0.15753152   0.10228611 
   50600   -954.32112    39.837242   -914.48387    1426.8255     -4236.34    2.1890123   0.13299287   0.10687119 
   50700   -952.23801    44.375722   -907.86229    1589.3774   -2525.7563    2.1806405    0.2802162   0.10682671 
   50800     -957.169    41.799758   -915.36924    1497.1158    1282.3385    2.2065751  0.039206118   0.10165147 
   50900   -955.20617    40.693776   -914.51239    1457.5035    2516.6946    2.2052987   0.39481804    0.1016592 
   51000   -947.05378    38.996987    -908.0568    1396.7306   -265.70461    2.1823812   0.18973067   0.12564673 
   51100   -951.95311     36.10375   -915.84936    1293.1054   -738.27179    2.1917317  0.017605288   0.10984485 
   51200    -952.7758    37.656181   -915.11962    1348.7078   -1638.6923    2.1938877   0.15269019   0.10847235 
   51300   -949.22317     39.22573   -909.99744    1404.9234    2969.1561    2.1970442   0.14376715   0.11582005 
   51400    -952.5249    36.244996    -916.2799    1298.1643    6990.8772    2.2109852   0.08702017   0.10712983 
   51500   -952.03673      35.6332   -916.40353     1276.252   -2413.5207    2.1897401   0.22699434   0.11062952 
   51600   -951.57813    39.398388   -912.17975    1411.1074   -7853.0059    2.1708239  0.089238986   0.10795222 
   51700   -953.22914    39.137676   -914.09147    1401.7696    221.52095    2.1929407  0.066980257   0.11185957 
   51800   -955.67878    37.429523   -918.24926    1340.5898    13905.068    2.2353532  0.027613842    0.1225514 
   51900   -951.01677    39.633324   -911.38345    1419.5219    8143.7594    2.2096345  0.055911338   0.12335014 
   52000   -951.01041    37.172338   -913.83807    1331.3783   -8921.0189    2.1682378   0.23707188   0.12342635 
   52100   -953.31208    34.114803   -919.19727    1221.8685   -7512.9373     2.176632  0.070927917   0.10064415 
   52200   -953.83148    40.399725   -913.43176    1446.9717    2665.7898    2.2015752   0.20849853   0.10452337 
   52300   -950.96355    39.298132   -911.66542    1407.5166    9960.4009    2.2147532  0.077218246   0.11429188 
   52400    -952.8344    36.269849   -916.56455    1299.0544    2709.1114    2.2023615 0.0095924172   0.10567341 
   52500   -950.71291     38.11095   -912.60196     1364.996   -3399.9037    2.1814983  0.021947534    0.1162625 
   52600   -949.28186    39.066035   -910.21583    1399.2037   -3999.1521    2.1790113   0.24573637   0.10904183 
   52700   -954.47654    39.391975   -915.08456    1410.8777    2045.7819    2.2004964  0.088050524  0.090831154 
   52800   -957.17194    42.471889   -914.70005     1521.189    2056.1408    2.2064354   0.21492813  0.098735573 
   52900   -950.71348    43.017784    -907.6957     1540.741   -3020.9971    2.1803903   0.16782563   0.12281294 
   53000   -952.43043    37.305928    -915.1245     1336.163   -1712.1759    2.1903393   0.13063323   0.11148294 
   53100   -954.08907    39.498723   -914.59035     1414.701    1067.1766    2.1945651   0.44151126  0.099836785 
   53200   -952.18435    44.301456   -907.88289    1586.7175    1700.4878    2.1917006   0.12454874   0.10902804 
   53300   -955.84165    40.229847    -915.6118    1440.8872    2334.7325    2.2057779  0.059902577   0.10681006 
   53400   -953.90758    38.854716   -915.05287     1391.635   -6123.2508    2.1787394   0.10168675   0.11435929 
   53500   -953.59135    42.793503   -910.79785    1532.7081   -10267.645    2.1640872  0.087611499   0.10103296 
   53600   -956.78412     38.96539   -917.81873     1395.599    3480.2696    2.2115587  0.041592815   0.10564962 
   53700   -956.31756    40.074183   -916.24338    1435.3119    11516.545    2.2300081  0.075043332  0.093292524 
   53800   -948.79429    37.214065   -911.58022    1332.8729     5261.853    2.1991518  0.088904668   0.10144431 
   53900     -955.206    40.773028   -914.43297     1460.342   -13369.549     2.166067   0.27895752   0.10705973 
   54000   -954.23292     34.66854   -919.56438    1241.7014   -6054.0575    2.1838311  0.076516889   0.10493492 
   54100   -949.09855    37.104838   -911.99371    1328.9607    6323.6945    2.2037532   0.24407082   0.11753047 
   54200   -949.22487      36.3473   -912.87757    1301.8285    12002.588     2.212812   0.13597763   0.10765572 
   54300   -954.74044    36.166058   -918.57438    1295.3371    1675.9794    2.1991652    0.2293052   0.10844462 
   54400   -949.64312    38.494112   -911.14901    1378.7195   -4585.5483    2.1744134   0.11322868   0.11103634 
   54500   -951.11051    39.206287   -911.90423     1404.227   -357.46297    2.1883197   0.13383786   0.10384411 
   54600   -956.19782    40.640609   -915.55721    1455.5992    3803.8808    2.2078498 0.0024896577  0.090505667 
   54700    -957.2398    41.253564   -915.98624     1477.553    756.79766    2.2050976  0.029075186   0.10338639 
   54800   -949.29103    40.647872   -908.64315    1455.8594   -2930.9329    2.1748994   0.10503846   0.10658428 
   54900   -953.03566    38.473988   -914.56167    1377.9987   -2188.4789    2.1876511  0.068135013    0.1048915 
   55000     -953.691    38.796842   -914.89416    1389.5622    1849.5689     2.201724   0.36617717   0.11432248 
   55100   -947.81172    40.772004   -907.03971    1460.3053    4019.6482    2.1916763   0.13987559   0.12588209 
   55200   -956.49085    42.443053    -914.0478    1520.1562   -813.61635    2.1980585  0.066863033   0.12041994 
   55300   -953.78829     38.46392   -915.32437    1377.6381   -3023.3493    2.1899406  0.086600187   0.11828526 
   55400   -950.00862     40.71295   -909.29567    1458.1902   -2435.6771    2.1817778  0.011858455   0.10093479 
   55500   -952.97195    39.822787   -913.14916    1426.3078    879.15712    2.1950581  0.034172295   0.10016234 
   55600   -952.27057    36.410965    -915.8596    1304.1087    4667.0203    2.2045102  0.026612467   0.10615587 
   55700    -953.7982    41.900966   -911.89724    1500.7407    427.44447    2.1982228  0.042431511   0.11594356 
   55800   -951.57667    40.115722   -911.46095    1436.7997   -1658.6543    2.1874154   0.23705775   0.12292948 
   55900   -955.44174     36.97736   -918.46438    1324.3949    183.35329     2.200918   0.07392711    0.1028185 
   56000   -954.10616     40.93558   -913.17058     1466.164    1642.9523     2.196142   0.12728493   0.10457303 
   56100   -954.90792    43.062722    -911.8452    1542.3505    922.24759    2.1969267   0.23491149   0.10560371 
   56200   -956.44708    36.620083     -919.827    1311.5986    1482.2222    2.2078897   0.15545171   0.12151798 
   56300   -950.85055    37.059554     -913.791    1327.3388   -3651.0616    2.1813613  0.098783444   0.12783192 
   56400   -950.98503    38.540705   -912.44432    1380.3883   -4485.5317    2.1803794  0.084416314   0.10939883 
   56500   -956.40965    39.215739   -917.19391    1404.5656    8608.8598    2.2213281  0.069720768   0.10507266 
   56600   -957.71968    40.387295   -917.33239    1446.5264    9663.5147     2.227667  0.015853573  0.098134908 
   56700   -953.01092    41.480552   -911.53036    1485.6829   -4500.9314      2.17877   0.19478683   0.11537508 
   56800   -954.61749    39.048773   -915.56871    1398.5855   -11764.551    2.1640825  0.020890685   0.11290027 
   56900   -953.63373    37.275787   -916.35794    1335.0835    -1028.031    2.1923161   0.20740667   0.10524911 
   57000    -951.6224    43.129068   -908.49333    1544.7268    7349.6774    2.2053389    0.2003894    0.1093446 
   57100   -952.78166    39.540558    -913.2411    1416.1994    6800.5672    2.2087985  0.094888686   0.11703422 
   57200   -954.82273    38.510256   -916.31248    1379.2977   -2580.1564    2.1869516  0.082255889   0.10541137 
   57300    -949.0911    40.611083   -908.48001    1454.5417   -6446.1112    2.1655028 0.0040136385    0.1223599 
   57400   -953.30775    41.125639   -912.18211    1472.9713    552.67367    2.1960485    0.1273263   0.10874822 
   57500   -954.85234    39.780128   -915.07221    1424.7799    7414.1574    2.2158741  0.084030984   0.10740333 
   57600   -952.24431    40.522433   -911.72188    1451.3666    2297.9274    2.1982351  0.051603974   0.11973194 
   57700    -950.2441    41.370454   -908.87365    1481.7396   -9095.3384     2.166464   0.16278602   0.10790097 
   57800   -954.80016    37.982287   -916.81787    1360.3878   -3469.7061    2.1901293   0.16224466   0.11200709 
   57900   -954.72398    41.643986   -913.07999    1491.5365     5528.828    2.2113741   0.13687632   0.11316055 
   58000   -950.54819    40.653729   -909.89446    1456.0691    6434.5264    2.2054349   0.41820506   0.12615787 
   58100   -953.90499    35.769731   -918.13526     1281.142   -1711.2018    2.1943669   0.12156849   0.12074854 
   58200   -954.81741    39.376936   -915.44048     1410.339   -10257.959     2.172401  0.058587401   0.10550592 
   58300   -952.92793    41.095746   -911.83219    1471.9006   -4203.7648    2.1831454  0.077685922   0.11571541 
   58400   -954.08278    36.823461   -917.25932    1318.8828    7407.7857    2.2174084 0.0062994741   0.10180728 
   58500   -954.67838    37.040033   -917.63835    1326.6397    6795.0654    2.2152916  0.010774846   0.11030117 
   58600   -952.96622     40.74444   -912.22178    1459.3181   -2329.6172    2.1863849  0.098993992   0.10684733 
   58700   -954.47148    39.511295   -914.96018    1415.1513   -5980.1468    2.1821411  0.038271144   0.09576014 
   58800    -957.7063    37.874271   -919.83203     1356.519   -266.68221    2.2043362   0.12810616   0.10521622 
   58900   -952.15648    40.876812   -911.27966    1464.0592     2838.397    2.1938426   0.40622203   0.10234442 
   59000   -951.69706    38.486388   -913.21067    1378.4428    1951.1782    2.1978851   0.10257843   0.13014642 
   59100   -957.43936    40.148774   -917.29058    1437.9835   -1313.0534    2.1983137   0.13470076   0.11229646 
   59200   -953.96183    42.190763   -911.77107    1511.1201   -2637.8074    2.1894814  0.058742525   0.10687406 
   59300   -950.20446    39.873637   -910.33082    1428.1291    787.10425    2.1874096   0.65018153   0.10289849 
   59400   -954.17316    39.212665   -914.96049    1404.4555    8.1487944    2.1958817  0.056517686   0.10082363 
   59500   -958.39998     41.52656   -916.87342    1487.3308   -4080.0408    2.1952746  0.094012617   0.10443652 
   59600    -948.6461    40.330919   -908.31518    1444.5073   -1919.4251     2.178784  0.071899599   0.10857328 
   59700   -953.35621    39.596146   -913.76006    1418.1904      2538.72    2.2019447  0.052940004   0.11184423 
   59800   -954.20868    38.575166   -915.63351    1381.6226    4299.6849    2.2100505   0.25312446   0.11439646 
   59900    -950.1893    42.361123   -907.82818    1517.2218   -2119.4659    2.1825221  0.025667665   0.13496713 
   60000    -953.9021    40.746051   -913.15605    1459.3758   -5663.7141     2.183799   0.27066912    0.1213661 
   60100   -956.23697    40.763754   -915.47322    1460.0098   -2294.7599    2.1949568    0.1702801   0.10687477 
   60200   -955.68666    45.847732   -909.83893    1642.0995    6306.9135     2.211207  0.053384293   0.10106723 
   60300   -954.46106    42.570484   -911.89057    1524.7204    5171.9062    2.2073529  0.042573707  0.097586745 
   60400   -955.11149     38.28952   -916.82197    1371.3918   -6333.1906    2.1832557  0.090280561   0.10556934 
   60500   -951.39274    38.260755   -913.13198    1370.3615   -7570.4116    2.1732171  0.020658039   0.10296933 
   60600   -952.87891    43.029959   -909.84895    1541.1771    937.94972    2.1969702  0.015678876   0.11019686 
   60700   -957.14855    38.775715   -918.37283    1388.8055    10550.794    2.2323318   0.18953289  0.099568784 
   60800   -955.73259    41.521989    -914.2106    1487.1671    221.00307    2.2003839   0.21180326   0.11298693 
   60900   -953.66694    41.466638    -912.2003    1485.1846   -9518.4797    2.1706508   0.13312294    0.1293959 
   61000   -959.44083    40.722314   -918.71852    1458.5256   -7728.6692    2.1883319   0.22331049   0.12331858 
   61100   -956.30581    40.324509    -915.9813    1444.2777     3565.462    2.2098493  0.082753755   0.11791888 
   61200   -953.56291    42.188364   -911.37455    1511.0342    6455.4948    2.2114435  0.070223973    0.1221989 
   61300   -955.84899    39.411974   -916.43701     1411.594   -130.69545    2.1980732    0.1646789   0.10171239 
   61400   -955.60878    38.045638   -917.56314    1362.6568   -4867.8558    2.1887986  0.053470215   0.10687494 
   61500   -953.81146    43.232264    -910.5792    1548.4229   -3607.3958      2.18306   0.27344407  0.099879343 
   61600   -950.94338    36.435523   -914.50785    1304.9883    2155.0551    2.1977586   0.16635363   0.10799841 
   61700    -956.4097    39.899339   -916.51036    1429.0496    2650.3579    2.2047212  0.063395393     0.105129 
   61800   -949.84159     41.70266   -908.13893    1493.6381   -1421.9776    2.1795375  0.087022699   0.11289244 
   61900   -955.09015    40.956273   -914.13387    1466.9052   -2085.4534    2.1911391   0.21566516    0.1225422 
   62000   -953.95838    38.445055   -915.51332    1376.9624    2276.1255     2.198377   0.18114023   0.12158783 
   62100   -951.71135    43.544878   -908.16647    1559.6196    632.82449    2.1879305  0.032817794   0.13035348 
   62200   -954.32491    40.025839   -914.29907    1433.5804    1472.4222    2.1982019   0.15590701   0.11667478 
   62300   -956.34548    40.396042   -915.94944    1446.8397   -4635.4618    2.1881611   0.12433096   0.10737043 
   62400   -952.88853    42.685961   -910.20257    1528.8563   -3487.3559    2.1790421  0.053822874  0.099046611 
   62500   -954.34463    40.031077   -914.31355     1433.768    1729.3022    2.1984061   0.20045423  0.089176221 
   62600    -955.7903    39.262308   -916.52799    1406.2335    5220.6568    2.2115762   0.20670522  0.095700763 
   62700   -954.71647    43.347342   -911.36913    1552.5446    1090.6625    2.1950391  0.099324713  0.098941845 
   62800   -952.56742    38.836538   -913.73088     1390.984   -7085.3705    2.1724063  0.094366857   0.11187823 
   62900   -955.54231    36.747785   -918.79453    1316.1724   -6166.8066    2.1827943   0.11868253   0.10671714 
   63000   -953.37636    41.345746   -912.03061    1480.8547    5172.8292    2.2048209    0.1133704   0.12266185 
   63100   -953.40412    40.374627   -913.02949    1446.0727    8741.1487    2.2186073  0.025664419    0.1251014 
   63200   -958.00002    38.445888   -919.55414    1376.9923   -1223.4325    2.2034578  0.082530278    0.1129255 
   63300   -953.59019    41.851764   -911.73843    1498.9784   -11947.949    2.1638974  0.068140886   0.11781635 
   63400   -953.96699    41.042475   -912.92451    1469.9926   -4120.4007    2.1835474   0.05914439    0.1110853 
   63500   -958.06552     41.54758   -916.51794    1488.0837    6250.2393    2.2215607 0.00071766701   0.09854629 
   63600   -953.79063    42.975758   -910.81487    1539.2358    8695.0694    2.2139244    0.1132109  0.094905332 
   63700    -951.9128    41.210764   -910.70203    1476.0201   -2181.9431    2.1846005   0.12685023  0.098391818 
   63800   -955.84572    39.771389   -916.07433    1424.4669   -10198.117    2.1770313   0.15939881   0.10052409 
   63900   -952.60407    40.176298   -912.42777    1438.9693   -135.32728    2.1904264   0.14542957   0.11056807 
   64000   -950.23355    42.135657    -908.0979    1509.1464    5441.8334     2.198978  0.081143312   0.12215036 
   64100   -955.54518    40.232609   -915.31258    1440.9861    4489.9776    2.2082669   0.19052291   0.11313336 
   64200   -953.86068    40.003925   -913.85675    1432.7955   -2915.8007     2.190632  0.046800608   0.12472316 
   64300   -951.88702    43.815534   -908.07149    1569.3135   -6137.0416    2.1743875   0.10911885   0.12506368 
   64400   -956.43504    39.738891   -916.69614     1423.303     979.0958    2.2017248   0.02300754  0.099083842 
   64500   -952.76107    38.087703   -914.67337    1364.1634    2941.0166    2.2001721    0.1488928   0.10060542 
   64600   -953.10471    42.321246   -910.78346    1515.7936   -458.84812    2.1890014  0.087461021  0.099621489 
   64700   -956.00034    38.780373   -917.21997    1388.9723   -1890.4846    2.1946437  0.097234985  0.095386301 
   64800   -954.11509    37.312086     -916.803    1336.3836    -1283.791    2.1942645   0.11515212  0.095069532 
   64900   -952.86568    40.973765   -911.89191    1467.5317    1635.7636    2.1959241   0.18590441    0.1058759 
   65000   -953.68297    38.440907   -915.24206    1376.8139    2967.8856    2.2012059  0.035023551   0.10050233 
   65100   -954.50053    35.311358   -919.18917    1264.7248      1786.99    2.2046145   0.11902154   0.10521566 
   65200   -951.69478    39.516902   -912.17788    1415.3521   -3013.8122    2.1841935  0.071241454   0.11492984 
   65300   -953.93724    40.017907   -913.91933    1433.2963   -1239.0054    2.1876938 0.0034377865   0.10975836 
   65400   -957.73737    38.178983   -919.55839    1367.4327    2404.5952    2.2135313  0.048476738    0.1147372 
   65500   -953.23064    41.723295   -911.50735    1494.3771    7801.2621    2.2107406   0.23625186   0.10964053 
   65600   -951.14865     38.82858   -912.32006    1390.6989    1856.6566    2.1931431   0.25924165   0.10191266 
   65700   -952.38657    35.803004   -916.58357    1282.3338   -9535.7012    2.1734178  0.098934171   0.10255127 
   65800   -955.81447    43.095808   -912.71867    1543.5355   -5398.2407    2.1848235   0.25116192  0.093074703 
   65900     -953.476    44.114565   -909.36143    1580.0237    6813.5187    2.2113313   0.11160617   0.11496327 
   66000   -955.88793    41.444047   -914.44388    1484.3755    4549.2536      2.21427   0.13382524   0.11182436 
   66100   -955.37059    39.884266   -915.48633    1428.5098   -5662.6764    2.1864508   0.04640033   0.12137304 
   66200   -950.53386    43.362317   -907.17155    1553.0809   -9970.6912    2.1634015   0.25045249   0.12480075 
   66300   -954.35837     39.60091   -914.75746     1418.361    1870.3125    2.2052223  0.082813452   0.11295662 
   66400   -953.62125     39.11469   -914.50656    1400.9463    9990.5392    2.2209114  0.058641205   0.11767981 
   66500   -949.09383    39.236047   -909.85778    1405.2929    4763.8985    2.1977885  0.060251987   0.11449563 
   66600   -951.95223    39.924064   -912.02816    1429.9352   -8718.2527    2.1727491   0.24279834   0.12203382 
   66700   -955.70717    39.108793   -916.59838    1400.7351    -6779.863    2.1831343   0.18751796   0.10449269 
   66800   -955.92857    43.959937   -911.96863    1574.4855    1462.6342     2.205997  0.088364909   0.11623111 
   66900    -953.5348    41.371729   -912.16307    1481.7853    8863.1227    2.2139087   0.24401454   0.10115869 
   67000   -957.86339    38.817548   -919.04584    1390.3038   -237.13391    2.2052838  0.029680478   0.11664508 
   67100   -951.18214    37.787595   -913.39455    1353.4146   -5867.8874    2.1759654   0.39481319   0.12133615 
   67200    -953.8382    41.876951   -911.96125    1499.8805   -4311.5584    2.1815874  0.074649911   0.10972586 
   67300   -959.97009      40.4973   -919.47279    1450.4664    2723.2771    2.2144692  0.075050522   0.10877275 
   67400   -950.68176    36.611032   -914.07073    1311.2744    6589.6744    2.2066358  0.007891924   0.10063708 
   67500   -951.00965     38.65739   -912.35226    1384.5675    130.63983    2.1912018  0.031916457   0.12525254 
   67600   -955.49238    38.376165   -917.11621    1374.4951   -2881.7144    2.1930027   0.13484826     0.111748 
   67700   -954.47147    37.023599   -917.44787    1326.0511    233.84083    2.2014438  0.088252266   0.10403401 
   67800   -952.71693    41.664742   -911.05219      1492.28   -77.166744    2.1933009   0.12872604    0.1189096 
   67900   -955.95131    41.500192   -914.45112    1486.3864   -265.85577    2.1959189  0.011241768   0.10890846 
   68000   -956.12146    38.661704   -917.45976     1384.722    -1279.734    2.1989457  0.027327519   0.11465131 
   68100   -951.65346    43.038704   -908.61476    1541.4903   -2006.2013    2.1838044   0.34362229   0.10886423 
   68200   -952.30708    40.275839   -912.03124    1442.5345    3348.6969    2.1998588  0.058195677   0.11859473 
   68300    -953.7385    38.340481   -915.39802     1373.217    2554.7142    2.2026617 0.0032530638   0.10400337 
   68400   -951.24571    39.815587   -911.43012    1426.0499   -1736.7903    2.1859076   0.10024548   0.10532537 
   68500    -951.1876    42.081625   -909.10598    1507.2112   -4954.8021    2.1752674   0.35669605   0.11010544 
   68600   -953.39759    37.930187    -915.4674    1358.5218    5.7122859    2.1925872   0.01180355   0.10437867 
   68700   -954.90777    42.084081   -912.82369    1507.2992    7356.7469    2.2118268    0.2440922   0.10017527 
   68800    -951.1388    44.882949   -906.25585    1607.5445    6863.1748    2.1969879  0.070909244  0.091459072 
   68900   -953.32596    38.960351   -914.36561    1395.4185   -6590.7302    2.1768355  0.074764886  0.092792932 
   69000   -954.86789    40.037102   -914.83079    1433.9838   -15724.922    2.1587545  0.054015406   0.10236251 
   69100   -948.10739    37.387132   -910.72026    1339.0715    2038.4177    2.1875857   0.17651641   0.11903913 
   69200   -954.89331    40.114661   -914.77865    1436.7617    12443.122    2.2259047  0.063427026   0.10051334 
   69300    -953.8462     36.48959   -917.35661    1306.9248    6593.3285    2.2119726  0.019198041   0.09880571 
   69400   -955.63123    41.873046   -913.75818    1499.7407   -7584.5637    2.1798793   0.12031531   0.10267664 
   69500   -948.46672    36.476338   -911.99038    1306.4502   -3324.4236    2.1734083   0.17401723   0.11064255 
   69600   -957.76095    37.309179   -920.45177    1336.2795    2366.7078    2.2094367   0.10790233  0.096075156 
   69700   -956.41384    41.329992   -915.08385    1480.2904    4183.7995     2.208794   0.17234157  0.098864688 
   69800   -952.76058    40.428799   -912.33178     1448.013     1009.611      2.19505   0.12832608   0.10824396 
   69900    -955.5188    39.334019   -916.18478    1408.8019   -4599.0455    2.1842836   0.22980645  0.089455604 
   70000   -955.07133    35.680917   -919.39041    1277.9611   -2371.0186    2.1951332  0.091133692   0.10318584 
   70100   -951.02706    38.970385   -912.05668    1395.7779    2889.3817     2.197275   0.14064996   0.10370858 
   70200   -954.98808    41.201203   -913.78688    1475.6777    4404.5379    2.2041526   0.01672609   0.10038932 
   70300   -956.76377    37.923625   -918.84014    1358.2867    886.83132    2.2010577  0.026261642  0.095148501 
   70400   -949.35434    37.311784   -912.04256    1336.3728   -3094.2448    2.1772695  0.015252889   0.10809927 
   70500   -950.84975    38.889513   -911.96024    1392.8813    2671.4094    2.1939192 0.0047019044   0.11924113 
   70600   -955.28225    41.245201   -914.03705    1477.2535    10211.011     2.222619  0.085939157   0.10265955 
   70700   -955.89025    38.038445   -917.85181    1362.3992    4286.0424    2.2137251  0.062700471    0.1043624 
   70800   -948.15934    39.773386   -908.38595    1424.5384   -8250.9768    2.1622905  0.087195049   0.10726128 
   70900    -953.1767    41.077361   -912.09934    1471.2421    -6767.128     2.176489   0.12629459   0.10899726 
[...]
  186800   -954.40174    41.538902   -912.86284    1487.7728    3091.5661    2.2015292   0.10185164   0.10083748 
  186900   -954.33022    42.844425    -911.4858    1534.5319    3012.9405    2.1974416   0.33244653   0.10807631 
  187000   -959.04579    40.646397   -918.39939    1455.8065   -2897.2346    2.1988757   0.13692303   0.10922172 
  187100   -953.56033    41.065161   -912.49517    1470.8051   -5698.7673    2.1801626   0.30438546   0.12243119 
  187200   -949.91255    38.433373   -911.47917     1376.544    960.89217    2.1885711   0.10621876   0.12219072 
  187300   -954.67757    37.350914   -917.32665    1337.7743    5842.7724    2.2097873   0.45441735   0.12024879 
  187400   -950.81391    39.404115    -911.4098    1411.3125     4710.116    2.1998306  0.085420325   0.11827635 
  187500   -954.76175    43.297304   -911.46445    1550.7524   -2616.7354    2.1866073   0.11554396   0.10818549 
  187600   -955.58043    38.109329    -917.4711     1364.938    -4829.435     2.186026   0.12378267   0.10377215 
  187700   -953.68317    42.022887   -911.66029    1505.1074   -2074.8225    2.1867936   0.18283163   0.10423778 
  187800   -953.96795    43.334186   -910.63376    1552.0734    9770.7305    2.2153627  0.029949326   0.11162193 
  187900   -954.69567    38.709829   -915.98584    1386.4457     8384.384    2.2157967   0.10606677  0.097303541 
  188000   -950.78211    38.878129   -911.90398    1392.4736   -9099.8408    2.1626928   0.18096039   0.11087611 
  188100   -949.36954    39.011314   -910.35823    1397.2438    -12839.41    2.1509404   0.21598443   0.12162322 
  188200   -959.83957    42.674428   -917.16514    1528.4433    798.48289    2.2071539   0.23974809  0.097696681 
  188300   -955.38735    43.122253   -912.26509    1544.4827    12323.207    2.2242234  0.055526081   0.12012299 
  188400   -951.47514    40.801885   -910.67326    1461.3756    3900.1068    2.1952906  0.019067356   0.10270693 
  188500   -953.85038    35.768565   -918.08182    1281.1003   -6126.8212    2.1827893  0.044339315    0.1134887 
  188600   -950.69123    37.443722    -913.2475    1341.0983   -2861.2544    2.1794397   0.10466307   0.10838268 
  188700   -950.85029    40.442616   -910.40767    1448.5078    2589.1565    2.1943435   0.10123488  0.098969501 
  188800   -954.23438    36.490562   -917.74382    1306.9596    6316.8614    2.2157802  0.083006146   0.10379737 
  188900   -953.59177    41.046577   -912.54519    1470.1395   -1156.0656    2.1913454   0.11106225   0.10619312 
  189000   -952.11798    40.522807   -911.59518      1451.38   -5139.7627    2.1769452  0.053262674   0.11613934 
  189100   -952.28982    34.015332   -918.27449    1218.3058     367.7385    2.1944012  0.028784998   0.10899774 
  189200   -952.75373    40.300123    -912.4536    1443.4042    2946.9098    2.2001191   0.21506972   0.10397951 
  189300   -952.85774    41.799699   -911.05804    1497.1136    4965.2255    2.2036401   0.23513609   0.10394355 
  189400   -953.67643    36.082607   -917.59383    1292.3481    1446.3437    2.1986215  0.025260541   0.11272727 
  189500   -950.73302      39.1745   -911.55852    1403.0885   -4938.6147    2.1714225  0.026212143    0.1108404 
  189600    -953.7033    42.104223   -911.59907    1508.0206   -2530.5325    2.1852651 0.0073278965   0.11297411 
  189700   -954.57028    38.222676    -916.3476    1368.9976    10749.907    2.2246699  0.069300852   0.10411538 
  189800   -954.91457     44.08273   -910.83184    1578.8835    9547.7613    2.2193511  0.028165148    0.1050406 
  189900   -952.70764    41.098067   -911.60958    1471.9837   -6574.5068    2.1734307  0.084178116   0.11208701 
  190000   -954.77528    36.901805   -917.87347    1321.6888   -14207.073    2.1623219   0.11901717   0.10878984 
  190100   -953.47408    40.798226   -912.67585    1461.2445   -1808.1753    2.1887955   0.31963886   0.11194386 
  190200   -952.12682    42.543156   -909.58366    1523.7416    10292.583    2.2160984  0.093514641   0.11109067 
  190300   -954.19295    37.031219   -917.16173     1326.324    7430.6382     2.216615    0.1380806   0.11460818 
  190400   -953.02119    40.145738   -912.87545    1437.8747   -4717.1479    2.1799223   0.14456477    0.1111895 
  190500   -952.57697    41.263627   -911.31334    1477.9135    -8402.033    2.1734527   0.14999189   0.11540586 
  190600    -958.3055      40.2227    -918.0828    1440.6312    1091.6457    2.2071249   0.12945701   0.10513308 
  190700   -950.45721    38.260778   -912.19643    1370.3623     9430.568    2.2096623  0.017429528   0.11123338 
  190800   -951.27869    39.658305   -911.62038    1420.4167    2928.3741    2.1970738   0.14135602   0.13156825 
  190900   -956.47057    38.237569     -918.233    1369.5311   -3238.3341    2.1910779   0.10199849   0.10645063 
  191000   -954.42962    42.381732   -912.04789    1517.9599   -6990.7044    2.1794468   0.17353412   0.11049243 
  191100   -951.75899    40.198179   -911.56081     1439.753     1456.367    2.1955129   0.20209389   0.11079325 
  191200   -957.61918    40.634503   -916.98467    1455.3806     6437.986    2.2188869     0.100849  0.095621314 
  191300   -950.80708    40.234323   -910.57276    1441.0476    3390.6015    2.1958948  0.041298768   0.10731254 
  191400   -953.65662    41.932591   -911.72403    1501.8733   -7274.2194    2.1747753  0.093588778   0.11465501 
  191500   -952.93889    35.520241   -917.41865    1272.2062     -5313.19    2.1826829  0.080986544   0.11095759 
  191600   -951.66928    40.359478   -911.30981    1445.5301    6241.0942    2.2060013  0.037486009   0.11552158 
  191700    -953.4613    43.322108   -910.13919    1551.6408    15728.304    2.2310584  0.030419799   0.10746448 
  191800   -957.44372    40.889741   -916.55398    1464.5222   -442.06765     2.198621   0.05428541   0.10935656 
  191900   -950.37977    37.814864   -912.56491    1354.3913   -14511.412    2.1498364   0.18451234   0.11470323 
  192000   -953.33746    43.224246   -910.11321    1548.1358   -9675.1044    2.1667172  0.056910541    0.1187064 
  192100   -958.28604     41.24791   -917.03813    1477.3506    8013.4535    2.2213014   0.16688229   0.10608395 
  192200   -952.64429    40.268673   -912.37562    1442.2778    7546.2075    2.2116546   0.08358417   0.10498228 
  192300   -954.02074    42.610537   -911.41021    1526.1549   -3115.0557    2.1850838   0.34018768   0.10804321 
  192400   -957.40018    39.005553   -918.39463    1397.0374   -5727.7454     2.187038  0.020671843    0.0925932 
  192500   -950.93085    38.262996   -912.66786    1370.4418   -1112.2844    2.1899061   0.04086381   0.11184168 
  192600   -952.32711    41.094635   -911.23248    1471.8608    2931.8063    2.2025038   0.06177815   0.12376482 
  192700   -958.06062    40.255749   -917.80487    1441.8149    2302.6416    2.2099251   0.08423758   0.10425072 
  192800   -950.83732    39.290935   -911.54639    1407.2588   -2202.5579     2.183127  0.068480382   0.10852411 
  192900    -951.1946    39.377529   -911.81707    1410.3603    -2790.815    2.1813674  0.055414084   0.11042949 
  193000   -953.34627    35.803018   -917.54325    1282.3343    3841.8798    2.2050131   0.46150404   0.10372575 
  193100   -950.86867    39.819849   -911.04882    1426.2026    5963.8566    2.2051333  0.055494424    0.1212148 
  193200   -952.75581    40.778091   -911.97772    1460.5233    2084.8604    2.1999167  0.052753018    0.1189737 
  193300   -954.95223    37.275338    -917.6769    1335.0674   -5063.5297    2.1881604  0.028078957   0.10291341 
  193400   -950.70097    39.403692   -911.29728    1411.2974   -6998.5805    2.1736878  0.065872935   0.10293591 
  193500   -948.44421    36.831484   -911.61272    1319.1702    7770.6222    2.2074837  0.039530617  0.098736684 
  193600   -954.44067    38.322043   -916.11862    1372.5566    14376.157    2.2372505  0.037450093   0.11853876 
  193700   -951.46877    40.868817   -910.59996    1463.7728    411.35143     2.196053  0.066688607   0.12075364 
  193800   -951.55263    39.383902   -912.16873    1410.5886   -11625.222    2.1631734   0.14522502   0.11479446 
  193900   -954.22271    36.588447   -917.63426    1310.4655   -6949.5533     2.182032   0.12266156   0.11135073 
  194000   -954.17223    42.919133   -911.25309    1537.2077    4265.6814    2.2070104   0.02807634   0.11045264 
  194100   -951.98357    40.134234   -911.84934    1437.4627    8883.5507    2.2142801  0.099137585   0.12082526 
  194200   -956.81357    38.899882   -917.91369    1393.2527    -380.2232    2.2006797  0.015201489   0.10480778 
  194300   -950.95165    39.238787   -911.71286    1405.3911    -4827.728    2.1761123   0.02886774   0.10299529 
  194400   -950.90829    38.603554   -912.30473    1382.6393   -922.33218    2.1877731   0.13886925   0.10754012 
  194500   -955.74272    37.933077   -917.80964    1358.6252    4960.9385    2.2127961  0.034168132   0.10946674 
  194600   -950.17211    39.514869   -910.65725    1415.2793    5580.7137    2.1975433   0.20364259   0.10450306 
  194700   -952.62002    39.575602   -913.04442    1417.4545    -990.1853    2.1899666   0.13748476   0.11161097 
  194800   -953.46135    35.338201   -918.12315    1265.6862    -1828.487    2.1913087   0.28048111    0.1095284 
  194900   -953.13753    42.331559   -910.80597    1516.1629   -3697.7091    2.1827214   0.10164237   0.12224331 
  195000   -951.09188    37.886144   -913.20574    1356.9443    5133.5049    2.2026292   0.12859991   0.11521069 
  195100   -957.36459    40.230861   -917.13373    1440.9235    4425.1455    2.2100296  0.060111946   0.10483549 
  195200   -952.45902    42.798289   -909.66073    1532.8795   -3937.7841    2.1783115  0.071888058   0.10035326 
  195300   -952.72545      38.8129   -913.91255    1390.1373    -8365.751    2.1718651  0.071724315  0.092543841 
  195400    -954.7068    38.162816   -916.54398    1366.8537    1279.7159    2.1977156 0.0090625734   0.10987583 
  195500   -954.31909    45.449656   -908.86943    1627.8419    9834.5428    2.2196526   0.10267358   0.11184921 
  195600   -954.22175    40.721854   -913.49989    1458.5091    6903.4362    2.2117244  0.036679905   0.10500861 
  195700   -953.15554     35.82988   -917.32566    1283.2963   -8591.6814    2.1738387   0.31291422  0.096974265 
  195800   -952.65891    41.935898   -910.72301    1501.9918   -11917.786    2.1608566   0.21125959   0.10496725 
  195900    -954.0573    40.461563   -913.59573    1449.1865     3525.453     2.202875  0.033307098   0.12108304 
  196000   -956.57672    39.911372   -916.66535    1429.4806    8921.2697    2.2260515   0.29908975   0.12697595 
  196100   -951.22438    40.667606   -910.55677    1456.5662    1697.0435    2.1935649  0.072292349   0.11084406 
  196200   -951.40087    37.619639   -913.78123     1347.399   -7222.9847    2.1749746   0.13955363   0.11064359 
  196300   -952.29807    34.593903   -917.70417    1239.0281   -1831.5198    2.1903519   0.15695326   0.10119951 
  196400    -951.8524    41.465916   -910.38648    1485.1588    4285.7083    2.1998595  0.037559989   0.11987149 
  196500   -953.40234    39.422003   -913.98034    1411.9532    5665.9732     2.209903   0.15986195    0.1076261 
  196600   -956.63391    38.789125   -917.84479    1389.2858   -68.552401    2.1997079   0.19441261  0.095024342 
  196700   -951.34298    41.118462   -910.22452    1472.7142   -6921.1091     2.171345   0.16072504   0.10837818 
  196800   -953.25413    38.728906   -914.52522     1387.129   -2037.3254     2.189295   0.16902529   0.10467187 
  196900   -957.10641    40.546724   -916.55969    1452.2366    2890.0471    2.2109412   0.18162425   0.11896108 
  197000   -950.29826    41.193347   -909.10492    1475.3963    3337.3104    2.1962483   0.28727848   0.11010832 
  197100   -951.30069    36.602585    -914.6981    1310.9719   -368.96969    2.1930956   0.16817687   0.10694684 
  197200   -954.17753    37.750496   -916.42703    1352.0859   -3978.9745    2.1846139   0.11155853   0.11198289 
  197300   -952.33952    42.896835   -909.44268    1536.4091   -3276.4972    2.1812137  0.091921325   0.12449602 
  197400   -955.38103    39.763959   -915.61707    1424.2008    3668.1053    2.2123524  0.052614357   0.12152484 
  197500   -954.62748     38.82733   -915.80015    1390.6542    6855.0063    2.2125005  0.069122173  0.094217021 
  197600   -949.62182    39.808871   -909.81294    1425.8094   -4962.1435    2.1729315  0.087157651   0.10783658 
  197700   -951.93053    36.860934   -915.06959     1320.225   -13097.469     2.160566   0.16507527   0.11338019 
  197800   -954.67986     38.40894   -916.27092    1375.6689    1009.9287     2.202339  0.023447469    0.1220035 
  197900   -951.13087    42.355715   -908.77515    1517.0281    16322.658    2.2323352   0.16965442   0.11771443 
  198000   -953.39799     39.26192   -914.13607    1406.2196    7717.7412    2.2156257  0.083898308   0.10632079 
  198100   -957.63395    39.609585   -918.02437    1418.6717   -10922.319    2.1763783   0.17423722   0.10489123 
  198200   -952.62227    41.939552   -910.68271    1502.1227   -11949.878    2.1641836    0.1166921   0.12406638 
  198300    -955.2152    40.933326   -914.28187    1466.0833    1716.2443    2.2019135   0.05252542   0.12576043 
  198400   -957.94792    41.240219    -916.7077    1477.0751    8977.1684    2.2266691  0.049011722   0.10931159 
  198500   -951.25198    41.858486   -909.39349    1499.2192    3863.7557    2.1949641  0.055051372   0.11166048 
  198600    -953.2297    39.035719   -914.19398    1398.1179    -7296.621    2.1776056   0.24861137   0.10843822 
  198700   -953.10283    36.262991   -916.83984    1298.8088   -4181.5292     2.184343   0.31680328   0.11423465 
  198800    -949.5446    40.080685   -909.46392    1435.5448    4240.1683     2.197589   0.24390271    0.1203205 
  198900   -952.28751     38.02765   -914.25986    1362.0125    7478.1599    2.2148287   0.12112042  0.098320745 
  199000   -954.69779    37.788784   -916.90901    1353.4572    1681.1136    2.2019125   0.31856901   0.10068701 
  199100   -951.08488     41.11403   -909.97085    1472.5555   -6486.7486    2.1717357  0.048415524   0.11238254 
  199200   -954.90341    39.984647   -914.91876    1432.1051   -4243.0739    2.1859821   0.10876886   0.11701247 
  199300    -957.8871    41.469204   -916.41789    1485.2765    2452.0842    2.2086321   0.17864989   0.10797739 
  199400   -950.79021    41.343315   -909.44689    1480.7676     7362.249    2.2052413  0.039000443   0.10417504 
  199500   -953.61889    38.692039   -914.92685    1385.8085    738.15643     2.195735     0.152951  0.096603904 
  199600   -953.60981    36.732786   -916.87703    1315.6352     -8880.79    2.1732568   0.15952114   0.11601643 
  199700   -952.03015    41.423275   -910.60688    1483.6315   -8911.6738    2.1696425   0.29331857   0.12098264 
  199800   -958.01634    42.693576   -915.32277     1529.129    8774.3496    2.2255283    0.2990433   0.10373708 
  199900   -957.25069     41.35234   -915.89835    1481.0909    16095.577    2.2423669   0.13728187  0.096968651 
  200000    -953.4608    43.134899    -910.3259    1544.9357   -5373.6945    2.1802678  0.014669609   0.10373209 
  200100   -953.29559    39.136254   -914.15933    1401.7187   -15190.096    2.1553539   0.13643983   0.11270019 
  200200   -956.23101     39.38179   -916.84922    1410.5129   -4519.0811    2.1906305  0.076757521   0.10729168 
  200300   -953.27775    44.064231   -909.21352     1578.221    4525.5783     2.205231  0.028863748   0.11369283 
  200400   -951.81067    37.900863   -913.90981    1357.4715    7383.1521    2.2101041   0.13472221   0.10800694 
  200500   -957.03336    39.990836   -917.04252    1432.3267    -3986.534    2.1927751  0.013656735   0.11272493 
  200600   -949.16586    39.431101   -909.73476     1412.279    -4835.374    2.1750245  0.031071319   0.13522821 
  200700   -952.92771    38.261047   -914.66666    1370.3719    1109.9401    2.1986719  0.022339349   0.11152088 
  200800   -954.92957    38.721717   -916.20786    1386.8715    4945.8327    2.2108365   0.29103191   0.10509345 
  200900   -952.20805    42.520352    -909.6877    1522.9248    1732.1281    2.1975663   0.32095057   0.10146677 
  201000   -951.96128    36.770184    -915.1911    1316.9746   -2680.6182    2.1873276   0.16475233   0.11020077 
  201100   -954.49913    37.864167   -916.63496    1356.1571   -6770.6788    2.1833824   0.13727165   0.10296107 
  201200   -951.75091    41.504243   -910.24666    1486.5315    431.49911    2.1917561   0.11241909   0.10369107 
  201300   -952.32339    36.537168   -915.78622    1308.6288    10262.323      2.22062  0.010281314   0.10509847 
  201400   -956.18347    39.589954   -916.59352    1417.9686    2535.3706    2.2098343   0.14886168   0.11782097 
  201500   -948.40192    37.809215    -910.5927     1354.189   -7614.8847    2.1662447  0.050716326   0.13129916 
  201600   -953.96463    37.931415   -916.03322    1358.5657   -10249.468     2.173007   0.13349828   0.11149537 
  201700   -954.67996    38.662507   -916.01745    1384.7508    5570.2723     2.213199   0.20350273   0.10929644 
  201800   -950.53243    41.821377   -908.71106      1497.89    13148.381    2.2241698   0.12265355   0.11679911 
  201900   -952.61628     37.87543   -914.74085    1356.5606     1170.498    2.2006255   0.16026135   0.12492131 
  202000   -953.82798     37.15233   -916.67565    1330.6617   -11739.663     2.165927    0.5936636    0.1124523 
  202100   -953.35052    43.534787   -909.81573    1559.2582    -8211.782    2.1709533   0.19989656   0.10720793 
  202200   -954.05876    38.860182   -915.19858    1391.8308    6493.4788    2.2138741   0.12317917   0.09269371 
  202300    -957.2201     40.93258   -916.28752    1466.0566    5345.9278    2.2132085   0.02724157   0.10120674 
  202400   -950.62886    40.784579   -909.84429    1460.7557   -703.12977    2.1862932  0.041922597   0.12687288 
  202500    -953.5746    37.448138   -916.12646    1341.2565    -3970.501    2.1894195  0.029340348   0.12379877 
  202600   -952.76352    36.984303   -915.77921    1324.6436   -694.40234    2.1936547  0.054700784   0.12591872 
  202700   -952.83693    42.909623   -909.92731    1536.8671    150.77093    2.1940185  0.024824132   0.11681113 
  202800   -954.98605    38.566548    -916.4195    1381.3139    2602.1877    2.2079613  0.035341423   0.12317228 
  202900    -955.8333    40.439852   -915.39345    1448.4088   -1150.0966    2.1942242  0.067429214   0.11247425 
  203000   -952.36077    42.091567    -910.2692    1507.5673   -6165.9932    2.1754406  0.062138648   0.10990259 
  203100   -952.53435     35.25127   -917.28308    1262.5726    -563.3227    2.1952985  0.064229607   0.10529083 
  203200   -951.46176    36.676555   -914.78521    1313.6212    6001.6901    2.2082762   0.18588423  0.094298247 
Loop time of 145.537 on 1 procs for 200000 steps with 217 atoms

Performance: 356.198 ns/day, 0.067 hours/ns, 1374.219 timesteps/s
100.0% CPU use with 1 MPI tasks x no OpenMP threads

MPI task timing breakdown:
Section |  min time  |  avg time  |  max time  |%varavg| %total
---------------------------------------------------------------
Pair    | 142.03     | 142.03     | 142.03     |   0.0 | 97.59
Neigh   | 0.35056    | 0.35056    | 0.35056    |   0.0 |  0.24
Comm    | 0.86611    | 0.86611    | 0.86611    |   0.0 |  0.60
Output  | 0.070454   | 0.070454   | 0.070454   |   0.0 |  0.05
Modify  | 1.901      | 1.901      | 1.901      |   0.0 |  1.31
Other   |            | 0.3163     |            |       |  0.22

Nlocal:    217 ave 217 max 217 min
Histogram: 1 0 0 0 0 0 0 0 0 0
Nghost:    957 ave 957 max 957 min
Histogram: 1 0 0 0 0 0 0 0 0 0
Neighs:    4216 ave 4216 max 4216 min
Histogram: 1 0 0 0 0 0 0 0 0 0
FullNghs:  8432 ave 8432 max 8432 min
Histogram: 1 0 0 0 0 0 0 0 0 0

Total # of neighbors = 8432
Ave neighs/atom = 38.8571
Neighbor list builds = 583
Dangerous builds = 0
Total wall time: 0:02:27
