LAMMPS (3 Mar 2020)
Reading data file ...
  orthogonal box = (0 0 0) to (17.469 17.469 17.469)
  1 by 1 by 1 MPI processor grid
  reading atoms ...
  217 atoms
  read_data CPU = 0.00104997 secs
Reading potential file library.meam with DATE: 2012-06-29
Reading potential file LiSi.meam with DATE: 2020-11-07
1 atoms in group Li
216 atoms in group Si
Neighbor list info ...
  update every 1 steps, delay 10 steps, check yes
  max neighbors/atom: 2000, page size: 100000
  master list distance cutoff = 6
  ghost atom cutoff = 6
  binsize = 3, bins = 6 6 6
  2 neighbor lists, perpetual/occasional/extra = 2 0 0
  (1) pair meam/c, perpetual
      attributes: full, newton on
      pair build: full/bin/atomonly
      stencil: full/bin/3d
      bin: standard
  (2) pair meam/c, perpetual, half/full from (1)
      attributes: half, newton on
      pair build: halffull/newton
      stencil: none
      bin: none
Setting up Verlet run ...
  Unit style    : metal
  Current step  : 0
  Time step     : 0.003
Per MPI rank memory allocation (min/avg/max) = 8.895 | 8.895 | 8.895 Mbytes
Step Temp E_pair E_mol TotEng Press Volume 
       0         1400   -951.04357            0    -911.9553   -116399.41    5330.9442 
    3200    1439.0137   -953.78323            0   -913.60569    11515.054    4548.1153 
Loop time of 2.32657 on 1 procs for 3200 steps with 217 atoms

Performance: 356.508 ns/day, 0.067 hours/ns, 1375.416 timesteps/s
100.0% CPU use with 1 MPI tasks x no OpenMP threads

MPI task timing breakdown:
Section |  min time  |  avg time  |  max time  |%varavg| %total
---------------------------------------------------------------
Pair    | 2.2694     | 2.2694     | 2.2694     |   0.0 | 97.54
Neigh   | 0.0089053  | 0.0089053  | 0.0089053  |   0.0 |  0.38
Comm    | 0.013783   | 0.013783   | 0.013783   |   0.0 |  0.59
Output  | 2.65e-05   | 2.65e-05   | 2.65e-05   |   0.0 |  0.00
Modify  | 0.029534   | 0.029534   | 0.029534   |   0.0 |  1.27
Other   |            | 0.00492    |            |       |  0.21

Nlocal:    217 ave 217 max 217 min
Histogram: 1 0 0 0 0 0 0 0 0 0
Nghost:    957 ave 957 max 957 min
Histogram: 1 0 0 0 0 0 0 0 0 0
Neighs:    4165 ave 4165 max 4165 min
Histogram: 1 0 0 0 0 0 0 0 0 0
FullNghs:  8330 ave 8330 max 8330 min
Histogram: 1 0 0 0 0 0 0 0 0 0

Total # of neighbors = 8330
Ave neighs/atom = 38.3871
Neighbor list builds = 15
Dangerous builds = 0
Setting up Verlet run ...
  Unit style    : metal
  Current step  : 3200
  Time step     : 0.003
Per MPI rank memory allocation (min/avg/max) = 9.666 | 9.666 | 9.666 Mbytes
Step PotEng KinEng TotEng Temp Press Density c_msdli[4] c_msdsi[4] 
    3200   -953.78323    40.177539   -913.60569    1439.0137    11515.054    2.2174698            0 4.1414627e-32 
    3300   -951.50007    35.893376    -915.6067    1285.5705    2491.0873    2.1988085   0.15523095  0.093707437 
    3400   -957.44226    35.564725   -921.87754    1273.7995   -6347.1905    2.1885586   0.16045729  0.076639441 
    3500   -955.89259    40.450589     -915.442    1448.7934   -8320.6924    2.1802079   0.44254276  0.087435188 
    3600   -955.36449    41.436891    -913.9276    1484.1191    3082.3678    2.2024654   0.25387762  0.085652491 
    3700    -954.9302    34.626996    -920.3032    1240.2134     10256.33    2.2237321   0.10490572  0.067033661 
    3800   -955.28337    38.791379     -916.492    1389.3665    1261.8769    2.1995507   0.16628377  0.086097681 
    3900   -952.95615    38.812838   -914.14332    1390.1351   -6555.6369    2.1787314   0.14862797     0.109356 
    4000   -953.95401    36.936835   -917.01717    1322.9435   -5805.5176     2.181053   0.12847363   0.10755869 
    4100   -957.45991    37.741049   -919.71887    1351.7475    2306.1112    2.2086704  0.012001161  0.072652455 
    4200   -953.25051    42.139276   -911.11123     1509.276    5721.1174    2.2001024  0.023075241   0.07288634 
    4300   -956.49816    42.241132   -914.25703    1512.9241    447.54774    2.1966625  0.055867936  0.077127646 
    4400   -956.60141    38.894217   -917.70719    1393.0498   -4951.9593    2.1875959  0.096830399  0.079044293 
    4500    -950.3813    37.990205   -912.39109    1360.6714   -1850.5759    2.1828616    0.1225403  0.096526518 
    4600   -951.35397    39.927968     -911.426     1430.075    2499.5205    2.1945853   0.18971093  0.078838817 
    4700   -956.59483    40.327773   -916.26705    1444.3946    1530.9995    2.2021641   0.24076016  0.087206369 
    4800   -952.34974     36.87301   -915.47673    1320.6575    780.49894    2.1910479   0.15773021  0.096223925 
    4900   -949.38331    40.914072   -908.46924    1465.3937   -4170.4922     2.172134   0.44434124    0.1105091 
    5000   -955.46284    38.865367   -916.59747    1392.0165    1077.8234    2.2017769   0.14844721  0.094751463 
    5100   -954.29633    38.708992   -915.58734    1386.4157    4927.2469    2.2064039   0.16581609  0.084589956 
    5200   -951.66725    41.036676   -910.63058    1469.7849    1449.2308    2.1941701   0.23991779  0.097572013 
    5300   -953.63973    38.072638   -915.56709    1363.6238   -4292.5647    2.1848161   0.21499753  0.081682167 
    5400   -953.81005      36.2454   -917.56465    1298.1788   -4870.2657    2.1834586    0.0361314  0.093116423 
    5500   -954.95689    41.505611   -913.45128    1486.5805    1144.0023    2.1978794  0.078639134  0.075350563 
    5600   -956.77185    41.847949   -914.92391    1498.8418    5791.1323    2.2133374  0.034953182  0.075911203 
    5700   -955.17969    35.019072   -920.16062    1254.2562    5086.3731    2.2116612   0.20943891  0.092612665 
    5800   -955.35805    40.600937   -914.75712    1454.1783   -6124.6845    2.1818496   0.17406783  0.083737097 
    5900   -952.82421    38.640963   -914.18324    1383.9792   -6741.8098    2.1780533    0.2094242   0.10326645 
    6000   -956.86738    35.359303   -921.50808     1266.442    3315.9546    2.2101458   0.11909485  0.083039712 
    6100    -957.2898    41.953208   -915.33659    1502.6118    5196.4847    2.2115848   0.17984963  0.091043746 
    6200   -955.02324    41.105126   -913.91811    1472.2365    3244.8246    2.2036523   0.35620879   0.10343542 
    6300   -956.62301    37.598966   -919.02404    1346.6586    -5635.397    2.1898636    0.2205551  0.089155754 
    6400   -954.51991    37.092521   -917.42739    1328.5196   -4355.0818    2.1844391   0.17149436  0.088803782 
    6500   -953.27733    40.562057   -912.71527    1452.7858   -275.25424    2.1945449   0.17752807  0.083987897 
    6600   -954.19962    38.505822    -915.6938    1379.1389    7138.9504    2.2108074   0.14145588  0.089183291 
    6700   -957.23583    38.977628    -918.2582    1396.0373    891.69296    2.2060769   0.22484292  0.085900217 
    6800   -948.12133    38.901094   -909.22024    1393.2961   -4572.0879    2.1695866   0.12325565   0.10860804 
    6900   -951.96557    37.769603   -914.19596    1352.7702   -1620.8507    2.1892395   0.30271837   0.10577376 
    7000   -956.23168    39.746163   -916.48552    1423.5634    4383.1048    2.2113027   0.26622102  0.096101068 
    7100   -954.07724    41.044325   -913.03292    1470.0589     6020.083    2.2106532  0.086174276   0.10697316 
    7200   -952.51508    42.476142   -910.03894    1521.3414   -3803.6192    2.1802895   0.17026593   0.11142215 
    7300   -953.81266    36.834204   -916.97846    1319.2676   -6257.7869    2.1804598    0.1137369   0.10085241 
    7400   -953.85408    38.686899   -915.16718    1385.6244   -1307.5509     2.193424  0.075759796  0.096717203 
    7500     -952.173    43.332609   -908.84039    1552.0169    5796.8999    2.2083154   0.15727783    0.1076054 
    7600   -956.18299    39.753441   -916.42955    1423.8241    6125.2705     2.217537   0.14795438  0.091660606 
    7700   -953.87719    37.224969   -916.65222    1333.2634   -5366.4646    2.1857054   0.27350234   0.10430812 
    7800   -951.47739    38.709462   -912.76793    1386.4325   -8787.4741    2.1696899   0.32723209  0.096383244 
    7900   -954.82057    37.679027   -917.14154    1349.5261   -1551.7333    2.1953027   0.15481014   0.08126939 
    8000   -957.62982    38.751434   -918.87838    1387.9358    6411.7844    2.2230667   0.14662525  0.098222147 
    8100   -951.69251      37.9424   -913.75011    1358.9592    7128.6567      2.21085   0.39111336   0.10380365 
    8200   -951.87785    36.744568   -915.13328    1316.0572   -1616.7841    2.1908914   0.31492412   0.10660957 
    8300   -960.71366    38.938744   -921.77491    1394.6446   -6245.3433    2.1972032   0.12902506  0.087772318 
    8400   -953.72863    39.020704   -914.70792    1397.5801   -1591.8277    2.1934736   0.34638529   0.10012616 
    8500   -954.82315    40.379428   -914.44372    1446.2447     2373.697    2.2018006   0.23643997   0.10061747 
    8600   -957.10107     36.55527    -920.5458    1309.2772    2396.0169    2.2103582   0.15045242  0.097277717 
    8700   -954.19818    39.182809   -915.01537    1403.3861   -15.201278    2.1966336   0.18444482   0.10007942 
    8800   -952.79483    39.081456   -913.71338     1399.756    783.95439    2.1953931   0.17569368  0.092121729 
    8900   -954.66185    37.480504   -917.18135    1342.4157    627.23562    2.1993938   0.14130746  0.098107946 
    9000   -959.73266    40.289274   -919.44339    1443.0157   -2119.3228     2.202422  0.024650186   0.09256506 
    9100   -952.16343     41.19452   -910.96891    1475.4383   -2484.2404    2.1849252   0.13781704  0.097000759 
    9200   -952.27296    37.440123   -914.83284    1340.9694    931.41768    2.1949608   0.17789605  0.089143442 
    9300   -955.71442    38.610048   -917.10437    1382.8719     5357.119    2.2098286  0.043302438  0.086870845 
    9400   -951.62043     41.12415   -910.49628    1472.9179    3431.6357    2.2013481   0.48374742   0.10653489 
    9500   -954.06705    41.630891   -912.43616    1491.0676   -3387.2035    2.1864473   0.27061989  0.099225959 
    9600    -952.6673    35.602784   -917.06451    1275.1626   -6191.9331    2.1781209   0.21066878  0.088800085 
    9700   -951.78296    37.981892   -913.80107    1360.3736   -1450.9256      2.18587 0.0031453475  0.082303945 
    9800   -947.76563    39.323424   -908.44221    1408.4224    9842.1618    2.2059486   0.27108655   0.10125568 
    9900   -956.09396    39.866503   -916.22746    1427.8736    8799.6605    2.2244868   0.20123036  0.095628287 
   10000   -954.50561    38.795034   -915.71057    1389.4974   -2904.6246    2.1888967   0.24478689  0.095682092 
   10100   -949.74666    39.068275   -910.67839    1399.2839   -9457.1908    2.1600364   0.39208947  0.098124786 
   10200   -952.96903    34.332598   -918.63643    1229.6692   -968.88313    2.1924577   0.17437185  0.091126211 
   10300   -957.23469    39.926628   -917.30806     1430.027    3957.3737    2.2153741  0.093285015  0.095157061 
   10400   -953.11255    39.767621   -913.34493     1424.332    7376.8034    2.2103057    0.2974755    0.0955038 
   10500   -954.12083    38.598939   -915.52189     1382.474   -2452.1239    2.1902418   0.65347302   0.09409637 
   10600   -957.10678    36.388261   -920.71852    1303.2955   -3747.7024     2.192505    0.2962125  0.090511895 
   10700   -954.46115    40.003227   -914.45793    1432.7705    -1523.058    2.1932224   0.15137228  0.096992663 
   10800   -956.08669    41.637164   -914.44952    1491.2922    2010.4462    2.2024971 0.0094264233  0.095136938 
   10900   -956.79746    35.276972   -921.52048    1263.4932    2449.4131    2.2131338    0.2975584  0.090675245 
   11000   -953.16864    38.631135   -914.53751    1383.6272   -1762.1493    2.1907824  0.018596367  0.097510977 
   11100   -953.16319    38.939721   -914.22347    1394.6796   -171.73726    2.1915896   0.14306839   0.10613083 
   11200   -957.93537    39.123877    -918.8115    1401.2754    290.23985      2.20275   0.11106525  0.090757431 
   11300   -955.58409    37.898427   -917.68566    1357.3842    3333.7947    2.2067932   0.39678808   0.10419057 
   11400   -951.83079    39.426476   -912.40431    1412.1134    1479.1186    2.1935497   0.22110748   0.10131787 
   11500     -954.793    38.652344   -916.14065    1384.3868   -3207.6915    2.1911724  0.063816571    0.1032888 
   11600   -955.16189    37.257551   -917.90434    1334.4304   -1808.4368    2.1981439   0.21282994   0.10200627 
   11700   -952.05112    42.841205   -909.20992    1534.4166   -573.34786    2.1884192   0.31008466   0.11072692 
   11800   -955.83937    41.631152   -914.20822    1491.0769    2667.3495     2.203479   0.19402804  0.099896534 
   11900   -955.65323    38.771732    -916.8815    1388.6628     1872.476    2.2043984    0.2688892  0.092771733 
   12000   -955.82855    44.626498   -911.20205    1598.3593   -3493.2222    2.1895037   0.11967387   0.10432859 
   12100   -950.89098     38.94322   -911.94776    1394.8049   -586.59006    2.1891666   0.19010229   0.11036569 
   12200   -953.37776    36.375515   -917.00225     1302.839   -2564.5219    2.1968922   0.20520921   0.11523078 
   12300   -956.76781    42.668523   -914.09929    1528.2317   -1705.7985    2.2004086   0.21332571   0.10035799 
   12400   -949.91171    41.428044   -908.48367    1483.8023    4453.1698    2.1954892   0.11355996   0.10407409 
   12500   -959.05668    41.722173   -917.33451    1494.3369    1525.2587    2.2114567   0.23390573  0.099542127 
   12600   -954.93055    39.023067   -915.90748    1397.6647   -6536.6035    2.1792498   0.45287651  0.095661292 
   12700   -952.97943    39.823738   -913.15569    1426.3419   -9999.5941    2.1665102   0.26420706   0.11220691 
   12800    -957.1736    36.482656   -920.69095    1306.6764    1639.3359    2.2090997  0.019388199   0.10331071 
   12900   -955.32684    36.814632   -918.51221    1318.5666    11173.559    2.2274712   0.18935588   0.10757177 
   13000   -952.54553    38.472108   -914.07342    1377.9314    5007.6972    2.2079155    0.1725492   0.11822264 
   13100   -952.90483      37.4255   -915.47933    1340.4457   -6054.9776    2.1808401   0.16340098   0.11028437 
   13200   -960.23365    37.828203   -922.40544    1354.8691     -8961.21    2.1891773   0.21947167   0.10371783 
   13300     -955.563    40.062523   -915.50048    1434.8943   -1086.6008    2.1980534   0.17060057   0.10195806 
   13400   -955.67319    41.629033   -914.04415     1491.001    6766.0538    2.2166749    0.1470748   0.10346679 
   13500   -955.84787    36.634142   -919.21373    1312.1021    4083.1614    2.2140894   0.44110109   0.10676209 
   13600   -955.64368    35.550625   -920.09306    1273.2945   -3947.8524    2.1913261   0.10451458    0.1048713 
   13700     -954.961     40.95419   -914.00681    1466.8306   -10067.076    2.1733797   0.24146449   0.11255324 
   13800   -954.59321    38.854831   -915.73838    1391.6391   -1370.9678    2.1950154  0.087167248   0.10012276 
   13900   -954.24219    35.844502   -918.39769    1283.8201     8829.086    2.2210539   0.22424575   0.10785432 
   14000   -953.30156     42.05862   -911.24294    1506.3873    5375.8154    2.2083449   0.21370963   0.11788635 
   14100   -952.77712    40.406737   -912.37039    1447.2228   -2340.0979    2.1885053   0.38639208   0.10954797 
   14200   -951.95672    35.806743   -916.14998    1282.4677   -8142.0369    2.1742187   0.18640025   0.10397658 
   14300   -955.42036    39.486355   -915.93401     1414.258   -2194.8319    2.1863056    0.1126527  0.094726565 
   14400   -951.92518    43.843291   -908.08189    1570.3077    2417.0134    2.1966366   0.33203067   0.10963295 
   14500   -953.51489    39.027948   -914.48694    1397.8396    8159.2514    2.2162899    0.2223316   0.10830134 
   14600   -956.73436    40.082216   -916.65215    1435.5996   -1499.6606    2.1972714   0.50533264   0.08984309 
   14700   -949.92752    38.674271   -911.25325    1385.1722   -4573.8233    2.1728952  0.044471894   0.10130694 
   14800   -950.06437    38.679787   -911.38458    1385.3697   -3106.7697    2.1791431   0.19091996   0.11093828 
   14900   -955.56152     38.87248   -916.68904    1392.2712    1068.8896    2.2047392   0.30596058   0.10766087 
   15000   -952.39172    38.087114    -914.3046    1364.1423    5011.0059    2.2042495  0.060564573   0.11064804 
   15100   -948.88726    39.727183   -909.16007    1422.8836    1930.0378    2.1900961   0.21585318   0.11400328 
   15200   -953.93883    36.615248   -917.32358    1311.4254   -1115.0934    2.1952251   0.25722285     0.101998 
   15300   -954.64241    38.118088   -916.52432    1365.2517   -4513.8285    2.1846833   0.13852242  0.094442831 
   15400   -953.38033    39.622728    -913.7576    1419.1424   -923.44875     2.190877   0.23201512  0.098736126 
   15500   -954.86283    41.611707   -913.25112    1490.3804    4232.5526    2.2055806   0.19997647  0.099922981 
   15600   -960.52026    39.884198   -920.63606    1428.5073    4409.7997    2.2214226 0.0070307329  0.092329567 
   15700   -957.66803     41.62745   -916.04058    1490.9443   -3663.5931    2.1929222   0.20795299  0.080960945 
   15800   -954.01602    39.856658   -914.15936     1427.521   -8714.9897    2.1749431   0.11393881   0.10223086 
   15900   -956.46342    37.109643   -919.35378    1329.1328   -3498.8018    2.1928798  0.076707255  0.093752272 
   16000   -957.86392    38.844979   -919.01894    1391.2863    6032.7244    2.2194392   0.11083081  0.097457343 
   16100    -952.8313    39.505151   -913.32615    1414.9312    8951.3606    2.2166907   0.15031714   0.11023453 
   16200   -953.87953    37.362605   -916.51693     1338.193   -2544.3005    2.1939159   0.14064575   0.10619972 
   16300   -954.62696    32.547379   -922.07958    1165.7291   -8362.1433    2.1817299   0.19708779   0.11500924 
   16400   -953.05141    38.746305    -914.3051    1387.7521     -6561.81    2.1770996   0.15493463  0.099534479 
   16500     -953.461    39.289916   -914.17109    1407.2223    7638.6696    2.2141266  0.029038178  0.097106891 
   16600   -958.08567    40.508374    -917.5773     1450.863    7898.0551    2.2247738   0.14205585  0.085612015 
   16700   -954.69105     39.47076   -915.22029    1413.6995   -721.61267    2.1967634  0.086550129  0.092777835 
   16800   -952.08652    40.742543   -911.34398    1459.2501   -7144.8501    2.1742278    0.3017342   0.10185765 
   16900   -955.63189     39.61623   -916.01566    1418.9097   -3541.2525    2.1894598   0.19165852  0.085605886 
   17000   -955.05213    38.423938   -916.62819    1376.2061    2883.0855    2.2052242  0.078633624  0.099005158 
   17100   -953.13262    45.060298   -908.07232    1613.8965    1914.9623    2.1934747 0.0076881846  0.093246739 
   17200   -955.94395    41.226634   -914.71732    1476.5885    711.44414    2.2021284   0.25334389   0.10340629 
   17300   -958.17962    41.489398   -916.69022    1485.9998    -4813.769    2.1937017   0.31266852  0.099331321 
   17400   -952.29082    40.495557   -911.79526     1450.404   -3658.3184    2.1823942   0.12242222   0.11004255 
   17500   -952.03451    41.259071   -910.77544    1477.7503    67.137136    2.1902535  0.031908246   0.11213368 
   17600    -955.8196    38.996708   -916.82289    1396.7207    3239.8594    2.2086601   0.13234116  0.099719173 
   17700   -954.71295    40.188395   -914.52456    1439.4026    3233.4634    2.2043958  0.068817207  0.094434908 
   17800   -950.28078    39.763927   -910.51685    1424.1996   -952.13338    2.1821398   0.19448964  0.082419876 
   17900   -957.34393    39.225052   -918.11888    1404.8991   -7022.7538    2.1832494   0.26009276  0.085478427 
   18000   -955.17365     38.10989   -917.06376     1364.958   -7946.6598    2.1770484    1.6323752   0.11095261 
   18100   -955.24479    41.965098   -913.27969    1503.0376    4285.6417    2.2078793   0.56656356   0.10764591 
   18200   -954.78706    42.178364    -912.6087     1510.676    10677.199    2.2213036    1.4213519   0.11412768 
   18300   -958.10741    37.107308    -921.0001    1329.0492   -185.75363    2.2004884   0.29214139  0.096240619 
   18400   -952.88677     37.52935   -915.35742    1344.1652   -14175.567    2.1581262    1.6553243   0.11739499 
   18500   -951.59743     38.64993    -912.9475    1384.3003   -3807.1327    2.1791223    0.5256905  0.095673222 
   18600   -955.07862    39.662269   -915.41636    1420.5587    6845.0965    2.2125055   0.14825679   0.10055559 
   18700   -959.09871    38.231358   -920.86736    1369.3086    6242.2666    2.2229567   0.18606059  0.087910314 
   18800   -952.58741    39.387192   -913.20022    1410.7064    116.16312    2.1882169   0.39389152  0.094616142 
   18900   -953.64633    38.485774   -915.16056    1378.4209   -4079.7933    2.1822465   0.10163402  0.093256842 
   19000   -957.67719    37.527658   -920.14953    1344.1046   -1778.8663    2.1994944  0.063495707  0.085013682 
   19100   -952.36539     39.69135   -912.67404    1421.6002    3516.0587    2.2003272   0.16755367   0.10119575 
   19200   -955.10505    41.346192   -913.75885    1480.8707    5072.7279     2.207773   0.15861193  0.098106887 
   19300   -956.87543    38.814053   -918.06138    1390.1786    52.955628    2.2008502   0.20661732  0.094327822 
   19400   -950.79473    39.143356   -911.65138    1401.9731   -2692.3028    2.1774388   0.36167232   0.10604315 
   19500   -953.01361    40.609322   -912.40429    1454.4786   -1830.7542    2.1867863   0.26394457   0.10271065 
   19600   -956.62353    39.516173   -917.10736     1415.326    2524.8315    2.2059598  0.027026533  0.087491713 
   19700   -952.87449    39.194045   -913.68045    1403.7886    5688.7789    2.2087236   0.17005027  0.089493302 
   19800   -951.33911    40.888193   -910.45092    1464.4668   -2282.8827     2.184113   0.32911768  0.098111629 
   19900   -954.70622    36.889051   -917.81717     1321.232   -10015.167    2.1729285   0.19205375  0.092483218 
   20000    -954.4287    39.135456   -915.29324    1401.6901   -4823.4477     2.184796  0.055185906  0.090391862 
   20100   -951.76293    41.992605   -909.77033    1504.0228    13253.543    2.2170888   0.17612721  0.092463209 
   20200   -957.27508    39.513344   -917.76173    1415.2247    13509.829     2.233809  0.050029892  0.088729456 
   20300   -953.42623    36.715479   -916.71075    1315.0153   -4348.3554    2.1827584  0.075229384  0.097822809 
   20400   -953.17893    39.980464   -913.19847    1431.9552   -12861.802    2.1590013   0.16118821    0.1046026 
   20500   -956.62376    37.259286   -919.36448    1334.4925   -2709.4409    2.1949907   0.20806106  0.089196066 
   20600   -956.17694     38.56711   -917.60983     1381.334    7986.0336    2.2185762   0.24282407  0.089927932 
   20700   -955.02063    42.566918   -912.45371    1524.5926    5271.9321    2.2055525  0.054814109  0.084474922 
   20800   -955.29968    37.438994   -917.86069     1340.929   -1973.1083    2.1903823  0.091373988  0.080198549 
   20900   -955.17997    36.622859   -918.55711     1311.698   -4547.5946    2.1825558  0.098768944  0.080127516 
   21000   -949.66017    37.337811   -912.32236     1337.305   -443.97282    2.1822741   0.23579801  0.099343625 
   21100   -954.05377    37.449167   -916.60461    1341.2933    5356.2122    2.2065103  0.098131118  0.081362515 
   21200   -956.29536    38.083367     -918.212    1364.0081    5896.2395    2.2134817  0.023417539  0.082422677 
   21300   -951.86612    41.196805   -910.66932    1475.5202   -3719.3586    2.1795282  0.097231988  0.097244968 
   21400   -953.84083    37.339267   -916.50157    1337.3571    -4817.615    2.1791713    0.2387563  0.094148153 
   21500   -956.49698    39.551433   -916.94555    1416.5889   -2703.1405    2.1928974  0.045936306   0.10762977 
   21600   -954.78248    45.332156   -909.45032    1623.6334    3567.4838    2.2022992   0.09913887  0.098192014 
   21700   -956.78783    40.828315   -915.95951    1462.3222    8664.9442    2.2189048   0.14957593  0.091338621 
   21800   -954.95729    37.743986   -917.21331    1351.8527   -4610.0324    2.1855912   0.16349464  0.088068867 
   21900   -952.11724    40.592354   -911.52488    1453.8709   -17354.875     2.146592   0.12062965   0.10779824 
   22000   -957.82296    40.566739   -917.25622    1452.9535   -4990.2036    2.1884114   0.26012397  0.086376259 
   22100   -957.41204    40.161286   -917.25076    1438.4316     13074.94    2.2360569  0.089831683  0.081945189 
   22200   -953.22829    40.504524   -912.72377    1450.7252    10109.736    2.2177853   0.28539623  0.089679634 
   22300   -952.75526    37.566247   -915.18902    1345.4867   -3572.7203     2.184849   0.23063086  0.086218004 
   22400   -959.05543    38.528886   -920.52655     1379.965   -7394.9191    2.1886329   0.28736613  0.095497232 
   22500   -953.87184    40.101734   -913.77011    1436.2987   -122.71596    2.1935841   0.29796767  0.096363645 
   22600   -950.74696     36.33408   -914.41288     1301.355    6849.6755    2.2097653   0.10163299    0.1040709 
   22700   -957.23733     36.59433     -920.643    1310.6762     4598.563    2.2170734   0.12431017  0.092359237 
   22800   -954.91506    41.832856    -913.0822    1498.3012   -4873.8625    2.1841557  0.035177969  0.099584204 
   22900   -956.37205    41.770529   -914.60152    1496.0689   -6844.1785    2.1828065   0.04812233   0.10609707 
   23000   -956.49154    37.552219   -918.93933    1344.9843    1243.8112    2.2050868  0.011921773  0.091188164 
   23100   -956.13072    42.792465   -913.33825    1532.6709    6010.5365    2.2118335   0.12785858  0.087198617 
   23200   -953.33072    40.836889   -912.49383    1462.6293    4431.4887    2.2039925    0.2413277  0.093436122 
   23300   -954.93848    37.519939   -917.41854    1343.8281   -5476.2883    2.1848413   0.12454906  0.088932301 
   23400   -951.22615     37.57801   -913.64814    1345.9081   -8264.4303    2.1702481   0.10753972   0.10271418 
   23500    -949.5291    39.011761   -910.51734    1397.2598    918.56894    2.1906814   0.25227513    0.1036732 
   23600    -957.0181    40.791267   -916.22683    1460.9952    10238.096    2.2266074    0.1181901  0.089342144 
   23700   -959.49249    44.082818   -915.40967    1578.8867    2485.0945    2.2144889   0.21317403    0.0935624 
   23800   -951.56538    41.989409   -909.57597    1503.9084   -10455.098    2.1619153   0.16214493   0.10040167 
   23900   -957.11083    39.389341   -917.72149    1410.7833   -13533.214    2.1681596   0.18059204  0.092931721 
   24000    -955.7264     39.13624   -916.59016    1401.7182   -221.11974    2.2004875  0.088987551  0.098873816 
   24100   -954.01979    41.982774   -912.03702    1503.6707    12521.969     2.225882   0.30480829   0.10121221 
   24200   -955.72577    38.616769     -917.109    1383.1126    3858.1977    2.2129455   0.37034724  0.091734192 
   24300   -954.69217    35.360377   -919.33179    1266.4805   -4669.2969    2.1876447   0.16421514  0.095630012 
   24400   -955.00517    40.721257   -914.28391    1458.4877   -6116.9206    2.1843869   0.43285911   0.10076614 
   24500   -952.10143    37.280582   -914.82085    1335.2552    1889.5631    2.1983446   0.15152452   0.11198459 
   24600   -956.43749    34.971965   -921.46553    1252.5689    6160.9197     2.219273   0.21993848   0.09664866 
   24700   -955.46418     41.27373   -914.19045    1478.2753   -528.82687    2.1982888   0.18905509  0.091643994 
   24800   -952.73662    38.112758   -914.62386    1365.0608   -1665.7347    2.1875262  0.068626854  0.092062372 
   24900   -955.05308    34.888356   -920.16473    1249.5744   -2635.8504    2.1972494   0.11118932   0.10126753 
   25000   -955.99021    39.516739   -916.47347    1415.3463    2100.3168    2.2086053   0.10811213  0.098594193 
   25100   -953.72356    40.699393   -913.02416    1457.7047    7171.2055    2.2099294   0.11448373  0.097239677 
   25200    -954.3954    37.503318   -916.89208    1343.2328    532.61333    2.1978931   0.19591662  0.092551568 
   25300     -955.948     38.07716   -917.87084    1363.7858    -6896.709    2.1836027   0.15061015   0.10151526 
   25400    -952.1504    41.809818   -910.34058     1497.476    -6446.899    2.1769633   0.36525453   0.10831023 
   25500   -956.88453    41.755354   -915.12917    1495.5254    4284.5399    2.2133318  0.017130749  0.098607154 
   25600   -954.30625     37.86867   -916.43758    1356.3184    10956.202    2.2312093   0.10458782  0.093385571 
   25700   -949.60542    40.551513    -909.0539    1452.4081    1781.9463    2.1925571  0.021786887   0.11117589 
   25800   -952.97033    39.812405   -913.15793     1425.936   -10180.639    2.1713084   0.12338848   0.10246494 
   25900   -955.01274    37.960221   -917.05252    1359.5975   -6735.2548    2.1835194   0.13623496  0.097004221 
   26000   -954.71855    41.932578   -912.78597    1501.8729    3744.7021    2.2090542    0.2492223  0.094423958 
   26100   -953.32249    43.836854   -909.48564    1570.0771    5822.5958    2.2090635  0.069873426  0.096529839 
   26200   -953.97406    36.805669    -917.1684    1318.2456    2562.6878    2.2053079   0.16983461  0.096809487 
   26300   -953.81243     38.38176   -915.43067    1374.6955   -4229.2291     2.189383   0.13454755  0.098349252 
   26400   -952.21198    40.927138   -911.28484    1465.8617   -2025.9932    2.1876328   0.17858126   0.10459195 
   26500   -956.53632    37.352443   -919.18388    1337.8291    233.86496    2.2065464   0.11884433   0.08977968 
   26600   -958.63289      40.9859   -917.64699    1467.9663   -2725.8566    2.2012695   0.21835549  0.091386371 
   26700   -956.21449    42.360884    -913.8536    1517.2132   -2233.9066    2.1933777   0.15335582  0.088658275 
   26800   -954.38632    39.405388   -914.98093    1411.3581    416.93716    2.1969611   0.23589777  0.094859507 
   26900   -957.24231    36.307671   -920.93464    1300.4091    4336.2985    2.2140727  0.061422849  0.093739198 
   27000   -954.82634    40.278062   -914.54828    1442.6141    1481.9905    2.2014592   0.08108463  0.085487129 
   27100    -953.4333    38.924948   -914.50835    1394.1505   -3169.5712     2.190364   0.26641914  0.093071709 
   27200   -956.13446    34.544157    -921.5903    1237.2464   -1813.3533     2.200172  0.036521317    0.0879427 
   27300    -955.3539    39.523458   -915.83044    1415.5869    -850.5508    2.1975664  0.058577428  0.091164943 
   27400   -952.24145    38.613224   -913.62822    1382.9857    8867.0868     2.213754    0.3565404  0.097107362 
   27500   -956.55465    38.226597   -918.32806    1369.1381    4455.4523    2.2142873  0.089918402  0.092296173 
   27600   -954.68521    35.567959   -919.11725    1273.9153   -5747.9281    2.1853414   0.22440087  0.097934704 
   27700   -953.98863    41.615824   -912.37281    1490.5279   -13361.725    2.1612952  0.030421111  0.079938903 
   27800   -957.76399    41.902642   -915.86135    1500.8007   -3079.9886     2.194203   0.17326672  0.084915778 
   27900   -955.07739    38.925049   -916.15234    1394.1541    14497.328    2.2300472   0.11486708  0.084883261 
   28000   -952.62308    44.607574    -908.0155    1597.6815    5729.8721    2.2011862   0.25279545  0.092497363 
   28100   -954.43751    39.931162   -914.50635    1430.1894   -5897.6976    2.1809849   0.31720847  0.094299448 
   28200    -954.8443    37.875834   -916.96846     1356.575   -6827.9184    2.1765002  0.084083968  0.081980884 
   28300   -953.17451     41.47809   -911.69642    1485.5948   -242.21547    2.1894438  0.048026991  0.093028194 
   28400   -951.82403    40.904441   -910.91959    1465.0487    4054.5068    2.2013407  0.094061132  0.091837755 
   28500   -955.36122    38.616589   -916.74463    1383.1062    733.17428    2.2019246  0.089196686   0.09165261 
   28600   -952.99063    38.075446   -914.91519    1363.7244   -1427.5435    2.1883114   0.17636885  0.091167772 
   28700   -951.33058    41.643059   -909.68753    1491.5033   -3286.2939    2.1805691   0.14002649   0.10646808 
   28800   -955.51995    38.582472   -916.93748    1381.8842    1122.1351    2.2008522   0.27443346  0.089815871 
   28900   -954.40735    37.617847    -916.7895    1347.3349     1093.221    2.1972334  0.057980654  0.080909338 
   29000   -953.95001    39.653355   -914.29666    1420.2394   -468.22763    2.1943051   0.14039851  0.090825894 
   29100   -952.33404    39.363294   -912.97075    1409.8504    633.93806    2.1922933  0.087297647   0.08542504 
   29200   -957.42652    35.958765   -921.46776    1287.9125    3830.8728    2.2131254   0.11897032  0.091166628 
   29300   -953.98605    37.047311   -916.93874    1326.9003   -287.87556     2.197906   0.15930916  0.089924859 
   29400    -951.8004    37.688499    -914.1119    1349.8654   -3040.1653    2.1836357   0.25840866  0.089301168 
   29500   -955.12205    39.243744   -915.87831    1405.5686   -4766.1613    2.1859113   0.12277658   0.08809823 
   29600   -957.62762     36.80764   -920.81998    1318.3162    8099.4247    2.2253543   0.15677517   0.08267675 
   29700   -954.49751     40.83918   -913.65833    1462.7113    10902.263    2.2206025   0.20103242  0.095856415 
   29800   -951.90445    37.040581   -914.86387    1326.6593   -1945.7161     2.186366   0.21159624  0.087646812 
   29900   -954.24525    34.017211   -920.22804    1218.3731   -11431.103    2.1679051   0.10659628  0.092510632 
   30000    -953.3837    36.276336   -917.10736    1299.2868   -2970.5827    2.1866216   0.15615161  0.087632406 
   30100   -952.62757    39.610492   -913.01708    1418.7042    11387.709    2.2163346   0.13723257  0.094507717 
   30200   -958.24941    42.157563   -916.09185     1509.931    5331.1388    2.2134414  0.061443487  0.084261841 
   30300   -958.95632    39.021262   -919.93506    1397.6001   -6068.3159    2.1889465   0.20081137  0.078086601 
   30400   -956.07436    37.579727   -918.49463    1345.9695   -6490.9179    2.1813873   0.12074948  0.086988841 
   30500    -955.1398    41.775188   -913.36461    1496.2357   -2070.9772    2.1921392   0.20191387  0.088927531 
   30600   -954.86664    40.055934   -914.81071    1434.6583    3577.2624    2.2046743   0.10096839  0.091796755 
   30700   -957.37132    40.835526   -916.53579    1462.5804    297.41718    2.2032917  0.040037666  0.080466696 
   30800   -955.43496    37.138331   -918.29662    1330.1603   -2652.8748    2.1911203   0.33150058  0.087010283 
   30900   -962.52461    36.123219   -926.40139    1293.8027   -2699.8922    2.2071966  0.027053685  0.080876601 
   31000   -957.65065    37.815879   -919.83477    1354.4277   -3375.0236    2.1967801   0.17737887  0.088207142 
   31100   -953.97853    37.565321   -916.41321    1345.4536    1541.5503    2.1995628   0.13065904  0.092649413 
   31200   -956.53766    42.691242   -913.84641    1529.0455    1338.6058    2.2022807   0.13008846  0.094114442 
   31300   -954.20876    38.104168    -916.1046    1364.7531   -115.70875    2.1957527   0.33481902   0.10030821 
   31400   -958.99383    37.850037    -921.1438    1355.6511   -6453.8014    2.1921774    0.3583907  0.098463243 
   31500   -957.18903    41.526598   -915.66243    1487.3321   -3030.3565    2.1948973  0.095965409   0.08366722 
   31600   -951.61571     37.97268   -913.64303    1360.0437    6845.3239     2.209688 0.0077563627  0.092421185 
   31700   -956.21572    35.735977   -920.47974    1279.9331    5747.2147    2.2158806   0.33549097    0.0893694 
   31800   -955.70374    37.781996   -917.92175    1353.2141   -4594.7075    2.1870192   0.14225014  0.095068725 
   31900   -952.28469    37.914407   -914.37028    1357.9566   -6519.4501    2.1770364   0.12800681   0.11134169 
   32000   -953.39725    37.326577   -916.07067    1336.9026    2240.0726    2.2001157 0.0055945407  0.097767428 
   32100   -956.95416    35.457574   -921.49658    1269.9617    9540.6402    2.2277068  0.087948818  0.093849457 
   32200   -953.11826     39.66268   -913.45558    1420.5733    3587.5533     2.201076   0.28356547   0.10567529 
   32300   -953.91914    39.492198   -914.42694    1414.4673   -4630.4146    2.1841053   0.56326879   0.11276424 
   32400   -953.81761    36.980622   -916.83699    1324.5118   -4910.4476    2.1853717  0.083685432  0.099765511 
   32500   -956.62613    36.106102   -920.52003    1293.1896    2487.5869    2.2095963  0.033040871  0.090678042 
   32600    -956.0121    36.980319   -919.03178    1324.5009    11524.687    2.2293448  0.048729781  0.083195151 
   32700   -955.49084    41.747192   -913.74365     1495.233    2836.8198    2.2075163  0.034977237  0.083623997 
   32800   -953.20395    38.135368   -915.06859    1365.8706   -12239.291    2.1650924  0.073102909   0.10550258 
   32900     -954.611    38.193763   -916.41723    1367.9621   -11599.525    2.1687459  0.098049132  0.085810085 
   33000   -960.97557    38.958626   -922.01695    1395.3567    3338.7641    2.2208217   0.12299839  0.087742025 
   33100   -958.26553    39.031424    -919.2341    1397.9641    13388.718    2.2369436   0.20599001  0.084220538 
   33200   -956.18111    40.773278   -915.40784    1460.3509    2920.4636    2.2043959   0.17894363  0.082164023 
   33300   -952.62159    37.384894    -915.2367    1338.9913   -4044.4879    2.1827842   0.24788655   0.10373633 
   33400   -949.21396    36.425866   -912.78809    1304.6424   -431.14699     2.184033   0.30080249   0.10207328 
   33500   -949.64966    44.011013   -905.63864    1576.3149   -705.72783    2.1825759  0.086175142   0.10109252 
   33600   -956.31128     42.35613   -913.95515     1517.043     4646.093    2.2114664   0.21516337  0.086494961 
   33700   -955.56999    40.229716   -915.34027    1440.8826    3750.5392    2.2065141   0.16331559  0.091091259 
   33800   -957.81015    41.510971   -916.29918    1486.7724   -4796.2972    2.1897547   0.12286606  0.088854368 
   33900   -956.43446    40.943008   -915.49146    1466.4301   -6722.3937    2.1808018   0.10585954   0.07678022 
   34000    -950.0742    41.600779   -908.47342     1489.989   -2817.6309    2.1791768   0.21409167    0.1011084 
   34100    -950.7446    38.011048   -912.73355    1361.4179    4488.1494    2.2015447  0.075928564  0.091567049 
   34200   -957.22479     41.77928    -915.4455    1496.3823    2706.4852     2.209255   0.10192665  0.097168609 
   34300   -956.84695    38.836141    -918.0108    1390.9697    -1510.467    2.1988857   0.23341451  0.088053538 
   34400   -950.29244    40.871799   -909.42064    1463.8796   -5658.7561    2.1684201   0.17560106   0.10131651 
   34500    -954.3753    41.809303     -912.566    1497.4576   -579.91888    2.1929775   0.19566852  0.097274361 
   34600   -956.71446    40.948454   -915.76601    1466.6251    8601.9583    2.2215505   0.27167743  0.090953392 
   34700   -955.62652    39.488328   -916.13819    1414.3287    7037.6503    2.2161438   0.34561098  0.097525206 
   34800   -949.79016    41.946454   -907.84371    1502.3698   -10643.647    2.1611761  0.085419224  0.095173959 
   34900   -953.16109    37.754026   -915.40707    1352.2123   -10114.914     2.169239  0.041452665  0.095594173 
   35000    -956.2291    40.114264   -916.11483    1436.7475    896.77157    2.2010069   0.40748295  0.082313125 
   35100   -955.57383    42.942537   -912.63129     1538.046    10943.159    2.2237912  0.082308637  0.094420887 
   35200   -950.56109     42.32286   -908.23823    1515.8514    2298.3755    2.1953208    0.2380424   0.10336974 
   35300   -954.79495    38.011336   -916.78362    1361.4282   -3459.3269    2.1900976   0.27592551  0.095944075 
   35400   -953.36069    37.556157   -915.80453    1345.1253   -2935.4564    2.1865408    0.1191629  0.089104842 
   35500   -953.22878    40.013239   -913.21555    1433.1291   -1038.8621    2.1934545  0.079577286  0.086043687 
   35600   -948.79674    39.468705   -909.32804    1413.6259    5439.7985    2.1994034  0.092484958   0.10499968 
   35700   -947.07625    44.972903   -902.10335    1610.7663   -1647.0738    2.1753645   0.10424506   0.11142153 
   35800   -951.61017    39.568092   -912.04207    1417.1855   -475.92677    2.1895412   0.10268139  0.097844622 
   35900   -952.55353    38.397727    -914.1558    1375.2673    810.83704    2.1942854  0.037784854   0.09536544 
   36000   -954.32454    38.203618   -916.12093     1368.315    2424.6017     2.200658   0.20926333  0.098358407 
   36100   -955.51091    37.588162   -917.92275    1346.2716   -119.58876    2.1985288   0.29444196  0.087886691 
   36200   -958.83702    33.520358   -925.31666    1200.5777   -1992.5513    2.2026589   0.22010613  0.092911406 
   36300   -958.95273    37.082688   -921.87004    1328.1674    -3413.913    2.1941352   0.19955047  0.083816425 
   36400   -955.87715    38.247226   -917.62993    1369.8769    1817.9461    2.2063108   0.12898809  0.094806685 
   36500   -952.70028    38.188339   -914.51194    1367.7678    10744.259     2.213684   0.05368658   0.09464157 
   36600   -953.17006    38.532466   -914.63759    1380.0932   -1199.7777    2.1893186   0.12317801  0.096674593 
   36700   -960.77134    38.347631   -922.42371    1373.4731   -16257.726    2.1691836 0.0084920259  0.088217737 
   36800   -955.94991    37.984564   -917.96535    1360.4693   -10593.166    2.1724847   0.18004926  0.091622985 
   36900   -953.18657     39.31188   -913.87469     1408.009    11874.193    2.2189579   0.21426194  0.094046075 
   37000   -953.01946    37.315405   -915.70405    1336.5025    15378.507    2.2303747  0.059453893  0.093407039 
   37100   -957.01133    34.365912   -922.64541    1230.8623    823.49158    2.2049017   0.16080109  0.092457781 
   37200   -954.16466    39.432448   -914.73221    1412.3273   -11160.399    2.1647866   0.28324134   0.10296804 
   37300   -956.98157     42.25442   -914.72715    1513.4001   -6406.0946    2.1838454   0.14723613  0.096489455 
   37400   -954.83931    37.190606    -917.6487    1332.0326    7922.6313    2.2166807   0.26580762  0.088365009 
   37500    -957.7682    35.456683   -922.31151    1269.9298    8896.1049    2.2255739   0.38736722  0.086288019 
   37600   -953.42579     40.00178   -913.42401    1432.7187   -5951.6497    2.1777593   0.15430648  0.098985357 
   37700   -952.06257    37.283493   -914.77908    1335.3595   -6205.4471    2.1752324  0.086029698  0.094655213 
   37800   -953.29236    37.337371   -915.95499    1337.2892    1850.7136    2.2003172   0.11367197   0.10705337 
   37900   -957.85836    36.292064    -921.5663    1299.8501    7188.7575    2.2231364   0.17282157   0.08116566 
   38000   -957.49457    37.768663   -919.72591    1352.7365    2369.2757    2.2117193   0.26124275  0.092465775 
   38100   -953.43608    37.845157   -915.59092    1355.4763   -2953.7344    2.1886159  0.042880648  0.097565916 
   38200   -955.87107    40.402652   -915.46842    1447.0765   -7634.6632    2.1794835   0.22949014  0.090101544 
   38300   -952.02924    38.579791   -913.44945    1381.7882     1299.131    2.1909861   0.24562379  0.098821981 
   38400   -949.75935    44.050764   -905.70859    1577.7386    3248.8378    2.1923929    0.1633883   0.10046208 
   38500   -953.58686    40.143072   -913.44379    1437.7792    6207.6273    2.2083853   0.15051442  0.086833183 
   38600   -954.50445    38.748093   -915.75635    1387.8162    -2397.207    2.1903303   0.19034302  0.087595778 
   38700   -953.30736    37.169109   -916.13825    1331.2627   -9949.7998    2.1649865   0.15732423  0.094488145 
   38800     -949.332    41.526191   -907.80581    1487.3176   -5065.5462    2.1695475   0.08799923   0.10254904 
   38900    -952.4679     39.67779   -912.79011    1421.1145     19412.38    2.2362042   0.13532411  0.094510326 
   39000   -956.34245    41.045246   -915.29721    1470.0919    10052.831    2.2228188   0.27969735  0.089507948 
   39100   -951.93223    36.182071   -915.75016    1295.9106   -5051.1805     2.177677   0.41957181  0.099947099 
   39200    -950.5413    42.283002    -908.2583    1514.4238   -9690.0173    2.1605133  0.066464817   0.10115658 
   39300   -955.41454    42.704376   -912.71017    1529.5159   -2574.0521    2.1918787   0.18567559    0.1011618 
   39400   -951.33277    35.832248   -915.50052    1283.3812     6831.089    2.2118698   0.14730884   0.10133029 
   39500   -955.61558    40.577221   -915.03836    1453.3289    3606.6268    2.2050379   0.17210987  0.090496171 
   39600   -952.54149    43.445822   -909.09567    1556.0718   -2918.5571    2.1808021   0.21771694  0.097690688 
   39700   -950.47135    39.088594   -911.38276    1400.0117   -4213.4299    2.1792265   0.12861468   0.11025634 
   39800   -956.16082    40.559623    -915.6012    1452.6986   -3970.0502    2.1909489   0.22358701  0.090364404 
   39900   -959.78275    44.650373   -915.13238    1599.2144    1501.6963    2.2077423   0.10355013  0.078617764 
   40000   -955.24105    42.826877   -912.41418    1533.9034     5490.074    2.2090783   0.22618744  0.094264438 
   40100   -949.65519     42.04972   -907.60547    1506.0685   -4788.7728    2.1772251   0.11092839   0.10886947 
   40200   -953.62881    38.604838   -915.02397    1382.6853   -10335.738    2.1722055   0.21456271   0.10462064 
   40300    -951.0635    35.178636   -915.88486    1259.9712    1547.3709    2.1958203   0.18511593   0.10412736 
   40400   -954.86956    40.626925   -914.24263    1455.1091    12326.354    2.2310112   0.13095354  0.089369582 
   40500   -948.68442    42.478559   -906.20586    1521.4279    8123.5132    2.2002393   0.19838879   0.11001048 
   40600   -953.73856    39.691904   -914.04666    1421.6201   -8027.4352     2.176889   0.47967115  0.094958728 
   40700   -954.17956     38.19537   -915.98419    1368.0196   -9826.6865     2.174567   0.16299582  0.099348754 
   40800   -954.54927    40.227095   -914.32217    1440.7886    1545.8419     2.201115   0.14308456  0.087832263 
   40900   -951.87797    45.714968     -906.163    1637.3444    4935.8479    2.1993481  0.068509012  0.099646511 
   41000   -954.82161     40.57622   -914.24539    1453.2931    3060.0938    2.2035129   0.35217949  0.092459727 
   41100   -955.01571    38.835424   -916.18028    1390.9441   -2803.4303    2.1921621  0.042960088  0.096463072 
   41200   -953.45396    39.404868   -914.04909    1411.3395   -3812.7988    2.1865569   0.13290811   0.10117227 
   41300   -949.58304    42.195109   -907.38793    1511.2758   -2998.8474      2.17909  0.056524136   0.10822286 
   41400   -954.03148    38.459672   -915.57181     1377.486    4393.7843    2.2084274   0.15598796   0.10185114 
   41500   -953.69516     38.11272   -915.58244    1365.0594       4985.2    2.2089868   0.40086024  0.087415829 
   41600   -951.05696    38.838491   -912.21847    1391.0539   -227.38371    2.1868143   0.25451165   0.10470474 
   41700   -948.97463    40.889669   -908.08496    1464.5197   -6452.4069     2.166651    0.3782331  0.095792538 
   41800   -957.87334    41.520785   -916.35256     1487.124   -3525.4641    2.1941675   0.20614474  0.092566011 
   41900   -954.95487    40.023727   -914.93115    1433.5047    8915.3526    2.2183349  0.037831932  0.087329014 
   42000   -953.37247    40.561189   -912.81128    1452.7547    6933.3503    2.2123422   0.15184641  0.094499453 
   42100   -947.77555    41.881771   -905.89378    1500.0531   -7196.7283    2.1614954    0.1860274   0.10841218 
   42200   -956.03566    40.831647   -915.20401    1462.4415   -8645.6909    2.1767019   0.10804593  0.093702824 
   42300   -954.35258    38.786912   -915.56567    1389.2065    1785.1622    2.2042329   0.10947945  0.097769234 
   42400   -954.56226    40.199588   -914.36267    1439.8034    8472.9269    2.2188713  0.035724063  0.090103099 
   42500   -950.45403    42.824218   -907.62981    1533.8082    1567.4274    2.1931343   0.25012564   0.10462697 
   42600   -953.21617    41.566727   -911.64944    1488.7694   -5596.2359     2.178595   0.14129705  0.098001756 
   42700   -952.93666    37.469595   -915.46706     1342.025   -4618.1669    2.1843149   0.26776162   0.10691707 
   42800   -953.43525    37.857027   -915.57823    1355.9014    1609.7604      2.19771   0.24717108   0.09403668 
   42900   -954.07939    41.413057   -912.66633    1483.2655    3696.6859    2.2014098   0.32840265  0.086505447 
   43000   -949.85258    41.516988   -908.33559    1486.9879   -2450.3452    2.1796971   0.20315524  0.099975404 
   43100   -952.92898    38.110891   -914.81809    1364.9939   -2697.9468    2.1837096   0.21523235  0.089820083 
   43200   -953.60643    37.538891   -916.06754    1344.5069    673.41182    2.1953666   0.35256349  0.094307466 
   43300   -954.63712    40.314346   -914.32278    1443.9137    3686.6642    2.2065907  0.083275858  0.090797563 
   43400   -949.87756    41.719572   -908.15799    1494.2438   -145.87502    2.1873009   0.37615689   0.10122391 
   43500    -954.0351     38.80175   -915.23335     1389.738   -4041.3516    2.1862198   0.21251468  0.087476307 
   43600   -953.63861    37.356392   -916.28222    1337.9705   -4206.9094    2.1885494   0.33204759   0.11090017 
   43700   -951.88142    40.825932   -911.05549    1462.2368     4887.593    2.2004333   0.12875148   0.09588648 
   43800    -954.2441     43.77443   -910.46967    1567.8413    4881.2764    2.2049583   0.28694192   0.10377239 
   43900   -955.47884    39.368452   -916.11039    1410.0352   -2614.9927    2.1913502   0.20057653  0.088891063 
   44000   -956.02256    40.437283   -915.58527    1448.3168   -7446.6954    2.1774908  0.044611196   0.10449857 
   44100   -951.62235    41.878765   -909.74359    1499.9455   -1129.8977    2.1824864   0.23283165   0.10774383 
   44200   -954.79769    42.704719   -912.09297    1529.5282    8223.2976    2.2152124   0.28724715  0.088098474 
   44300   -955.12704    39.100532    -916.0265    1400.4392    5870.4662    2.2132793   0.17347833  0.094261448 
   44400   -951.44842     36.24545   -915.20297    1298.1806   -2724.7591    2.1827612   0.14336939  0.093490365 
   44500   -953.12517    40.075099   -913.05007    1435.3447   -10544.204    2.1664062   0.33276077   0.10696924 
   44600   -955.53184    34.761894   -920.76995     1245.045   -844.21238    2.2010914   0.54449132  0.097124128 
   44700   -958.33401    39.137098   -919.19691    1401.7489    5763.2477    2.2230705   0.50220717  0.094832614 
   44800   -954.59155    39.643216   -914.94833    1419.8762    7694.6161    2.2173721    0.3612324  0.097595359 
   44900   -952.57442     38.19535   -914.37907    1368.0189    -5098.719     2.183827   0.46873316   0.11486243 
   45000   -953.31614    37.954311   -915.36183    1359.3858    -11727.04     2.168906   0.21503949   0.10876401 
   45100   -958.97707    37.382802   -921.59427    1338.9164   -360.17888    2.2061937   0.19076737  0.096175727 
   45200   -956.76274    41.215942    -915.5468    1476.2056      9784.52     2.226532  0.053028332    0.1043671 
   45300   -953.68387    39.678971    -914.0049    1421.1568    5706.9723    2.2094462   0.14435164  0.095698645 
   45400   -958.44377    40.830219   -917.61355    1462.3904   -5644.7948    2.1862737   0.27337736  0.087190102 
   45500   -958.52731    37.590601   -920.93671     1346.359   -5142.7036    2.1956676  0.061228355  0.094080389 
   45600    -952.9328    38.272397    -914.6604    1370.7785    432.29308     2.198161   0.18300849   0.10278076 
   45700   -956.50052    41.724126    -914.7764    1494.4069    1733.9077    2.2028094   0.11996848   0.08806432 
   45800   -958.01233    36.660405   -921.35192    1313.0428    940.21494    2.2052112   0.11348696  0.084543748 
   45900   -953.99346    37.320836   -916.67263     1336.697   -2700.9479    2.1900066   0.18234105  0.099741256 
   46000   -954.51402    40.305256   -914.20876    1443.5881   -898.45449    2.1933967   0.12372752  0.093577428 
   46100   -956.11465    39.764059   -916.35059    1424.2044    45.496922    2.2007264   0.18608283   0.10209357 
   46200   -955.60878    33.853401   -921.75538     1212.506    2369.8966    2.2075567   0.28546433   0.10100061 
   46300   -957.91201     39.48843   -918.42358    1414.3324   -1510.1546    2.1993663   0.15490042  0.090188962 
   46400   -955.95141    40.935404     -915.016    1466.1577   -1526.9373    2.1935123   0.17547128  0.094675197 
   46500   -953.35394    38.016359   -915.33758    1361.6081   -1177.3161    2.1917709  0.022902466  0.085465167 
   46600   -955.83235    39.509317   -916.32303    1415.0805   -1281.1671    2.1973327   0.19448671   0.08231977 
   46700   -959.55405    34.906061   -924.64799    1250.2085    5342.3803    2.2201372  0.098345778  0.078762365 
   46800   -956.17521    37.670829   -918.50438    1349.2325   -1980.5629    2.1961995   0.14820901  0.087814334 
   46900   -954.93337    39.441654   -915.49172     1412.657   -5233.9666    2.1819341   0.37822986  0.094276799 
   47000   -954.20225    39.987157    -914.2151     1432.195   -1535.0878    2.1916732   0.17979298  0.090500206 
   47100   -959.80145    38.163173   -921.63828    1366.8665    5031.4668    2.2194516  0.010267185  0.088098677 
   47200   -952.76616     34.80146    -917.9647    1246.4621    5894.6208    2.2071719   0.28622057  0.097299043 
   47300   -955.96212    41.329468   -914.63266    1480.2717   -3667.1268    2.1852749   0.12819279  0.098576378 
   47400   -954.94651    39.119229   -915.82729    1401.1089   -6204.4183    2.1789292   0.18911194   0.11550761 
   47500     -957.136     34.19391   -922.94209    1224.7019    2194.1237    2.2114431   0.34284936  0.082252542 
   47600    -956.0311    40.380829   -915.65027    1446.2948    5517.8615     2.213757   0.21221092  0.090568849 
   47700   -955.35007    40.844961    -914.5051    1462.9184     3096.074    2.2062985   0.06648647  0.086718278 
   47800   -951.26755    34.036066   -917.23148    1219.0485   -5146.4903    2.1824231   0.14058332  0.099241248 
   47900   -959.81055    36.444129   -923.36642    1305.2965   -9628.6966     2.185068   0.18922713  0.085328173 
   48000   -955.70234    38.376126   -917.32621    1374.4937    1380.7687    2.2027939   0.25655816  0.078256116 
   48100   -955.90731    41.229519   -914.67779    1476.6918     12671.67    2.2309662  0.069439964   0.09627612 
   48200   -955.43209    40.370522   -915.06157    1445.9257    4799.3161    2.2089838   0.12445649  0.096851869 
   48300   -949.10955    37.690405   -911.41914    1349.9336   -8015.9615    2.1684492   0.27702132    0.1251757 
   48400   -950.83596    42.585856   -908.25011    1525.2709   -11121.615    2.1601075   0.28853476    0.1144679 
   48500   -953.90873    38.702196   -915.20653    1386.1723    2170.9874    2.2001149   0.11812776  0.096285734 
   48600   -951.00818    35.632611   -915.37557    1276.2309     9277.281    2.2143585   0.29079037   0.10287375 
   48700   -952.97823    39.407821   -913.57041    1411.4452     2849.526    2.2022146  0.072987584  0.094343399 
   48800   -946.23503    38.912033     -907.323    1393.6879   -3182.9559    2.1706124   0.31506383   0.10602703 
   48900   -953.37338    38.034732   -915.33865    1362.2662   -1997.5232    2.1902238    0.2860095  0.096686333 
   49000   -955.84986    40.339015   -915.51084    1444.7972    2701.7356    2.2079391   0.29395605  0.086957323 
   49100   -953.19613    39.527115   -913.66901    1415.7179    4997.0684    2.2076889   0.31368865  0.091602761 
   49200   -947.06479    40.876187    -906.1886    1464.0368   -3267.7208    2.1744318   0.20874374   0.10995387 
   49300   -953.45889     38.68733   -914.77156    1385.6399   -3359.8564    2.1881135   0.34974498    0.1062651 
   49400   -954.72405     39.02261   -915.70144    1397.6484    1182.6061    2.2013068   0.16138965   0.10126365 
   49500   -952.68593    37.588778   -915.09715    1346.2937    4848.9995    2.2065239   0.15262102  0.099541959 
   49600   -951.69398    45.737542   -905.95644    1638.1529   -1397.2602    2.1812118   0.31393783  0.097568118 
   49700   -952.96996    39.873361   -913.09659    1428.1192   -1441.7763     2.189628   0.24678309   0.10226545 
   49800   -957.34521     41.42424   -915.92097     1483.666   -3994.2473    2.1921383   0.27409685  0.089289602 
   49900   -955.46539    40.145281   -915.32011    1437.8584     2302.787    2.2010294  0.090825682  0.080401978 
   50000   -951.45104    44.632686   -906.81836     1598.581    1601.9295    2.1946648   0.20603665   0.10277188 
   50100   -955.14581    41.211553   -913.93426    1476.0484    3231.5336    2.2047372   0.14348545  0.095907054 
   50200   -953.75851    37.514519   -916.24399     1343.634   -2920.4766    2.1881127  0.059555316   0.10825858 
   50300   -955.01929    41.194886   -913.82441    1475.4514   -7185.3709    2.1804405   0.15050697   0.10604786 
   50400   -949.14832    42.407369   -906.74095    1518.8782    309.06104    2.1824757   0.32630824  0.098935479 
   50500   -955.88292    40.381231   -915.50169    1446.3093    9657.6803     2.224068  0.099855698  0.096451233 
   50600   -956.41685    40.955238   -915.46162    1466.8681    5173.6175     2.211583   0.28001258   0.09820875 
   50700   -952.74222    39.116359   -913.62586    1401.0061   -6973.6605    2.1769299   0.29192633   0.10928743 
   50800   -948.75007    42.871739   -905.87833    1535.5102   -8881.1207    2.1593248  0.065050535   0.10765512 
   50900   -952.24291    37.068039   -915.17487    1327.6427    7903.7647    2.2107653   0.10602537  0.098360984 
   51000   -954.34688     39.01958    -915.3273    1397.5398    9125.5421    2.2199973   0.18580624  0.095002774 
   51100   -952.85976    37.703765   -915.15599    1350.4121    2757.9354    2.1999089    0.2678423  0.098874826 
   51200   -946.63556      38.1896   -908.44597     1367.813   -3480.0869     2.174442 0.0086855491   0.11604501 
   51300   -951.95519    40.318051   -911.63714    1444.0464   -3897.2638    2.1828337   0.28145076   0.10887811 
   51400   -953.89263     38.44031   -915.45232    1376.7925    1307.8155     2.199416   0.08506619   0.10221637 
   51500   -956.01214    40.698355   -915.31379    1457.6675    2774.9487    2.2076473   0.15085261  0.097618118 
   51600   -955.03412    41.612406   -913.42171    1490.4055    1099.2959    2.1987331   0.16955577  0.084642783 
   51700   -949.48298    42.229062   -907.25392    1512.4918    -5229.668    2.1723274  0.094556708   0.10923397 
   51800   -954.64671    39.925392   -914.72131    1429.9828   -3330.0109    2.1908515   0.26958781  0.096939545 
   51900   -953.55217    37.816513   -915.73566    1354.4503    2417.3412    2.2051715   0.10780625  0.097565335 
   52000   -956.81142    41.861134   -914.95029     1499.314    2582.7631    2.2069257   0.12305738   0.10093023 
   52100   -947.86634    40.941337     -906.925    1466.3702   -1607.1461    2.1805289   0.12213997   0.10286139 
   52200   -953.57353     39.01123    -914.5623    1397.2408   -1440.1405    2.1939243   0.15767729   0.11161668 
   52300   -953.79965    37.927551   -915.87209    1358.4273    1205.5565    2.2001775  0.075266422   0.10067512 
   52400   -953.45801    39.057204    -914.4008    1398.8874    1295.5633    2.2008308   0.22827642   0.10484446 
   52500   -951.90321    44.673913    -907.2293    1600.0575   -3631.1614    2.1819698  0.058355996  0.099229296 
   52600     -951.762    36.653516   -915.10849     1312.796    358.16145    2.1975695   0.14098464   0.10391609 
   52700   -954.86469    38.948956   -915.91573    1395.0104    1428.9803    2.2028681   0.11836582   0.11280699 
   52800   -955.14515    42.194435   -912.95072    1511.2516      307.158    2.2005181   0.42962654   0.10765641 
   52900   -952.75123    44.698014   -908.05321    1600.9208   -3910.7647    2.1817868    0.3116183    0.1036471 
   53000   -954.09012    38.364917    -915.7252    1374.0922   -2048.2066    2.1924104  0.030944085  0.095654749 
   53100   -956.56496    40.838976   -915.72599     1462.704    1097.2115    2.2062744   0.15694215   0.11673405 
   53200   -952.73342    41.326218    -911.4072    1480.1552    8603.0974      2.21822  0.022597506   0.11296905 
   53300    -949.3725    39.930873   -909.44162    1430.1791    424.29788    2.1895832   0.24659959   0.12221746 
   53400   -953.89583    37.427924   -916.46791    1340.5325   -11499.729    2.1687798  0.067942758   0.10890661 
   53500   -952.57457    36.986296   -915.58827     1324.715   -2609.0003      2.18792   0.49147653  0.091996832 
   53600   -953.79442    42.015356   -911.77906    1504.8377    9423.0895    2.2220231  0.053197298   0.10653629 
   53700   -952.46786    43.843899   -908.62396    1570.3295    8669.7959    2.2133141   0.21707742   0.10453308 
   53800   -955.62478    38.223529   -917.40125    1369.0282   -1172.0135    2.1986581  0.027684379   0.10170508 
   53900   -956.15613    40.021186   -916.13495    1433.4137   -8067.5291     2.180475   0.10236516   0.10070117 
   54000   -954.15519    39.719836   -914.43536    1422.6205   -2554.3274    2.1904184  0.031268357  0.097936298 
   54100   -954.60702    37.606318    -917.0007    1346.9219    5403.5365    2.2135909   0.12447862   0.09929519 
   54200   -956.74481     35.41644   -921.32837    1268.4884    6079.8382    2.2244643   0.23093599   0.11409437 
   54300   -954.79045    39.133625   -915.65682    1401.6245   -312.29476    2.1998823   0.26236042   0.10013296 
   54400   -954.30417    39.805311   -914.49886    1425.6819   -5337.5988    2.1842341   0.18323154  0.099910837 
   54500    -954.9374     35.18562   -919.75178    1260.2213   -2159.1524    2.1968421   0.12742549   0.11229181 
   54600   -959.85376    40.239134   -919.61463    1441.2199    1804.5365    2.2152573   0.17438832   0.10288271 
   54700   -956.72881    42.708577   -914.02023    1529.6664    5708.0875    2.2152174   0.44616564  0.091396775 
   54800   -953.66173     38.03982   -915.62191    1362.4484   -48.683603     2.200145   0.56577755   0.10260576 
   54900   -957.59574    35.600958   -921.99478    1275.0972   -9003.4089    2.1879674  0.093653619  0.095592259 
   55000   -955.93961    39.152159   -916.78745    1402.2884   -8367.5242    2.1839592   0.15371205    0.1052012 
   55100     -954.177    39.988641   -914.18836    1432.2481    12787.069     2.231563   0.46208799   0.11457363 
   55200   -957.24176    42.916652    -914.3251    1537.1188    19279.257    2.2505569   0.16868488  0.098230295 
   55300   -954.68832    35.372788   -919.31553     1266.925    -4147.796    2.1926856   0.47594889   0.10337719 
   55400   -954.94053    32.144278   -922.79625    1151.2915   -12847.622    2.1703054    0.3334111   0.10704001 
   55500   -953.60243    36.992128    -916.6103    1324.9239   -4434.5401    2.1900055   0.11642175   0.11205327 
   55600   -954.18716    39.211548   -914.97561    1404.4155    4896.4326    2.2112252   0.21350462   0.10806375 
   55700   -953.80987    39.540736   -914.26913    1416.2058    6264.5213    2.2155389   0.18718207   0.11603379 
   55800   -949.29368    43.870593   -905.42308    1571.2855   -1052.0223    2.1838723   0.15607617   0.10505364 
   55900   -951.10462    39.759017    -911.3456    1424.0238   -2183.7324    2.1864757   0.11257292   0.10774826 
   56000    -956.7658    41.756241   -915.00955    1495.5571   -4688.9503    2.1890059   0.13744205   0.10312387 
   56100   -956.41853    40.401244   -916.01729    1447.0261    603.31967    2.2019875   0.08308203   0.08972144 
   56200   -951.04402    37.972761   -913.07126    1360.0466    7285.5621    2.2121597   0.19386213   0.11408875 
   56300   -949.87483    40.618366   -909.25646    1454.8026    887.17323    2.1917926   0.11686764   0.10793386 
   56400   -955.67834    40.084411   -915.59393    1435.6782     -7751.52    2.1826606   0.14838506   0.10283407 
   56500   -957.48276    41.563109   -915.91965    1488.6398   -5630.2612    2.1899502   0.14799324   0.10434125 
   56600   -953.36247    43.327481   -910.03499    1551.8333    3735.3046    2.2048276   0.32235563   0.10543457 
   56700   -953.72159    42.554156   -911.16743    1524.1355    6251.5622    2.2103256   0.11703549   0.10772841 
   56800   -953.24562    37.022958   -916.22266    1326.0281   -3040.9212     2.192174  0.083391399   0.11165621 
   56900   -952.13656    36.560253    -915.5763    1309.4557   -7430.6061    2.1744447   0.37140656     0.107065 
   57000   -950.30743    41.047398   -909.26003    1470.1689   -1664.3372    2.1825848   0.11840066   0.10906125 
   57100   -953.98048    39.578716   -914.40177    1417.5661    11059.474    2.2217811   0.37103564   0.10108442 
   57200   -955.74284    39.415357   -916.32748    1411.7151    5665.1984    2.2150265  0.078966662   0.10129952 
   57300   -953.54677    38.659638   -914.88713     1384.648    -5453.422    2.1783156   0.18622907   0.10166135 
   57400   -953.71501     41.85653   -911.85848    1499.1491    -14057.14    2.1571736   0.31616709   0.10165666 
   57500   -959.97873    38.615334    -921.3634    1383.0612    1610.3241    2.2155358  0.095554535  0.091119459 
   57600   -953.33231     36.20585   -917.12646    1296.7622    16618.831    2.2396746   0.22706965   0.10243865 
   57700   -952.55355    38.337901   -914.21565    1373.1246    3563.0206     2.208628    0.1341037   0.11366712 
   57800   -953.97924    39.089173   -914.89006    1400.0324   -8907.7367    2.1760298    0.1276007   0.11201344 
   57900    -958.6739    36.697675   -921.97623    1314.3776   -3913.9896    2.1979438   0.15464689   0.10735757 
   58000   -952.01157     36.98911   -915.02246    1324.8158    3281.8803    2.2018584   0.19069769   0.10244656 
   58100    -953.1364    39.029199    -914.1072    1397.8844    3865.5431    2.2064073    0.1184353  0.095559876 
   58200   -957.88249    37.574643   -920.30784    1345.7875    588.66521    2.2075713   0.15578734  0.098283222 
   58300   -955.11111    37.516734   -917.59438    1343.7134   -2673.9969    2.1952068  0.028652066   0.10287026 
   58400   -953.10043    39.131271   -913.96915    1401.5402   -2192.0425    2.1909552  0.018256633   0.10389914 
   58500   -956.04859    39.548355   -916.50023    1416.4787   -772.50122    2.1982588  0.046239604   0.09115355 
   58600   -957.50211    36.097523   -921.40459    1292.8824    2701.0617    2.2109532   0.17768918  0.079767354 
   58700   -954.58254    40.590053   -913.99248    1453.7885   -1204.5817    2.1972882  0.038168105  0.094907473 
   58800   -954.66159    40.482401   -914.17919    1449.9328    794.49686    2.2010988   0.02882171  0.094725368 
   58900    -956.1777    39.914819   -916.26288    1429.6041   -1094.9036    2.2000453  0.023186052  0.097826406 
   59000   -955.10901    37.034824   -918.07418    1326.4531   -1598.8883    2.1968171   0.07805278  0.093974661 
   59100   -960.79815    34.616274   -926.18188    1239.8294   -2028.6975     2.207451  0.073849163  0.090055403 
   59200   -958.37452     37.06186   -921.31266    1327.4214   -1697.7898    2.2015805   0.14228722  0.097139154 
   59300   -958.55393    41.236476   -917.31745     1476.941    2258.5757    2.2104926  0.080020454  0.090042373 
   59400   -955.75407    41.294536   -914.45954    1479.0205    4958.1407    2.2103917     0.266922  0.095190634 
   59500   -953.48905    38.970866   -914.51818    1395.7951   -1952.2733    2.1933988   0.38504455  0.098206072 
   59600   -957.61799    35.248626   -922.36936     1262.478   -4279.7539    2.1939892   0.12704344  0.086786228 
   59700   -953.59033     36.95369   -916.63664    1323.5472   -2928.6439    2.1878703   0.19258598  0.094891583 
   59800   -952.42057    38.407765    -914.0128    1375.6268    3830.4784    2.2045217  0.033186118  0.099116228 
   59900   -956.00163    37.707483   -918.29414    1350.5453     9437.744    2.2215407   0.15127497  0.075293718 
   60000   -957.54288    36.829867   -920.71301    1319.1123    1267.2853    2.2089294   0.10339321  0.087161401 
   60100   -953.75364    39.487765   -914.26588    1414.3085   -8024.0153    2.1734777   0.11976523  0.097822479 
   60200   -955.74092    40.071366   -915.66956     1435.211   -10954.797    2.1766815     0.138814    0.1018792 
   60300   -955.84665    35.311747    -920.5349    1264.7387    4657.3753    2.2146637     0.193217   0.10536299 
   60400   -955.42032    39.218104   -916.20221    1404.6503    12065.077     2.231121  0.024894705  0.095674055 
   60500   -956.03537    42.355502   -913.67987    1517.0205    4064.9942    2.2061263   0.38594141  0.092481251 
   60600   -954.66325    37.982228   -916.68102    1360.3857   -9108.4032    2.1757662   0.17750321     0.100448 
   60700    -954.7963    39.357256   -915.43904    1409.6342   -7520.2054    2.1782655   0.17233994  0.092754182 
   60800   -950.71476    41.406542   -909.30821    1483.0322    -591.7743    2.1875483  0.022235148   0.09725898 
   60900    -952.9766    37.933059   -915.04354    1358.6246    5195.4402    2.2076158   0.16348607   0.10442705 
   61000   -955.02693    38.455432    -916.5715    1377.3341    2135.1874    2.2039476  0.094469348  0.081330908 
   61100   -950.44104    41.210281   -909.23076    1476.0028    -1490.428    2.1829388  0.084739035   0.10262663 
   61200   -953.89397    40.304088   -913.58989    1443.5463   -2770.0006    2.1894182   0.15606023  0.087157071 
   61300   -955.24527    38.622378   -916.62289    1383.3135   -1238.1404     2.195974  0.029349944  0.080328773 
   61400   -953.79846    40.620675   -913.17778    1454.8853    1420.9065    2.1986106   0.11191677   0.09958139 
   61500   -950.32613      41.5223   -908.80383    1487.1782    17.439366    2.1883819    0.1678857  0.094136342 
   61600   -953.52238    35.995628   -917.52675    1289.2329    3939.4507    2.2071813  0.044098082  0.099272392 
   61700   -954.04951    38.342996   -915.70652    1373.3071    1258.4465    2.1969215   0.11634001  0.088000521 
   61800   -951.46355    38.519749    -912.9438    1379.6377    -2430.163    2.1826005  0.088726406  0.096628779 
   61900   -950.84535    38.315474   -912.52988    1372.3213   -2487.7293    2.1830666  0.055511009   0.10789294 
   62000   -957.32519    37.562057   -919.76313    1345.3367    7903.8162    2.2240068   0.13319848  0.089673819 
   62100     -956.331    40.848405   -915.48259    1463.0417    10617.466    2.2283225   0.41584176  0.091833971 
   62200   -954.75168    40.506449   -914.24523    1450.7941   -3429.9251    2.1900087   0.17137875  0.088346036 
   62300   -952.60014    38.414365   -914.18578    1375.8633   -13733.199    2.1601082  0.094950529   0.10628025 
   62400   -958.19173    36.611097   -921.58063    1311.2767   -3863.8092    2.1971747   0.24390883  0.083039457 
   62500   -956.75032    41.190731   -915.55959    1475.3026    7904.6054    2.2195342  0.037878034  0.082211125 
   62600   -952.66872    38.833574   -913.83515    1390.8778    7512.6698    2.2122727  0.025996505  0.092085429 
   62700   -958.02386    38.886525   -919.13733    1392.7743   -4989.3262    2.1924246   0.13448754  0.082511163 
   62800   -956.56761    36.752166   -919.81545    1316.3293   -6220.7219    2.1865068  0.078859619   0.09871854 
   62900   -954.11107    39.672177   -914.43889    1420.9135   -229.09809    2.1960728   0.15351925  0.095136193 
   63000   -956.16057    40.714514   -915.44606    1458.2462    3118.6972    2.2084113  0.036270864  0.095415565 
   63100   -961.78908    39.967891   -921.82119    1431.5049    383.70242    2.2117739  0.049755749  0.081854092 
   63200    -955.5486    40.165398    -915.3832    1438.5789   -1773.5402     2.192777   0.32563688  0.089872864 
   63300   -954.99188    40.694075   -914.29781    1457.5142   -1912.1868    2.1931979   0.14447908  0.092267286 
   63400   -955.68107    39.064737   -916.61633    1399.1572    1530.2474    2.2002818   0.16267588  0.091917553 
   63500    -958.6492    37.409879   -921.23932    1339.8862     1283.907    2.2124721   0.28911749  0.086944255 
   63600   -957.17153    36.636946   -920.53459    1312.2026    3759.6783    2.2118678   0.18458608  0.087131642 
   63700   -956.91796    41.845574   -915.07238    1498.7567   -2345.7214    2.1920581   0.22301445   0.08189941 
   63800   -955.33362    39.877133   -915.45649    1428.2543   -9255.8142    2.1750656   0.04925255  0.090806735 
   63900   -953.04712    37.974915    -915.0722    1360.1237   -2770.5044    2.1886651   0.11580303  0.099336501 
   64000   -958.26948     35.29979   -922.96969    1264.3105    11724.771    2.2368514   0.16011694  0.090595379 
   64100   -957.86631     38.27665   -919.58966    1370.9308    9824.4287    2.2298929   0.12352049   0.09685461 
   64200   -952.61129    36.872626   -915.73867    1320.6438   -3724.8121    2.1881416    0.1487371   0.10344993 
   64300   -956.25751    41.598552   -914.65896    1489.9093   -12197.677    2.1687544   0.29319696  0.085598397 
   64400   -956.27009    37.954357   -918.31573    1359.3874   -1994.1766    2.1952784  0.029629477  0.092344332 
   64500   -954.36567    33.857186   -920.50848    1212.6416    10378.362    2.2298381   0.34829336   0.09343261 
   64600     -954.966    40.607165   -914.35883    1454.4014    7038.1907    2.2168387   0.50078624  0.099328813 
   64700   -956.10888    40.971703   -915.13718    1467.4578   -4758.3649    2.1886463   0.15402248  0.099438463 
   64800   -954.98837    34.121806   -920.86657    1222.1194   -6997.1722    2.1842008   0.17865101  0.087982212 
   64900   -953.00897    34.818664    -918.1903    1247.0783    377.05332    2.1979384   0.19876805   0.09938518 
   65000   -954.63448    40.821176   -913.81331    1462.0665    7276.5534    2.2120618   0.11959791  0.094144097 
   65100   -954.38143    38.398179   -915.98325    1375.2835    4441.3131    2.2089247  0.076171377  0.093766691 
   65200   -956.68641     34.89929   -921.78712     1249.966   -1795.3295    2.1983286  0.011441638   0.09136849 
   65300   -956.78616    39.923373   -916.86278    1429.9104   -5566.1615    2.1890252   0.22692151    0.0901105 
   65400   -955.96992    41.314661   -914.65526    1479.7413    489.33122     2.201411   0.18156113  0.089161586 
   65500   -954.79355    39.412199   -915.38135     1411.602    3710.9402     2.206609   0.23526232  0.088722872 
   65600   -956.02649    36.317879   -919.70861    1300.7747    -274.5129    2.2007711   0.19705877  0.085192773 
   65700   -955.44424    32.675274   -922.76896    1170.3098   -564.13026    2.2005512   0.12585625  0.086253481 
   65800   -953.87702    37.948257   -915.92876     1359.169   -2059.1438    2.1923901   0.23328093  0.097268035 
   65900   -953.37636    38.309351   -915.06701     1372.102    229.86374    2.1965883   0.38229493   0.08554081 
   66000   -953.58719    38.032855   -915.55433    1362.1989    3548.0697     2.201349  0.014577287  0.094957563 
   66100   -959.28168    35.534748   -923.74693    1272.7258    3684.5188    2.2169203   0.27546256  0.084681705 
   66200   -953.52861    36.277468   -917.25114    1299.3274    -3162.338     2.187324   0.15590575  0.089368304 
   66300   -954.74712    39.716687   -915.03043    1422.5077   -6161.8218    2.1793581  0.075604269   0.09855128 
   66400   -954.94645    40.425676   -914.52077    1447.9011    1418.4718    2.2023863   0.14703818   0.09559296 
   66500    -955.9688    33.982266   -921.98654    1217.1215    20934.641    2.2541149   0.31716091  0.091986826 
   66600   -954.10131    38.181672   -915.91964     1367.529     5321.091    2.2096356   0.41348438  0.089078155 
   66700   -953.80762    39.028401   -914.77922    1397.8558   -14686.952    2.1598944   0.24603944  0.092105346 
   66800   -951.26669    35.432534   -915.83416    1269.0649   -10873.863    2.1682174   0.05933497   0.10021236 
   66900   -959.04869    37.031929   -922.01676    1326.3494    3722.8818     2.219908  0.017068204  0.094094725 
   67000   -957.11631    40.892825   -916.22349    1464.6327    10943.999    2.2273401   0.12302882  0.095480361 
   67100   -951.55158    37.048899   -914.50268    1326.9572    5340.6669    2.2049395  0.022695284  0.083548497 
   67200   -955.65463    39.310563   -916.34407    1407.9618   -8632.6922    2.1797368   0.18051269  0.093454355 
   67300   -954.08241    37.504693   -916.57772    1343.2821   -6658.1682    2.1785511  0.022468055  0.091559687 
   67400   -954.23519    45.924781   -908.31041    1644.8591   -3186.7024     2.184996   0.27213198  0.094772808 
   67500   -954.56668    41.382224   -913.18446    1482.1612    8017.9233    2.2164665   0.28328788  0.089058222 
   67600   -953.92226    38.119151   -915.80311    1365.2897    6899.8567    2.2108188   0.12059519  0.081241542 
   67700   -954.09649    38.415713   -915.68078    1375.9115   -3575.3478    2.1861677   0.37983031  0.087424469 
   67800      -947.14    39.538982   -907.60101    1416.1429   -8215.0252    2.1594574   0.56409757   0.11435012 
   67900   -958.07002    42.290445   -915.77958    1514.6904   -1141.3929    2.1997765  0.093832699  0.090747839 
   68000   -953.07695    37.444075   -915.63287     1341.111    9479.9718    2.2176696   0.14433241   0.08265514 
   68100   -950.62957    38.120477    -912.5091    1365.3373    4526.1991    2.2008578  0.052346694  0.094892648 
   68200   -953.70486    44.668352   -909.03651    1599.8584   -8091.8359    2.1703697   0.20565707  0.096582735 
   68300   -953.27249    36.336193    -916.9363    1301.4306   -1797.5066    2.1902379  0.085344305   0.09925942 
   68400   -950.56608    35.442278   -915.12381    1269.4139    5765.3583    2.2058257   0.38495712   0.10722579 
   68500   -952.82733    40.866836    -911.9605    1463.7019    2800.4417    2.2022484   0.08543686  0.088844715 
   68600   -949.48194    43.297738    -906.1842     1550.768   -1234.3903    2.1819376   0.43918732  0.097584036 
   68700   -953.62826    37.839189   -915.78907    1355.2625    3.0735133    2.2019634   0.08585753   0.10743026 
   68800   -957.56752    41.849673   -915.71785    1498.9035   -2119.5481    2.1983921   0.23180945   0.10392015 
   68900   -957.38594     42.45838   -914.92756    1520.7052    -1350.602    2.1976268   0.18866936  0.091278987 
   69000   -954.33185    41.497974   -912.83388     1486.307   -510.36325    2.1957281   0.21308233   0.09109619 
   69100   -950.58609    44.697382   -905.88871    1600.8981   -2706.6431    2.1785326  0.032210303  0.090672437 
   69200   -952.55687    39.043114   -913.51376    1398.3828    177.23155    2.1945692  0.078614552  0.094229325 
   69300   -955.02041    39.476641   -915.54377    1413.9101    2852.8307    2.2066098   0.20850546  0.095906045 
   69400    -954.3058    37.611199    -916.6946    1347.0967    4516.7228    2.2095903   0.26138563  0.088618457 
   69500   -950.23953    42.432759   -907.80677    1519.7876   -2238.5351    2.1825929   0.19784265  0.095944112 
   69600   -954.05511    41.828575   -912.22653    1498.1479   -3745.4479    2.1828381   0.60113039  0.093027241 
   69700    -954.9432    38.981429   -915.96177    1396.1734   -1421.0455    2.1971662   0.20005637  0.098358929 
   69800   -955.61745    39.874493   -915.74296    1428.1597    5826.7713    2.2151727   0.16004226  0.092701106 
   69900    -949.6508    42.453167   -907.19763    1520.5185    3457.6591    2.1948805  0.050120733  0.093897746 
   70000   -954.15604    39.998004   -914.15803    1432.5834   -1113.5396    2.1927063  0.040612755  0.089172062 
   70100   -956.46996    39.896095   -916.57387    1428.9334   -7527.9723    2.1833365   0.15906746  0.097607214 
   70200   -952.56867    39.930043   -912.63863    1430.1493   -2267.4257    2.1916676  0.075236463   0.10397109 
   70300   -954.40414     45.87121   -908.53293    1642.9404    3156.8345    2.2015852   0.10266085   0.09479299 
   70400   -955.11096    39.314087   -915.79687     1408.088    6719.6377    2.2164426  0.057321504  0.087474881 
   70500   -954.16324    38.763092   -915.40015    1388.3534    -1400.126     2.196678   0.27342195  0.085821853 
   70600   -951.62765    40.701371   -910.92628    1457.7755   -7684.0549    2.1727403  0.094714627   0.10405232 
   70700   -951.04812    41.758291   -909.28983    1495.6305   -3866.0027    2.1791389  0.094643421  0.098240718 
   70800   -956.33995    39.981806   -916.35815    1432.0033    5955.8083    2.2208063   0.12117955  0.094609038 
   70900   -954.51036    39.829264    -914.6811    1426.5398    11815.263    2.2268347   0.19453253  0.095839745 
[...]
  186800   -950.08033    41.144794   -908.93553    1473.6573   -3180.8351    2.1832728 0.0053677479   0.10253073 
  186900   -955.42017    39.862851   -915.55732    1427.7427   -5843.5239    2.1820042   0.19879455  0.092719703 
  187000   -954.27522    37.928037   -916.34718    1358.4447   -2260.5037    2.1916533   0.23797882  0.094890207 
  187100   -950.78021    41.166777   -909.61343    1474.4447    4631.7614    2.2003422   0.39961184   0.10373762 
  187200   -951.09873    37.763129    -913.3356    1352.5383    6067.7722    2.2048692   0.27771604    0.1039034 
  187300   -957.07952    40.202497   -916.87702    1439.9076   -4703.4837    2.1907545  0.074653137  0.091203925 
  187400   -954.06785    40.241438   -913.82641    1441.3024   -5358.4091    2.1850672   0.20986116   0.10141256 
  187500    -950.5948    41.293289   -909.30151    1478.9759   -504.70827    2.1873137   0.33483887   0.09500652 
  187600   -957.30625    39.130989   -918.17526    1401.5301     5664.057    2.2161622   0.27244913  0.093697386 
  187700   -954.68257      38.5819   -916.10067    1381.8637    561.36215     2.200725   0.16357419   0.09417331 
  187800   -951.68779    38.068405   -913.61939    1363.4722    -3263.211    2.1839821   0.19493099   0.09850957 
  187900   -954.25067    37.822582   -916.42808    1354.6677   -3168.2479    2.1889982   0.20021996  0.097008225 
  188000   -956.12439    36.032634   -920.09175    1290.5583    1167.2675    2.2078297    0.2015861  0.094021497 
  188100   -954.30721    39.576203     -914.731    1417.4761    2836.8236    2.2051089   0.25061745   0.10286278 
  188200   -954.44319    40.075827   -914.36736    1435.3708    203.41283    2.1991846   0.50613838   0.10176208 
  188300   -956.29172    34.357508   -921.93421    1230.5613   -1380.2971    2.2031202   0.13156639  0.094004148 
  188400   -956.61109    40.325807   -916.28528    1444.3242   -4339.9571    2.1919933   0.14689892   0.10805803 
  188500   -952.82613    38.890838    -913.9353    1392.9288     2162.845    2.2002114   0.21269213   0.10548972 
  188600   -954.53527    36.757965   -917.77731     1316.537    5663.0497     2.211913   0.11187821   0.10163513 
  188700   -959.50021     37.96157   -921.53864    1359.6458    -339.8022    2.2089869   0.10230071  0.084902059 
  188800   -950.03249    36.256571   -913.77592    1298.5789     -3346.39    2.1802882   0.38339468   0.09492383 
  188900   -954.27772    38.837211   -915.44051     1391.008   -4736.0666    2.1855243   0.15803388  0.094309472 
  189000   -956.11904     36.95773   -919.16131    1323.6919    4567.7407    2.2118924   0.27069252  0.090882103 
  189100   -958.82644    40.421439     -918.405    1447.7494    9748.6528    2.2321663   0.14535767  0.091846762 
  189200   -953.57452      40.9935   -912.58102    1468.2385   -394.09512    2.1940405  0.090796857  0.093472112 
  189300   -953.67395    38.018129   -915.65582    1361.6715   -16131.741     2.157181  0.027095393  0.098024238 
  189400   -955.77455    39.517314   -916.25723    1415.3669   -10415.385    2.1726641  0.088990702  0.092424581 
  189500   -957.63728    42.124999   -915.51228    1508.7647    7160.9122    2.2210878   0.13878021   0.09321894 
  189600   -951.63928    42.965781    -908.6735    1538.8785    5471.4806    2.2038505   0.39623771   0.10165982 
  189700   -950.99642    37.293832   -913.70259    1335.7298   -1634.4856    2.1881689   0.14534212   0.10224599 
  189800    -957.4382    40.787478   -916.65072    1460.8595    -7420.751    2.1845876    0.2698631  0.094910598 
  189900   -953.24921     38.86548   -914.38373    1392.0205    690.15634    2.1964798   0.19366682   0.10364363 
  190000    -951.9388     43.13008   -908.80872     1544.763    2027.8056    2.1967606   0.17256429   0.10270672 
  190100   -956.05637     40.50142   -915.55495     1450.614    227.81722    2.2032839   0.30918216   0.09466117 
  190200   -954.76405    38.764154   -915.99989    1388.3914   -1991.1868    2.1965866   0.28102487   0.10649797 
  190300   -948.42941    39.324124   -909.10529    1408.4475   -2167.2916    2.1816599   0.18225469   0.10981411 
  190400   -953.23879    40.010004   -913.22878    1433.0132    909.00319    2.1983289   0.12953429   0.10142545 
  190500   -953.03601    36.903963   -916.13204    1321.7661    1620.4643    2.2034106   0.21018034  0.096706484 
  190600   -954.34251    39.766065   -914.57644    1424.2762   -1052.0623    2.1971721   0.27544353  0.084020424 
  190700   -951.09071    42.868409    -908.2223     1535.391   -5139.5221    2.1802412   0.17694781   0.11368093 
  190800   -953.55836    39.116516   -914.44185    1401.0117    -816.1725    2.1946425   0.21774493   0.10870966 
  190900   -954.24938    38.251088   -915.99829    1370.0153   -953.02526    2.1974056   0.10627527  0.098296448 
  191000   -952.23601    37.236939   -914.99907    1333.6921    3346.6234    2.2030987   0.22963024   0.10417525 
  191100   -951.07355    38.918979   -912.15457    1393.9367    3857.7522    2.1983603   0.20798394  0.098922612 
  191200    -948.7994    42.379278   -906.42012     1517.872   -2828.2187    2.1737899   0.31928242   0.11040125 
  191300   -953.21596    38.526133   -914.68983    1379.8664   -3715.5853    2.1861138   0.37608215   0.10547231 
  191400   -953.79371    38.276347   -915.51736    1370.9199     3495.455    2.2063321   0.34471451   0.10075123 
  191500   -956.80355    40.918198   -915.88535    1465.5415    5807.2959    2.2165033   0.36496125  0.085853412 
  191600   -949.03025     42.07827   -906.95198     1507.091   -1981.8016    2.1824927  0.070421929  0.099984937 
  191700   -954.21114     40.43293   -913.77821    1448.1609   -5210.9213    2.1834939   0.37257276   0.10060473 
  191800   -955.77321    39.632867   -916.14034    1419.5056   -2510.0302    2.1944868   0.26097751   0.10241967 
  191900   -951.05136    36.761128   -914.29024    1316.6503    7889.5069    2.2103401   0.17815428   0.10848033 
  192000   -949.88635    42.551996   -907.33435    1524.0582    3780.1821    2.1971286    0.2716682   0.10429379 
  192100   -955.51906    40.238594   -915.28047    1441.2005   -3367.0869    2.1909759  0.075424937   0.10368532 
  192200   -955.06901     39.02836   -916.04065    1397.8543   -7412.1556    2.1787643   0.24500954  0.089017731 
  192300   -951.86273    40.091199   -911.77153    1435.9214     -2250.66    2.1870666   0.10648326   0.10763671 
  192400    -952.9812    44.805605   -908.17559    1604.7743    6560.9689    2.2082915   0.13127949   0.10137241 
  192500   -953.38023    38.031148   -915.34909    1362.1378    10280.592    2.2197887   0.21354746  0.087498392 
  192600   -955.97083    40.365544   -915.60528    1445.7474   -6836.9737    2.1847361   0.31871049  0.099062023 
  192700   -952.66206    39.304337   -913.35773    1407.7388   -13112.165     2.161456   0.35943632    0.1030431 
  192800    -946.9295    41.478419   -905.45108    1485.6065   -1157.3796    2.1776705     0.310829   0.11295547 
  192900   -954.35743    42.616668   -911.74076    1526.3745    10976.655    2.2228784   0.35699261  0.098043078 
  193000   -955.36664    40.906243   -914.46039    1465.1133    2469.7778    2.2040302  0.078262476   0.10030092 
  193100   -954.31733    38.351486   -915.96584    1373.6111   -5230.5691    2.1835504   0.36062293  0.099810875 
  193200    -956.0655    41.255358   -914.81014    1477.6173   -6087.0616    2.1826168   0.45035284   0.10112035 
  193300   -948.61989    41.513907   -907.10598    1486.8776   -337.66908    2.1810043   0.21042209   0.11306603 
  193400   -952.01634    37.680425   -914.33591    1349.5762    5833.1596    2.2070799   0.30474331  0.090979358 
  193500    -955.9623    39.782044   -916.18025    1424.8485    2285.7075    2.2063949    0.2837758  0.091555403 
  193600   -953.56231    40.369097   -913.19321    1445.8746   -1197.4386    2.1922098   0.23680386  0.089684649 
  193700   -953.10259    44.073176   -909.02941    1578.5413   -6988.6423    2.1755901   0.11087701  0.092963663 
  193800   -956.59761    40.140444   -916.45717    1437.6851   -1911.8557    2.1955917   0.20042546  0.085386346 
  193900   -957.25705    41.948935   -915.30812    1502.4587    3016.5007    2.2094166   0.34315197  0.086436209 
  194000   -949.63386     40.10523   -909.52863    1436.4239    5440.0091    2.2015957   0.01881526  0.095682005 
  194100   -952.56707    38.679134   -913.88794    1385.3463   -4428.7822    2.1839631   0.28618049   0.11262535 
  194200   -953.68466    36.892065    -916.7926      1321.34   -11479.119    2.1679732   0.11028568   0.10198494 
  194300   -954.52877    40.290763   -914.23801     1443.069   -1937.0973     2.191764   0.21609723   0.10227109 
  194400   -955.59843    44.165231    -911.4332    1581.8384    14620.288    2.2330041   0.28141272  0.086844347 
  194500   -955.10428    53.187745   -901.91654    1904.9921    3591.8735    2.1989442   0.40275035  0.092442903 
  194600   -948.36525    38.249004   -910.11624    1369.9406   -5280.0895    2.1713451   0.22015928   0.11142945 
  194700   -951.21337    37.225403   -913.98797     1333.279   -8432.6189    2.1679964   0.20958672  0.099236363 
  194800    -953.0038     37.00499   -915.99881    1325.3845    1045.8667    2.1971262   0.24166034  0.099706266 
  194900   -957.30065    39.817022   -917.48363    1426.1013    3360.3652    2.2146392   0.16452445   0.08894946 
  195000   -951.48641    42.972887   -908.51352     1539.133    8.6755567    2.1875246   0.19280736   0.10277145 
  195100   -953.26112    39.480367   -913.78075    1414.0436   -959.46549    2.1921782   0.19055253    0.1069587 
  195200    -954.3332    37.668658   -916.66454    1349.1547   -1004.4577    2.1944289   0.21107562   0.10241898 
  195300   -954.83747    41.025811   -913.81166    1469.3958    -791.8281     2.195306   0.17318911   0.10442024 
  195400   -950.56254     41.34099   -909.22155    1480.6843    471.29304     2.187635   0.44510731  0.096598559 
  195500   -953.60377    37.376992   -916.22677    1338.7083    1172.5919    2.1997495   0.12826285   0.10485313 
  195600   -954.90142    39.059549   -915.84187    1398.9714    675.78438    2.1975189   0.40921513  0.091327407 
  195700   -952.90685    44.481955   -908.42489    1593.1823   -583.15191    2.1851172   0.21754393  0.088266288 
  195800   -952.32764    37.452397   -914.87524    1341.4091    2593.4571      2.19738  0.083959219  0.086268553 
  195900   -952.78063    36.266285   -916.51434    1298.9268   -364.56419    2.1949695   0.19921972  0.093964837 
  196000   -950.71509    37.634924   -913.08017    1347.9465   -245.05113    2.1901629  0.012746833   0.10089338 
  196100    -950.3518    42.225503   -908.12629    1512.3644   -946.01803    2.1855305   0.16981433  0.099544682 
  196200   -955.07048    37.850183    -917.2203    1355.6563    5122.7414    2.2122838   0.14989944  0.089121519 
  196300   -954.08071    38.242016   -915.83869    1369.6903    1266.4489    2.2007975   0.31300533    0.1022479 
  196400   -956.77328    42.787284     -913.986    1532.4854    -7761.226    2.1796489   0.19732076  0.099434249 
  196500   -952.20836    43.989212   -908.21915    1575.5341   -4360.5232    2.1754261   0.28218032   0.10008475 
  196600   -951.82522    42.775511   -909.04971    1532.0637    2194.8022    2.1940621   0.02239619   0.10140537 
  196700   -952.89195    38.954785   -913.93717    1395.2191    4730.3402    2.2040875   0.17356463  0.099353584 
  196800   -954.28615    39.050874   -915.23528    1398.6607   -214.92214    2.1976105   0.13616944   0.10157456 
  196900   -956.60792    39.212202   -917.39572    1404.4389   -6930.5527    2.1852408    0.1349838   0.10366555 
  197000   -957.66617    33.304571    -924.3616    1192.8489   -3415.7351    2.2013471   0.11709569  0.095399618 
  197100   -954.64081    36.358032   -918.28278    1302.2129    3480.8815    2.2078926  0.097041945  0.090141524 
  197200    -953.0551    37.731486   -915.32361     1351.405    11123.598    2.2225113   0.24231948  0.097152113 
  197300   -956.38196    41.508829   -914.87313    1486.6957     1776.549    2.2024608    0.3104729  0.098291298 
  197400   -951.23052    38.269609   -912.96091    1370.6786   -10287.465    2.1675562   0.14916443   0.12405185 
  197500   -946.43012    43.471549   -902.95857    1556.9932   -8443.0549    2.1583319   0.40006894   0.11023944 
  197600   -951.46246    40.306681   -911.15577    1443.6392    10576.895     2.219564   0.19792914   0.10717102 
  197700   -951.66861    38.014665   -913.65395    1361.5475    10567.597    2.2207697   0.28171161  0.089097231 
  197800   -956.95673     40.81003    -916.1467    1461.6673   -4618.9577    2.1926712    0.3438963  0.088104734 
  197900   -952.22735    36.518827   -915.70852    1307.9719   -6173.8811    2.1831249   0.56425064    0.1123193 
  198000   -950.93591     43.43358   -907.50233    1555.6333   -5281.3436    2.1769153  0.066348014   0.10652092 
  198100   -957.61928    43.359657   -914.25962    1552.9857     2694.852    2.2085829  0.066971932  0.089115757 
  198200   -957.01136    40.985618   -916.02575    1467.9562    3803.9664    2.2106699   0.31618912   0.08495608 
  198300   -951.89701    38.713232   -913.18378    1386.5676    1446.9271    2.1944523   0.33589643   0.10456931 
  198400   -949.19022     40.03307   -909.15714    1433.8394   -4723.3089    2.1723123  0.085460255   0.10703601 
  198500   -956.40986     39.75603   -916.65383    1423.9168   -2485.0214    2.1936038    0.2295277   0.10038377 
  198600   -956.31507    41.177352   -915.13772    1474.8234    2500.6132    2.2098856   0.10767524  0.096527715 
  198700   -955.75301    45.812182   -909.94083    1640.8262    3248.5012    2.2072499   0.21256923  0.095586727 
  198800   -955.10269    41.547233   -913.55546    1488.0712   -3916.3079    2.1862654   0.11663023   0.10149135 
  198900   -954.02704    37.016082   -917.01096    1325.7818   -9121.6931    2.1756914   0.14960935  0.097702861 
  199000   -954.38401    39.727545   -914.65647    1422.8966   -1573.0996     2.194345   0.13547343  0.096806522 
  199100   -953.96919    42.206286   -911.76291    1511.6761    7383.0847    2.2140376  0.040085655  0.093813529 
  199200   -947.04836    44.096409   -902.95195    1579.3735    5283.9772    2.1922416   0.19083651   0.10783023 
  199300   -953.30156    41.297527   -912.00403    1479.1277    310.55015    2.1933451   0.34126635   0.10243368 
  199400   -953.63061    39.215619   -914.41499    1404.5613    -4662.499    2.1849088    0.3612482   0.10639448 
  199500   -951.77998    35.553645   -916.22634    1273.4026   -581.73058    2.1952044  0.048070317    0.1039263 
  199600    -955.6091    37.146098     -918.463    1330.4385    3036.3777    2.2083701   0.27624307  0.095202319 
  199700   -960.16764    36.043453   -924.12418    1290.9458   -318.62318    2.2132942   0.12652387   0.09965945 
  199800   -958.64213    34.877539   -923.76459     1249.187     621.9328    2.2090416  0.058232416  0.088013905 
  199900   -957.25402    38.507738   -918.74629    1379.2075    811.69458    2.2034384   0.21100956   0.09400067 
  200000   -955.33794    39.550755   -915.78719    1416.5646   -975.67075    2.1965611  0.075000389  0.095532008 
  200100    -951.9397    38.265404   -913.67429     1370.528    358.09804    2.1906405   0.07401768   0.10019165 
  200200    -955.7973    37.490523   -918.30678    1342.7746   -2709.8896    2.1948038   0.20775041   0.10165841 
  200300   -954.94106    34.985123   -919.95593    1253.0402    1242.7745    2.2023628   0.14281577  0.089648008 
  200400   -953.27924    38.519194   -914.76005    1379.6179    5577.9113      2.20669   0.15610044  0.094193528 
  200500   -954.50965    40.108604   -914.40105    1436.5447    1746.2648    2.2031512   0.20115642  0.095878717 
  200600   -957.34172    35.432462   -921.90926    1269.0623   -2713.4293     2.196121   0.33983833  0.090866206 
  200700   -954.58262    37.939104   -916.64352    1358.8411   -9902.7693    2.1752171  0.021829546   0.10251774 
  200800   -955.88378    41.662765   -914.22101    1492.2092    -1426.264    2.1963407    0.3741512   0.09675466 
  200900   -956.97411    40.040789   -916.93332    1434.1159    10128.478    2.2264283   0.20088677  0.090024614 
  201000   -956.10399    34.305067   -921.79893    1228.6831    8656.4335    2.2250728   0.10298435  0.091028781 
  201100   -950.32174    37.190523   -913.13122    1332.0297    -7629.255    2.1660857   0.11200911   0.10365505 
  201200   -952.08562    36.753802   -915.33182    1316.3879   -11245.344    2.1650641  0.041047596  0.094123722 
  201300   -956.32472    39.113584   -917.21113    1400.9067    1866.6366    2.2055562   0.25818047  0.085773028 
  201400   -955.56419    40.172425   -915.39176    1438.8306    10505.226    2.2247984   0.19835197  0.083397056 
  201500    -953.3718    43.210912   -910.16088    1547.6581   -774.94378    2.1893638  0.091343532   0.08281224 
  201600   -953.83097     38.55367    -915.2773    1380.8526   -8166.1647    2.1805905  0.098219688   0.10758826 
  201700   -954.97636    38.366033   -916.61033    1374.1322   -3248.6997    2.1907484   0.26701863  0.090964004 
  201800   -950.18582    39.910289   -910.27553    1429.4418    5869.3458    2.2010173  0.090772184   0.10490627 
  201900   -952.72522     41.39745   -911.32777    1482.7065    4225.1005    2.2043092   0.07179993  0.087151011 
  202000   -958.52569    42.303655   -916.22203    1515.1635   -4878.1259    2.1907248   0.18909995  0.088026589 
  202100   -953.02176    37.936681   -915.08508    1358.7543   -4546.5238    2.1816208   0.18904124  0.089861782 
  202200   -951.74337    43.794344   -907.94903    1568.5546   -4029.7377    2.1812389   0.08399857   0.09665111 
  202300   -956.92581    40.987414   -915.93839    1468.0205    6182.2575    2.2180724   0.53407501  0.087602924 
  202400   -955.25607    39.215937   -916.04014    1404.5727    2673.7384    2.2056201   0.88231508  0.081927072 
  202500   -952.65466    39.101242   -913.55341    1400.4647   -6968.2931    2.1757299   0.29219028    0.1023494 
  202600   -948.34836    40.550458    -907.7979    1452.3704   -6378.9515    2.1621627  0.091927626   0.10408857 
  202700   -953.85101    37.030164   -916.82085    1326.2862     7207.596    2.2116146   0.19510827  0.089137803 
  202800   -956.10982    40.061884   -916.04793    1434.8714    7659.8612    2.2186906   0.20410699  0.086972296 
  202900   -956.26388    41.239031   -915.02485    1477.0325   -3452.0625    2.1908812   0.11534785  0.096327224 
  203000    -952.5237    39.220191   -913.30351     1404.725   -13082.747    2.1601315   0.12161422   0.10857004 
  203100   -957.99446    35.639739   -922.35472    1276.4862    -5353.465    2.1948058   0.05204671   0.09838375 
  203200   -955.33357    37.328305   -918.00526    1336.9645    14050.186    2.2338915    0.2709326  0.094242782 
Loop time of 145.004 on 1 procs for 200000 steps with 217 atoms

Performance: 357.508 ns/day, 0.067 hours/ns, 1379.276 timesteps/s
100.0% CPU use with 1 MPI tasks x no OpenMP threads

MPI task timing breakdown:
Section |  min time  |  avg time  |  max time  |%varavg| %total
---------------------------------------------------------------
Pair    | 141.73     | 141.73     | 141.73     |   0.0 | 97.74
Neigh   | 0.2034     | 0.2034     | 0.2034     |   0.0 |  0.14
Comm    | 0.84733    | 0.84733    | 0.84733    |   0.0 |  0.58
Output  | 0.068566   | 0.068566   | 0.068566   |   0.0 |  0.05
Modify  | 1.8514     | 1.8514     | 1.8514     |   0.0 |  1.28
Other   |            | 0.3078     |            |       |  0.21

Nlocal:    217 ave 217 max 217 min
Histogram: 1 0 0 0 0 0 0 0 0 0
Nghost:    957 ave 957 max 957 min
Histogram: 1 0 0 0 0 0 0 0 0 0
Neighs:    4178 ave 4178 max 4178 min
Histogram: 1 0 0 0 0 0 0 0 0 0
FullNghs:  8356 ave 8356 max 8356 min
Histogram: 1 0 0 0 0 0 0 0 0 0

Total # of neighbors = 8356
Ave neighs/atom = 38.5069
Neighbor list builds = 343
Dangerous builds = 1
Total wall time: 0:02:27
