LAMMPS (3 Mar 2020)

# ---------- 1. Initialize simulation ----------
units metal
atom_style atomic
dimension 3
boundary p p p
read_data /home/modeler/RemLabs/Project/arrhenius_4/T1700.0/n3_T1700.0_timestep3.000000e-03_eqsteps3200_time600_rseed3323/20201205-134558/lammps.data
  orthogonal box = (0 0 0) to (17.469 17.469 17.469)
  1 by 1 by 1 MPI processor grid
  reading atoms ...
  217 atoms
  read_data CPU = 0.00157717 secs

pair_style meam/c
pair_coeff * * library.meam Li Si LiSi.meam Li Si
Reading potential file library.meam with DATE: 2012-06-29
Reading potential file LiSi.meam with DATE: 2020-11-07

group Li type 1
1 atoms in group Li
group Si type 2
216 atoms in group Si

velocity all create 1700.0 3323 dist gaussian

# ---------- 2. Specify equilibration ensemble  ----------
fix 1 all npt temp 1700.0 1700.0 0.15 tchain 2 iso 1.0 1.0 1.0 pchain 2
# fix 1 all nvt temp 1700.0 1700.0 0.15

# ---------- 3. Run equilibration -------------
timestep 0.003
run 3200
Neighbor list info ...
  update every 1 steps, delay 10 steps, check yes
  max neighbors/atom: 2000, page size: 100000
  master list distance cutoff = 6
  ghost atom cutoff = 6
  binsize = 3, bins = 6 6 6
  2 neighbor lists, perpetual/occasional/extra = 2 0 0
  (1) pair meam/c, perpetual
      attributes: full, newton on
      pair build: full/bin/atomonly
      stencil: full/bin/3d
      bin: standard
  (2) pair meam/c, perpetual, half/full from (1)
      attributes: half, newton on
      pair build: halffull/newton
      stencil: none
      bin: none
Per MPI rank memory allocation (min/avg/max) = 8.895 | 8.895 | 8.895 Mbytes
Step Temp E_pair E_mol TotEng Press Volume 
       0         1700   -951.04357            0   -903.57924   -114721.17    5330.9442 
    3200    1647.7804   -940.38749            0   -894.38114   -9555.4314    4711.8396 
Loop time of 2.30233 on 1 procs for 3200 steps with 217 atoms

Performance: 360.262 ns/day, 0.067 hours/ns, 1389.899 timesteps/s
100.0% CPU use with 1 MPI tasks x no OpenMP threads

MPI task timing breakdown:
Section |  min time  |  avg time  |  max time  |%varavg| %total
---------------------------------------------------------------
Pair    | 2.1982     | 2.1982     | 2.1982     |   0.0 | 95.48
Neigh   | 0.053867   | 0.053867   | 0.053867   |   0.0 |  2.34
Comm    | 0.015275   | 0.015275   | 0.015275   |   0.0 |  0.66
Output  | 2.5609e-05 | 2.5609e-05 | 2.5609e-05 |   0.0 |  0.00
Modify  | 0.029855   | 0.029855   | 0.029855   |   0.0 |  1.30
Other   |            | 0.005062   |            |       |  0.22

Nlocal:    217 ave 217 max 217 min
Histogram: 1 0 0 0 0 0 0 0 0 0
Nghost:    957 ave 957 max 957 min
Histogram: 1 0 0 0 0 0 0 0 0 0
Neighs:    4155 ave 4155 max 4155 min
Histogram: 1 0 0 0 0 0 0 0 0 0
FullNghs:  8310 ave 8310 max 8310 min
Histogram: 1 0 0 0 0 0 0 0 0 0

Total # of neighbors = 8310
Ave neighs/atom = 38.2949
Neighbor list builds = 91
Dangerous builds = 0

# ---------- 4. Describe computed properties----------
compute msdli Li msd
compute msdsi Si msd
thermo_style custom step pe ke etotal temp press density c_msdli[4] c_msdsi[4]
thermo 100

# ---------- 3. Run production -------------
timestep 0.003
run 200000
Per MPI rank memory allocation (min/avg/max) = 9.665 | 9.665 | 9.665 Mbytes
Step PotEng KinEng TotEng Temp Press Density c_msdli[4] c_msdsi[4] 
    3200   -940.38749    46.006344   -894.38114    1647.7804   -9555.4314    2.1404184            0 4.0023677e-32 
    3300   -943.02766    46.591478   -896.43618    1668.7378    7288.2343    2.1869468    1.2118512   0.11250561 
    3400   -949.37951    46.863663   -902.51584    1678.4865    7952.5284    2.2001904   0.82681499   0.11271327 
    3500   -942.60634    50.433117   -892.17322    1806.3314   -9632.5271    2.1371184   0.35719766   0.17111237 
    3600   -942.88028    47.895274     -894.985     1715.435   -1936.8074     2.162218    1.4115004   0.17269372 
    3700   -942.73771    45.311551   -897.42616    1622.8954    13832.027    2.2039967    0.6529876   0.15429521 
    3800    -939.2193    51.115094   -888.10421    1830.7573   -1383.6825    2.1560018    1.9650905   0.12663775 
    3900   -940.11757    47.768613   -892.34896    1710.8985    -9503.781    2.1387903   0.72895138   0.14321603 
    4000   -942.36747    45.570489   -896.79698    1632.1697    4522.6514    2.1807304  0.032183927   0.12546727 
    4100   -946.01898    50.738684    -895.2803    1817.2756    6899.3489    2.1922746    5.1235096   0.13548046 
    4200   -939.76897    51.759542   -888.00943    1853.8391   -8415.4141    2.1360716    9.3669004   0.13531476 
    4300   -946.49861    47.930126   -898.56848    1716.6833   -5538.2236     2.162962    10.141741   0.16286913 
    4400   -944.70606    47.781841   -896.92421    1711.3723     7702.802    2.1916765     11.50104   0.19496716 
    4500   -940.22933    46.037009   -894.19232    1648.8787    1799.9505    2.1717958    10.099817   0.18078901 
    4600   -935.64231    48.029666   -887.61264    1720.2484   -7800.9697    2.1316968    9.7214696    0.1843853 
    4700   -946.34124    47.110334   -899.23091    1687.3213    5876.3336    2.1923539    8.7280558   0.15592933 
    4800   -945.29408    48.370129   -896.92395    1732.4426    5457.9601    2.1828026    10.096753   0.13838858 
    4900   -943.12976    47.334457    -895.7953    1695.3486   -9804.6007    2.1444665    9.4977717   0.15267155 
    5000    -936.0691    47.862895   -888.20621    1714.2753   -1130.0935    2.1526563    11.014132   0.16295953 
    5100   -940.62447    51.199186   -889.42528    1833.7692     7488.571    2.1777741     9.708846   0.14274032 
    5200   -946.36928    50.818901   -895.55038    1820.1487   -5670.0366    2.1564797    9.3128729   0.17848242 
    5300   -946.67425    49.386871   -897.28737    1768.8586   -6312.4099    2.1606292    9.7956239   0.17311329 
    5400    -946.4709    49.894093   -896.57681    1787.0255    5594.6786     2.185135    11.907311    0.2018957 
    5500   -936.41959    50.628482   -885.79111    1813.3286    415.86254    2.1502402    8.2325393   0.18933932 
    5600   -942.00883    47.160453   -894.84838    1689.1164   -717.24084    2.1620322    9.7896807   0.15613054 
    5700   -946.58288    49.251352   -897.33152    1764.0048    -623.9892    2.1734607    8.0045752    0.1439962 
    5800   -938.69011    44.165181   -894.52493    1581.8366    6253.5124    2.1720924    12.338439   0.15913937 
    5900   -938.77607    50.532389   -888.24368    1809.8869   -3880.6214    2.1427482    12.672856   0.15144115 
    6000   -943.80307    46.149116   -897.65395     1652.894    504.01668    2.1678539     10.99839   0.16756994 
    6100    -944.8391    48.705142   -896.13396    1744.4415    7206.1049    2.1846931    6.9245965   0.14912302 
    6200   -943.68135    52.530136   -891.15121     1881.439   -2205.5292    2.1578488     9.942342   0.16056627 
    6300   -941.40239     51.73789    -889.6645    1853.0636   -11927.409    2.1296967    9.8982248   0.17448136 
    6400   -946.45391    48.893658   -897.56025    1751.1935    2804.5245     2.179612    9.3369068   0.14482658 
    6500   -941.13981    45.690912    -895.4489    1636.4828    14025.444    2.1964785    9.0704549   0.15260252 
    6600   -940.45793    46.227882   -894.23005    1655.7151   -9274.1048      2.13799    8.4279666   0.14600105 
    6700   -950.12828     45.47638    -904.6519     1628.799   -8476.2744      2.16036    9.1449435   0.12473184 
    6800   -947.25106    46.667325   -900.58374    1671.4544    5335.1849    2.1893558    9.8550705   0.14051055 
    6900   -944.81217    48.937159   -895.87501    1752.7516    2489.8918    2.1741302    8.8027592   0.14292462 
    7000   -942.42215    46.405795   -896.01636    1662.0873   -6136.2479    2.1484356    7.7091409   0.14648709 
    7100   -948.81726     43.21742   -905.59984    1547.8913    2395.8666      2.18552    8.4384601   0.15173245 
    7200   -944.30683    46.583367   -897.72346    1668.4473    4272.4059    2.1784025     8.508485    0.1627041 
    7300   -945.30648    49.786335   -895.52015     1783.166   -3093.9699    2.1641422    9.8302817   0.15006403 
    7400   -944.00085    44.893762   -899.10709    1607.9317   -2536.5553    2.1654875    11.384605   0.15964313 
    7500   -949.46133    44.997527    -904.4638    1611.6482    2796.5618    2.1893764    9.1825091   0.13761556 
    7600   -940.27999    45.454267   -894.82572     1628.007    124.86859     2.161576    8.3897395   0.14906183 
    7700    -943.9385    47.359983   -896.57851    1696.2628   -1818.5881    2.1616316    9.9439874   0.14421916 
    7800   -948.12568    46.456358   -901.66932    1663.8983    645.09063    2.1800405     8.830627   0.14531873 
    7900   -948.10202    44.879605   -903.22241    1607.4247    2107.6409    2.1862775    10.011229   0.13782579 
    8000   -944.31588    49.396169   -894.91971    1769.1916   -5499.9259    2.1568421    11.016256   0.17330121 
    8100    -943.6191    46.901237   -896.71786    1679.8322   -668.44686    2.1665246    9.8342562   0.17342449 
    8200   -941.58304    43.500132    -898.0829     1558.017    7136.6295    2.1873461    10.069723    0.1661374 
    8300   -942.34857    53.477571     -888.871    1915.3726    2005.8233    2.1651574    8.9342973   0.16886278 
    8400   -943.36583    51.879367   -891.48647    1858.1308   -3842.7151     2.154356    9.4314022   0.14783332 
    8500   -942.61018    45.808053   -896.80213    1640.6783   -2040.0352    2.1629329    9.5300707   0.16390256 
    8600   -946.33777    48.840449   -897.49732    1749.2877    1839.7558    2.1750038    9.5204577   0.14185311 
    8700   -940.50169    52.550589    -887.9511    1882.1715   -338.44915    2.1574974    9.0235123   0.17202957 
    8800   -941.89397    48.639946   -893.25402    1742.1065   -1059.0793    2.1590796    7.1905584   0.16001486 
    8900   -946.36814    48.560874   -897.80727    1739.2744   -2622.4236    2.1632978    9.6365589   0.16040129 
    9000   -942.81408    47.481617   -895.33246    1700.6193    3149.0374    2.1727153    10.529936   0.17299188 
    9100   -937.07048    50.406874   -886.66361    1805.3914     218.2245    2.1520115    9.2677622   0.17152859 
    9200   -943.90039    46.685501   -897.21489    1672.1054    1538.9351    2.1739825    10.945975   0.15930147 
    9300   -945.03421     47.63998   -897.39423    1706.2913   -821.58798    2.1677505    8.4399744   0.15239284 
    9400   -944.54508    51.098603   -893.44648    1830.1667   -2421.6288    2.1652764    8.6128714   0.17621895 
    9500   -938.19337    51.812364   -886.38101     1855.731   -1042.9497    2.1564562    10.072516    0.1806024 
    9600   -946.16456    48.678776   -897.48579    1743.4972    3423.4688    2.1837333    10.059713   0.16652849 
    9700   -941.42394    44.486048   -896.93789    1593.3289    -2628.668    2.1602777    8.6171352   0.17729887 
    9800   -943.35244    47.708111   -895.64433    1708.7315   -6196.2278    2.1554845    9.3520295   0.17999385 
    9900   -950.88633    46.257426   -904.62891    1656.7733    6926.5597    2.2019021    10.528422   0.17433455 
   10000   -949.60411     48.33961    -901.2645    1731.3495   -2036.0751    2.1757052    21.671971   0.17694391 
   10100   -944.13275    47.729976   -896.40277    1709.5147   -8733.8603    2.1539563      25.8221   0.18492946 
   10200   -942.58984    48.193034    -894.3968    1726.0997    37.755541    2.1700434     23.61548   0.19531419 
   10300   -948.15606    45.902505   -902.25355    1644.0613    4458.5493    2.1897091    23.782698   0.18367482 
   10400   -943.52138    45.328073   -898.19331    1623.4872   -3384.0878    2.1607416    22.690124   0.18124626 
   10500   -941.42346    47.261621   -894.16184    1692.7399   -4236.1542    2.1540905    28.767845   0.18567588 
   10600   -945.99341    49.818769   -896.17464    1784.3276    2291.3234    2.1765529    14.067532   0.18815454 
   10700   -942.37776    39.021225   -903.35654    1397.5988    5730.6589    2.1848104    21.802756   0.18528271 
   10800   -945.06157    50.998176   -894.06339    1826.5697   -7724.8566    2.1494122    26.367372   0.17490356 
   10900   -942.53989    48.895953   -893.64394    1751.2757    2487.7134    2.1712766    20.221692   0.18563377 
   11000   -942.05646    44.900863    -897.1556    1608.1861    9031.4763    2.1792915    16.133064   0.19806765 
   11100   -943.81436    42.798165    -901.0162    1532.8751   -4828.1166    2.1598144    23.004806   0.20385738 
   11200    -947.9519    40.180658   -907.77125    1439.1254   -3105.6176    2.1771717    22.203401   0.19014452 
   11300   -946.51572    47.796847   -898.71887    1711.9097    6552.5154    2.1926681     22.73369   0.17479464 
   11400   -941.80841     45.21401    -896.5944    1619.4019    9181.8476    2.1862159    20.889494   0.18912802 
   11500   -943.81009    48.122384   -895.68771    1723.5693   -12848.614    2.1386996    20.634023   0.19178032 
   11600   -943.07047    50.426444   -892.64402    1806.0923   -5163.1649    2.1577125     20.52364   0.20430679 
   11700   -947.56775    44.903917   -902.66383    1608.2955     10809.95    2.2105999     21.05542   0.19991605 
   11800   -945.27491      45.7353   -899.53961    1638.0726   -5835.3865    2.1569408    19.879458   0.19059507 
   11900   -942.32602    46.466199   -895.85982    1664.2507   -8254.8473    2.1474482    22.668425   0.20229988 
   12000    -941.1743    49.066544   -892.10776    1757.3857    6628.0533    2.1839886    19.575747   0.20390296 
   12100   -949.54537    48.051535   -901.49384    1721.0317    156.24114    2.1856177    20.395199   0.18327141 
   12200   -945.47195    47.165592   -898.30636    1689.3004   -8973.2377    2.1544329    12.578378   0.19613221 
   12300    -943.0099    50.020415   -892.98948    1791.5499    908.82947    2.1692578    21.921949   0.20304389 
   12400   -944.90576    47.549083   -897.35668    1703.0357    4198.2291    2.1840385    20.500043   0.19112412 
   12500   -946.48411    43.794863   -902.68925    1568.5732   -884.99774    2.1723473    21.472497   0.18554767 
   12600   -943.88193    51.209752   -892.67217    1834.1476    -7457.354     2.148011    29.157902   0.17792609 
   12700   -945.82677    50.646803   -895.17997    1813.9848    3431.2023    2.1779791     21.60479   0.16714935 
   12800   -947.27112    46.527046   -900.74408      1666.43    3843.8856    2.1874225    22.870691   0.16592922 
   12900   -936.81069    46.661851   -890.14884    1671.2583   -3251.4458      2.14713    19.312986   0.18298905 
   13000   -938.55863    44.927532    -893.6311    1609.1413    1553.7849    2.1698719    21.016336   0.18870703 
   13100   -946.69225    48.718381   -897.97387    1744.9157   -252.70023    2.1792574    25.113083   0.17284005 
   13200   -943.29079    51.589714   -891.70108    1847.7565   -2595.2176     2.161391    21.488115   0.19568721 
   13300   -937.27274    46.705743     -890.567    1672.8303   -1860.0752    2.1530736    13.294918   0.21096766 
   13400   -942.09862    44.528425   -897.57019    1594.8467     4478.402    2.1791363    10.798021   0.20644828 
   13500   -942.62734    47.982063   -894.64528    1718.5435    5365.7906    2.1814171    7.9417993   0.15955271 
   13600   -940.78322    51.851788   -888.93143     1857.143   -9059.3932    2.1371892    7.3097391   0.17818124 
   13700   -944.07054    43.951636    -900.1189    1574.1882    473.84249    2.1774475    7.6230609   0.16092049 
   13800   -944.51402    47.084543   -897.42947    1686.3976    9568.3214    2.1966391    7.8689478    0.1694583 
   13900   -943.64353    48.903316   -894.74021    1751.5394   -3032.4434    2.1613819    7.8887826   0.16250142 
   14000   -938.66037    48.334143   -890.32622    1731.1537   -7945.2115    2.1415499    9.2794388   0.17113973 
   14100   -950.61506    49.093369   -901.52169    1758.3464    8817.7947    2.2081679    7.3736849   0.16865079 
   14200   -949.90922    52.145429   -897.76379    1867.6602   -1503.9905    2.1790131    8.3065443   0.18505423 
   14300   -942.22133    46.587491   -895.63384     1668.595   -10317.019    2.1418327     6.303912   0.19095261 
   14400   -945.44921    53.659781   -891.78943    1921.8988   -783.19122    2.1709276    10.548481   0.16535398 
   14500   -937.33385    56.711034   -880.62281    2031.1836    6448.1682    2.1723222    8.7987787   0.15973095 
   14600   -942.59577    51.740085   -890.85569    1853.1422    -4692.874    2.1551746    8.1459636   0.14796955 
   14700   -944.49539    49.186645   -895.30875    1761.6872   -7289.4795     2.148474    8.1322139   0.15043792 
   14800   -944.10628    46.642872   -897.46341    1670.5785    4711.6865    2.1831348    7.4871068    0.1658058 
   14900   -947.49047    46.155165    -901.3353    1653.1106    4328.6012    2.1892488    8.6984211   0.16637135 
   15000   -941.27159    50.024145   -891.24744    1791.6835   -3934.9391    2.1510192    6.9052836   0.16730044 
   15100   -944.14125    50.700241     -893.441    1815.8988    286.39277    2.1682173    8.4966461   0.16892727 
   15200   -943.46881    46.351164   -897.11764    1660.1306    1598.8481    2.1706923    8.8939928    0.1649686 
   15300   -942.84979    43.821513   -899.02828    1569.5277   -1507.2772    2.1668505    6.8664409   0.17194555 
   15400    -939.9953    51.790231   -888.20507    1854.9383    351.07604    2.1552095     8.880361   0.15010701 
   15500   -945.38396     50.93474   -894.44922    1824.2977    3359.4569    2.1798081    7.7961708   0.15649928 
   15600   -948.48941    50.010613    -898.4788    1791.1988   -4711.9225    2.1684231    8.0508242   0.15108666 
   15700   -942.20958    48.994377   -893.21521    1754.8009   -2655.4512    2.1623439     5.679032   0.15918931 
   15800   -942.72253    53.103897   -889.61863     1901.989   -2303.0866      2.16088     8.791385   0.16360063 
   15900   -945.21083    46.949977   -898.26085    1681.5779    4143.7281    2.1788937    8.9702781    0.1576391 
   16000   -943.04697    46.818331   -896.22864    1676.8628    646.70575    2.1726963    9.3122132   0.18157107 
   16100   -941.07444    50.704599   -890.36984    1816.0549   -1074.6287    2.1558613    10.546004   0.15953066 
   16200    -944.1221    46.123097     -897.999    1651.9621   -956.23898    2.1674791    8.4967938    0.1575803 
   16300   -943.21481    44.211233   -899.00358     1583.486    1736.8326    2.1740739    8.0112742   0.16011977 
   16400   -942.71566    47.263109   -895.45256    1692.7932    5217.6404    2.1838349    8.4854428   0.16324053 
   16500   -943.47263    48.210128   -895.26251     1726.712   -1862.4151    2.1653801    8.9895933   0.17449203 
   16600   -947.08164    41.834341    -905.2473    1498.3544   -4788.7662    2.1712217    7.1723068   0.15850294 
   16700      -948.54    49.273286   -899.26671    1764.7904    2142.1363    2.1880274     8.531055   0.15927541 
   16800   -944.13244    49.968781   -894.16365    1789.7005    7505.9497    2.1902628    6.9979498   0.17888534 
   16900   -941.07876    42.438486   -898.64028    1519.9926   -7496.8795    2.1504702    8.5825148   0.16752497 
   17000   -947.83461    43.629898   -904.20472    1562.6647     -3027.38    2.1746277    7.9815763   0.15847704 
   17100   -946.00774    51.758871   -894.24887     1853.815    7944.0189     2.194872    9.8624196   0.17397582 
   17200   -943.62112     48.02984   -895.59128    1720.2547    1282.5664    2.1747498    7.8544554   0.16085622 
   17300   -944.56566    44.436943   -900.12872    1591.5701   -7243.4152    2.1556994    8.8717624   0.15494859 
   17400   -945.07158    45.037792   -900.03379    1613.0904    5056.5714    2.1920469    6.8162094   0.17480749 
   17500   -945.75769    53.837967   -891.91972    1928.2807    534.24816    2.1759691    8.1059809   0.16944699 
   17600   -943.08007    46.283583   -896.79649    1657.7101   -7222.3461    2.1543036    8.6390167   0.15187487 
   17700   -946.69046    47.654973   -899.03549    1706.8283   -2809.7668    2.1734049    8.3447158   0.15089491 
   17800   -941.09626    48.272744   -892.82352    1728.9546    10550.429    2.1964013    6.5879817   0.15058583 
   17900   -940.59561    49.252945   -891.34267    1764.0619   -3088.2023    2.1565711    8.9607316   0.15825172 
   18000   -940.81755    42.604093   -898.21346    1525.9241   -7871.3605    2.1507016    7.9185412   0.16280109 
   18100   -942.18009    46.279659   -895.90043    1657.5696    7573.8798    2.1893794    7.6721033   0.17064042 
   18200   -935.18399    48.336377   -886.84761    1731.2337    7530.1756    2.1725211    9.5806025   0.16537789 
   18300   -946.06167    50.418227   -895.64344     1805.798    -7356.781    2.1568386    9.4232668   0.14800561 
   18400   -945.00466    47.162965   -897.84169    1689.2064   -3636.6074    2.1653484    7.4358683   0.15893793 
   18500   -948.30933    54.514997   -893.79433    1952.5295    1857.3523    2.1822597    8.6354457   0.14619614 
   18600   -937.98316    50.357062    -887.6261    1803.6073   -306.07423    2.1587898    7.2710197   0.17275833 
   18700   -947.35168    49.056963   -898.29472    1757.0425    571.31306    2.1772489    8.0967356    0.1505973 
   18800   -945.21551    48.009846   -897.20567    1719.5386   -2964.3725    2.1697033    9.7729713   0.15175507 
   18900   -941.72411    48.054985   -893.66913    1721.1553    -375.7519    2.1680194    8.1577698   0.17120641 
   19000   -937.00487    49.860396   -887.14447    1785.8186     3864.649    2.1619441    7.8434624   0.19384795 
   19100   -939.32444    49.371582   -889.95286     1768.311   -4969.1709    2.1529709    8.9297523   0.19825151 
   19200   -942.67913    47.054575   -895.62456    1685.3242   -754.96692    2.1692775    7.4558196    0.1751313 
   19300   -945.57273    49.623864   -895.94886    1777.3468    5782.1359    2.1893985    8.7469423   0.15823744 
   19400   -946.71044    48.571274   -898.13917    1739.6469   -5203.9279    2.1665432     8.250795   0.14159307 
   19500   -936.10489    47.172253   -888.93263     1689.539   -4167.6783    2.1482627    7.4826785   0.16270719 
   19600   -938.76515    47.606778   -891.15837    1705.1021    10056.897    2.1845587    7.6293082   0.16786929 
   19700    -942.5759    46.064932   -896.51097    1649.8788   -1535.4402    2.1655135    9.1313543   0.18524857 
   19800   -947.12067    49.065969    -898.0547    1757.3651    -12823.43    2.1445339    7.3038872   0.16752978 
   19900    -941.1843    49.587645   -891.59665    1776.0496    10932.442    2.1885279     8.758687   0.17090456 
   20000   -943.80625    54.524418   -889.28184    1952.8669    6647.2374    2.1813545    7.7500156   0.16783316 
   20100   -944.83375    47.529116   -897.30464    1702.3206   -14868.178    2.1363919    9.9602731   0.15708609 
   20200   -943.76856    46.681395   -897.08716    1671.9583   -525.75834    2.1679046    7.7104312   0.14667684 
   20300   -943.67432    51.193595   -892.48073    1833.5689    11417.703    2.1980388    7.3152172   0.15831801 
   20400   -941.49978    52.423462   -889.07632    1877.6183   -6007.8005    2.1472014    8.0568694   0.14387186 
   20500   -946.88599    48.150758   -898.73523    1724.5855   -6155.2849    2.1602986    9.0919535   0.13338114 
   20600    -945.9369    49.706189   -896.23071    1780.2954    5631.3696    2.1860504    9.0366439   0.16588691 
   20700   -943.87066    51.785726   -892.08493    1854.7769    1834.3479    2.1697775    7.2653057   0.17042978 
   20800   -939.92453    50.859617   -889.06491     1821.607   -9202.5627    2.1372548    6.5302801   0.17126154 
   20900   -947.07064    48.522094   -898.54855    1737.8854    2557.6468    2.1853479    6.4694488   0.14744259 
   21000   -943.76248    48.072987   -895.68949    1721.8001    6621.9033    2.1875924    8.1951909   0.14563404 
   21100   -941.87861    46.862177   -895.01643    1678.4332   -5278.5719    2.1544945    9.0856943   0.13900895 
   21200   -948.75524    43.443788   -905.31145    1555.9989   -945.82074    2.1801443     8.384024   0.14204105 
   21300   -944.74631    45.649856   -899.09646    1635.0123     3943.243    2.1821623    6.8845077   0.14600506 
   21400   -942.49952     47.27085   -895.22867    1693.0704    2138.9248     2.170217    9.7293095   0.15937609 
   21500    -946.3557    49.093539   -897.26217    1758.3525   -4356.3833    2.1617973    6.8914361   0.14991645 
   21600   -946.47015    42.022585   -904.44757    1505.0966    4541.7304    2.1922849    9.2855087   0.15082062 
   21700   -942.94657    47.509903   -895.43666    1701.6324   -964.73454    2.1713022    8.3888355   0.16556415 
   21800   -942.83855    46.647104   -896.19144    1670.7301   -4439.3575    2.1619678    10.081964   0.15827266 
   21900    -945.6939    43.091193   -902.60271    1543.3703   -373.55949    2.1807235    7.6718053   0.16814156 
   22000    -947.6746    47.303752   -900.37085    1694.2488    3540.2778    2.1899766    7.9565365   0.13968805 
   22100   -942.52901    48.020112    -894.5089    1719.9063   -2202.0291    2.1577152    8.1910711   0.15471076 
   22200   -941.78451    43.808564   -897.97594    1569.0639   -10349.111    2.1420994    8.5831153    0.1513054 
   22300    -944.9596    46.888126   -898.07147    1679.3626    9087.3523    2.1961522    7.6766284   0.16054631 
   22400   -939.86796    52.553692   -887.31427    1882.2827    2428.3848    2.1674988    6.8788941   0.16345768 
   22500   -941.78151    47.034418   -894.74709    1684.6023   -8069.5951      2.14445    6.3766043   0.16156737 
   22600    -945.8212    47.723595    -898.0976    1709.2861   -1785.8101    2.1708488    7.2368022    0.1682231 
   22700   -944.50304    48.134838   -896.36821    1724.0153    10825.928    2.1971138    6.7957746   0.18169701 
   22800   -935.27879    46.950639   -888.32815    1681.6016   -4973.0643    2.1403636    7.7684942   0.17503786 
   22900   -946.06896    48.265798   -897.80316    1728.7059   -7433.4183    2.1559166     6.265883   0.16678298 
   23000   -943.56788    46.826855   -896.74103    1677.1681    8609.5811    2.1935155    8.4739526   0.16097918 
   23100   -940.40776    47.654737   -892.75303    1706.8199    3867.4726    2.1761027    9.4887629    0.1681495 
   23200   -939.94726    49.980227   -889.96703    1790.1105   -11659.299    2.1326248    9.3506204   0.16399972 
   23300    -944.9022    46.196315   -898.70589    1654.5845    5274.0432    2.1804172    8.0246162     0.140999 
   23400   -943.37729    48.169207   -895.20808    1725.2463    8085.8441    2.1901601    8.7413677   0.17558068 
   23500   -939.39894    45.818227   -893.58072    1641.0427   -4936.2732    2.1494542    9.2173735   0.18133194 
   23600   -949.34586    45.357695   -903.98817    1624.5481   -3790.2204    2.1741229    7.7251164   0.17195694 
   23700   -948.58141    49.911996   -898.66942    1787.6667    2221.3653    2.1799719    7.8061106   0.15539209 
   23800   -938.64119    44.252227   -894.38896    1584.9543    4244.6197    2.1720255    10.723708   0.16081165 
   23900    -943.6891    45.473285   -898.21582    1628.6882   -2639.4374     2.158967    8.0264215   0.15162916 
   24000   -951.90426    48.986188   -902.91807    1754.5076    323.07725     2.184047    8.7135802   0.13665141 
   24100   -943.01822     48.45997   -894.55825    1735.6604    3300.5453    2.1749238     7.989238   0.15402898 
   24200   -946.32902    49.567546   -896.76148    1775.3297   -4497.0799     2.160912    7.8277077   0.16408271 
   24300   -950.58748    46.202704   -904.38478    1654.8133    -3670.145    2.1781154    7.3976837   0.16223196 
   24400   -941.32271    44.816964   -896.50575    1605.1811    4318.2535    2.1775105    8.7363084   0.17731904 
   24500    -943.1625    48.184398    -894.9781    1725.7904    872.08673     2.170903     8.725492   0.17302972 
   24600   -944.24443    44.683825   -899.56061    1600.4125   -4056.4282    2.1644403     8.991323    0.1661078 
   24700   -946.34429    43.637436   -902.70686    1562.9347    1968.7975    2.1783727    7.3054997   0.15084168 
   24800   -940.05078    47.792096   -892.25868    1711.7396   -845.00991    2.1579033    7.7244853   0.14795355 
   24900   -942.66535    47.269075   -895.39628    1693.0068   -494.45233     2.164699    9.5083724   0.14704735 
   25000   -948.94344     48.96464    -899.9788    1753.7358   -1897.3268    2.1722387    8.1465676   0.14795181 
   25100   -944.69689    47.970533   -896.72636    1718.1305       1719.5    2.1714095    7.7482501   0.15787831 
   25200   -942.43521    50.622278   -891.81293    1813.1064    -2885.466    2.1540743    8.0573718   0.17072898 
   25300   -942.47085     44.71492   -897.75593    1601.5263    1142.4044    2.1634527    7.9033123   0.15837911 
   25400   -941.57356     43.75136    -897.8222    1567.0151    4506.5177    2.1803361    8.5660905   0.14963511 
   25500    -940.7481    52.344843   -888.40325    1874.8025   -4158.4667    2.1517933    10.540609   0.15641549 
   25600   -941.70254    44.387363   -897.31518    1589.7944    1723.1805    2.1714528    7.9953631   0.15785597 
   25700    -943.0504    45.181297   -897.86911    1618.2302     2533.005     2.174636    9.0678743   0.16335508 
   25800    -943.7481     53.05299   -890.69511    1900.1657   -1573.8341    2.1585113     8.783306   0.15866287 
   25900   -944.03543    49.722069   -894.31336    1780.8642    -2919.389    2.1575568    8.1147544   0.16046001 
   26000    -944.6796    45.554108   -899.12549     1631.583    21.151092    2.1752598    7.1596918    0.1594781 
   26100   -940.49151    46.762568   -893.72894    1674.8656    12371.408    2.1878908    7.1539987   0.16189561 
   26200    -942.4287    47.600239   -894.82847    1704.8679   -3140.0482    2.1525559    8.8713569   0.14767223 
   26300   -948.58503    45.500759   -903.08427    1629.6722   -4313.2044    2.1667287    8.0015988    0.1300331 
   26400    -945.2834    49.023095   -896.26031    1755.8295    6260.7253    2.1878262    8.7242876   0.14832144 
   26500    -943.1627    48.278916   -894.88379    1729.1757    2158.5783    2.1706475    8.2199373   0.14871776 
   26600   -950.08643    47.156007   -902.93042    1688.9572   -10625.822    2.1552677    8.3664615   0.15562332 
   26700   -947.31209    47.529585   -899.78251    1702.3374    396.92925    2.1773453    7.0628236   0.14887425 
   26800   -939.54618    46.311713   -893.23447    1658.7176    12016.839    2.1894051    7.8099446   0.18178544 
   26900   -941.55203    44.282006   -897.27003    1586.0209   -2795.1978    2.1572836    10.019593   0.15588134 
   27000   -946.53056    42.184332   -904.34623    1510.8898   -9076.9747    2.1553035    10.955714   0.17873028 
   27100   -941.57842    45.747272   -895.83115    1638.5014    6254.3784    2.1843335    21.285778   0.20432775 
   27200   -943.15147    49.485645   -893.66583    1772.3963    8330.2429    2.1908551    26.186236   0.18394654 
   27300   -941.05928    42.497323   -898.56196       1522.1   -5814.3636    2.1552996     16.46089   0.20798506 
   27400   -943.13178    50.715175    -892.4166    1816.4336    -2405.313     2.160401    20.605945   0.17358308 
   27500   -938.43539    48.427536   -890.00785    1734.4987    5021.6833    2.1709809    21.473816   0.19571221 
   27600   -943.07764    46.704693   -896.37295    1672.7927   -1248.0858    2.1661209    18.722955   0.20225125 
   27700   -944.78901    47.998143   -896.79086    1719.1194   -2433.1182    2.1615958     17.25028   0.17219033 
   27800     -937.997    51.305678   -886.69132    1837.5833    4488.7266    2.1626893    16.753809   0.18899538 
   27900   -943.74339    50.024028   -893.71936    1791.6793     4028.625    2.1790547     24.70448   0.18208439 
   28000   -941.90217    44.813137   -897.08904     1605.044   -3854.6426    2.1517186    16.549301   0.19547577 
   28100   -940.79151    47.524432   -893.26708    1702.1528   -518.97673    2.1619135    18.392255   0.18889072 
   28200   -934.81535    49.929916   -884.88543    1788.3085    8235.7397    2.1660993    22.192795   0.18325994 
   28300   -943.55186      47.6388   -895.91306     1706.249    1883.1114    2.1724649     17.35461   0.17158667 
   28400   -944.46463    47.901992   -896.56264    1715.6756   -11236.886    2.1456662    16.869641   0.16932013 
   28500   -941.71212    48.747847   -892.96427    1745.9711   -1540.2207    2.1614506    18.907529   0.18741769 
   28600   -938.97045    51.327669   -887.64278     1838.371    10007.776    2.1755708    10.217536   0.17789908 
   28700   -937.11514    52.002327   -885.11282    1862.5348   -10789.988    2.1226161    11.590624   0.16546805 
   28800   -941.46148    47.423582    -894.0379    1698.5407   -4285.2611    2.1540238    10.524193   0.16021188 
   28900   -940.31708     45.63423   -894.68285    1634.4526    9425.9577    2.1818019    8.1117257   0.14986836 
   29000   -946.55697    45.908706   -900.64826    1644.2834   -1774.3355    2.1699778    6.1566928   0.14950473 
   29100   -941.75338    45.765496   -895.98789    1639.1541   -524.94259    2.1681515    8.1442033   0.14870424 
   29200   -941.90612     49.62664   -892.27948    1777.4463    1310.6116    2.1666185    4.7613546   0.16242436 
   29300   -942.56604    45.507527   -897.05851    1629.9146   -1109.4452    2.1645068    6.2902038   0.14445465 
   29400   -944.53943    46.839851   -897.69958    1677.6336   -2128.1371    2.1648342   0.39076133   0.14149538 
   29500    -937.4339    50.244639   -887.18926    1799.5808   -3493.0459    2.1453479    5.5056538   0.15382899 
   29600   -939.54355    44.288525   -895.25503    1586.2544    5463.0627      2.17828   0.15538298   0.14859049 
   29700   -945.33213    47.834912   -897.49722    1713.2731    497.76275    2.1735472   0.76136474   0.14446935 
   29800   -937.62609    48.221365   -889.40473    1727.1144   -4867.2395    2.1448741   0.56132542   0.15548683 
   29900   -941.55617    50.173924   -891.38225     1797.048    16.916708    2.1642135   0.46934541   0.14132986 
   30000   -940.58269    44.359422   -896.22327    1588.7936    3956.6649    2.1808412   0.93810448   0.14910175 
   30100   -942.35304    46.666018   -895.68702    1671.4075   -1191.8774    2.1671641   0.75980767   0.15680623 
   30200   -940.38345    53.487766   -886.89568    1915.7378   -4267.3272    2.1522975   0.83242479   0.16059513 
   30300   -945.09666    50.362525   -894.73414     1803.803    4108.5838    2.1849854   0.47323071   0.14196196 
   30400   -943.19988    46.540179    -896.6597    1666.9004   -5137.3761    2.1626449    1.0828131   0.14729869 
   30500    -943.1234    48.331083   -894.79231    1731.0441   -6389.1114    2.1533368   0.96546572   0.12683558 
   30600   -942.10207    47.304638   -894.79743    1694.2806    9468.1859    2.1893213   0.47001907   0.13513976 
   30700   -945.34725    41.635071   -903.71218    1491.2172    10336.678    2.2006357   0.40655566    0.1406733 
   30800   -943.06839    46.151687   -896.91671    1652.9861   -10057.616    2.1415162   0.10511686   0.15030645 
   30900   -941.82735    47.739554    -894.0878    1709.8577   -2458.8202    2.1585494    1.5675607   0.15423888 
   31000    -946.7986    50.370579   -896.42802    1804.0915    10334.311    2.2000037    5.1314339   0.15077499 
   31100   -947.90941    45.891013    -902.0184    1643.6497    2442.8647    2.1838551    4.9190055   0.14339931 
   31200   -938.73619     44.60676   -894.12943    1597.6524   -7008.5051    2.1425925    5.5001832   0.15710637 
   31300   -940.55474    46.874966   -893.67977    1678.8913    2782.6353    2.1692569   0.82852457   0.16918112 
   31400   -946.17147    45.072925   -901.09855    1614.3487    6925.5936     2.198832   0.67431499   0.14029863 
   31500   -941.76635    49.398339   -892.36802    1769.2693   -4838.8274    2.1545443   0.64505027   0.16302948 
   31600   -942.12938    48.518102   -893.61128    1737.7425   -4734.7372    2.1532892   0.67559989   0.16717727 
   31700   -945.21236    46.745618   -898.46674    1674.2585    2874.8938    2.1811936    1.7003803   0.16645882 
   31800   -942.54463    45.859054   -896.68558     1642.505    2887.1558    2.1789391     3.540701   0.17188906 
   31900   -937.79382    47.991705   -889.80211    1718.8888   -4098.6055    2.1440351     4.945122   0.16243694 
   32000   -942.00019    45.412221   -896.58797    1626.5011    1867.7707    2.1661886   0.63279469   0.14712524 
   32100   -942.81219    45.696411   -897.11578    1636.6797    3126.9535    2.1755412   0.63869366   0.15597179 
   32200   -936.21552    48.163408   -888.05211    1725.0386    2289.6299    2.1577364    2.5278865     0.183664 
   32300   -943.14961    46.483896   -896.66572    1664.8846   -327.15355    2.1648672    3.5496344   0.15667841 
   32400    -946.5134    48.217118   -898.29628    1726.9623   -1980.7667    2.1707125    5.5128847   0.15161456 
   32500   -937.47057    47.293902   -890.17666    1693.8961    3259.4046    2.1615172    2.3217229   0.17530948 
   32600   -945.37928    49.173068   -896.20621     1761.201   -3055.4116    2.1664485     3.953203   0.18835936 
   32700   -941.61215    42.673866   -898.93829    1528.4231   -497.96163    2.1686281    2.3598729      0.18853 
   32800   -941.63444    50.435643    -891.1988    1806.4218    2319.0027     2.171046    1.9449786   0.19258404 
   32900   -939.55748     43.28863   -896.26885    1550.4418     3791.082    2.1748104    3.3069507   0.19878612 
   33000   -942.08985    41.889296   -900.20056    1500.3227   -3834.8914    2.1640607    3.4105878   0.18939324 
   33100   -941.42823    48.721383   -892.70685    1745.0232   -1766.0482    2.1600058    3.9660225   0.18489373 
   33200   -945.81767    50.126847   -895.69083    1795.3619    4434.0923    2.1841938     3.343771   0.18475801 
   33300   -947.70029    46.728351   -900.97194    1673.6401   -2525.0317    2.1776267     2.472764   0.18527632 
   33400   -940.40344     46.91471   -893.48873    1680.3148   -5339.9012    2.1476428    3.5057347   0.19206445 
   33500   -943.82153    49.234199   -894.58733    1763.3905   -637.74757    2.1745321    8.1214009   0.18566773 
   33600   -946.72856    47.045702   -899.68286    1685.0064    6196.8342    2.1909806     8.423899    0.1626745 
   33700   -943.31822    50.879376   -892.43884    1822.3147   -7226.5412    2.1442951    9.0533646   0.16638131 
   33800   -936.72884    42.205314   -894.52353    1511.6413   -3442.1399    2.1488217    10.997708   0.17528427 
   33900   -946.86682    47.530207   -899.33662    1702.3596    9680.7366    2.1960826    9.7150043    0.1711185 
   34000   -944.35018    52.366956   -891.98323    1875.5945     1810.126    2.1725629    7.9034026   0.16066951 
   34100   -942.96269    47.924911   -895.03778    1716.4965    -11602.21    2.1381096      9.76759    0.1638928 
   34200   -944.94724    44.141812   -900.80542    1580.9996    347.40106    2.1744034    8.0710339   0.16843471 
   34300   -944.28503    51.300772   -892.98426    1837.4076    10239.669    2.1951714    10.596374   0.17577456 
   34400   -944.40548    49.897407   -894.50807    1787.1441   -2006.0944    2.1596327    9.0843587   0.16644093 
   34500   -949.31232    46.931021    -902.3813     1680.899   -10809.891    2.1557922    9.1980734   0.14943306 
   34600   -943.39355    48.332638   -895.06091    1731.0998     2601.984    2.1783383    8.0648893   0.16087309 
   34700   -945.03042    51.558256   -893.47216    1846.6297    3935.0885    2.1823887    10.524176   0.15957566 
   34800   -947.25024    44.979724   -902.27052    1611.0106   -5097.9302    2.1697088    11.405753   0.17649519 
   34900   -943.87068    48.209047   -895.66164    1726.6732   -2963.3613    2.1643918    8.8525667   0.17408783 
   35000   -940.18369    47.262929   -892.92076    1692.7867    5539.8513    2.1750353    9.7419253   0.18247805 
   35100   -946.73304    44.969535    -901.7635    1610.6456    2151.7535    2.1882587    7.6218556   0.18411942 
   35200   -941.49519    46.361286   -895.13391    1660.4931    876.55461    2.1675278    8.0955226   0.16421653 
   35300    -942.2502    48.562125   -893.68808    1739.3192   -2644.6105    2.1628653    10.412516   0.17085189 
   35400   -944.52087    43.035779   -901.48509    1541.3855    2795.8942    2.1819763     9.726945   0.16914804 
   35500   -940.01009    45.471619   -894.53848    1628.6285    3807.6929     2.171597    9.2703279   0.15585135 
   35600   -940.68071    46.773256   -893.90746    1675.2484   -347.95954    2.1656357    9.8060308   0.17955537 
   35700   -944.14158    42.863287   -901.27829    1535.2075   -815.24783    2.1725514     9.457455   0.16327662 
   35800   -946.27637    52.077413   -894.19896    1865.2241   -1778.2933    2.1653727    9.5519879   0.16354413 
   35900   -941.78751    48.655429   -893.13208     1742.661    3823.1928     2.175164    8.1469568   0.19160795 
   36000   -942.92566    42.463983   -900.46168    1520.9059    1063.8024    2.1700121    9.4275341   0.16789793 
   36100   -940.75613    46.115642   -894.64049    1651.6951   -2762.8936     2.155721    7.9623209   0.17775987 
   36200   -942.81804    50.968084   -891.84995    1825.4919    4518.5287    2.1785811    8.5811176    0.1582695 
   36300    -950.8456    51.152336   -899.69326    1832.0912    4796.1876    2.1919668    7.1975959    0.1479348 
   36400   -939.76741    44.649153   -895.11826    1599.1707   -5923.6468    2.1461428    9.6179456   0.16507014 
   36500   -938.38025    46.093553   -892.28669    1650.9039   -2323.4268    2.1515218    9.2951371   0.16683324 
   36600   -949.23582    49.316633   -899.91918     1766.343     11332.43    2.2090216    9.6329997   0.16341928 
   36700   -942.09599    46.519658   -895.57634    1666.1654    1008.4713    2.1722684     8.030365   0.16540808 
   36800   -939.76697    46.029298   -893.73767    1648.6025    -10461.38    2.1371639    7.5519417   0.18356462 
   36900   -943.95663    43.416309   -900.54032    1555.0147    5600.1751     2.185954    9.7827988   0.15940532 
   37000    -947.9335    50.035464   -897.89804    1792.0888    8302.8449    2.1997961    8.8269344   0.16640813 
   37100   -938.90405    46.023244    -892.8808    1648.3857   -4749.0967     2.149764    11.175362   0.16011896 
   37200   -941.11761    40.638925   -900.47869    1455.5389   -3469.8231    2.1620746    12.668243   0.15726707 
   37300   -944.32909     46.39557   -897.93352    1661.7211    6461.0237    2.1927345    12.199197   0.16581893 
   37400   -945.69687    54.338413   -891.35846    1946.2049   -1254.7723    2.1685499    10.445833   0.14583132 
   37500   -947.11493    47.343869   -899.77106    1695.6857   -4307.3172     2.164595    8.5365384   0.15566437 
   37600   -946.57788    48.571348   -898.00653    1739.6495    783.40066    2.1741097     8.517873   0.16092639 
   37700   -943.64959    52.875097   -890.77449    1893.7942    2163.4277    2.1680812    9.2737649   0.16151709 
   37800   -944.18562    44.724266   -899.46136     1601.861    1733.2269    2.1766428     7.864978   0.15321815 
   37900   -940.44383    42.162778   -898.28105    1510.1178    536.97656    2.1662997    8.4361976   0.16535981 
   38000   -942.80966    51.323153   -891.48651    1838.2092   -853.53459    2.1660004    9.3133604   0.15730158 
   38100   -945.03808    45.307855   -899.73023    1622.7631    5332.1447    2.1876206    10.575412   0.17194109 
   38200   -946.01799    47.969883   -898.04811    1718.1073   -2619.5426    2.1710639     9.073767   0.16570833 
   38300   -938.84749    47.028081   -891.81941    1684.3753   -1413.5337    2.1582147    9.1404392    0.1713893 
   38400   -944.33665    44.060362   -900.27629    1578.0824    3304.6205    2.1883238    7.4751427   0.18112974 
   38500   -945.78591    47.690566   -898.09535    1708.1031    415.91355    2.1824256    7.9200196   0.17471919 
   38600   -938.18113    45.744451   -892.43667    1638.4003    -2636.146    2.1540239    6.5945528   0.17302653 
   38700   -944.68678    43.794937   -900.89185    1568.5758    273.25886    2.1761613    10.620682   0.17695861 
   38800   -944.32844    46.360258   -897.96819    1660.4563    7229.7557    2.1935967    9.6673807   0.17565566 
   38900   -938.22817     46.78121   -891.44696    1675.5333    2223.3093    2.1640841    11.906793   0.18830286 
   39000   -947.84187    48.506914   -899.33495    1737.3417   -14944.216    2.1420966    9.1062876   0.17338325 
   39100   -944.82113    46.767447   -898.05369    1675.0404    3782.4848    2.1871966     9.279205   0.19740582 
   39200   -941.81795    52.290418   -889.52753    1872.8532    10465.239    2.1912397    7.3623855   0.19682966 
   39300   -944.26683    47.261829     -897.005    1692.7473   -8063.4119    2.1517924    9.7673571   0.16926912 
   39400   -944.14087    44.831459   -899.30941    1605.7003   -7952.0189    2.1540048    8.8125629   0.16613143 
   39500    -942.0411    51.977826   -890.06327    1861.6572    9295.9262    2.1853825    8.0158422   0.15967898 
   39600    -940.1879    45.311484   -894.87641     1622.893     4748.984     2.179431    8.3367228   0.18032683 
   39700   -947.56248    46.873207   -900.68928    1678.8283   -9047.4212    2.1580968    8.7826122   0.16282658 
   39800   -940.54339    47.570895    -892.9725    1703.8169   -470.31006     2.167585     8.755047    0.1933466 
   39900   -943.33765    50.080801   -893.25685    1793.7127    6768.6767    2.1885247    8.9403515   0.18969782 
   40000   -946.51309    45.774933   -900.73816    1639.4921   -3468.4102    2.1738189    7.3890908   0.17488188 
   40100   -941.96453    46.824931    -895.1396    1677.0992   -4809.1732    2.1565153    8.4537577   0.17821745 
   40200   -943.06447    50.465809   -892.59866    1807.5023      3671.27    2.1752327    7.9560715   0.15011502 
   40300   -947.64945    46.068624   -901.58082     1650.011    5554.4004    2.1931545    8.3643944   0.16761695 
   40400   -937.76967    42.684732   -895.08494    1528.8123   -2264.1586     2.152594    8.4332741   0.16550955 
   40500    -941.0831    47.039822   -894.04328    1684.7958   -2065.8488    2.1576733    9.7212421   0.15419561 
   40600   -947.42234    46.349145    -901.0732    1660.0583    8793.8027    2.2014574    8.3239318   0.17825338 
   40700    -942.1035    47.238834   -894.86466    1691.9237    2202.7747    2.1709749    9.9538778   0.17925124 
   40800   -942.05353    48.002103   -894.05143    1719.2612   -12746.065     2.136682    8.5619146    0.1803249 
   40900   -944.79154    44.478569   -900.31297     1593.061    2267.3749    2.1808274    7.2270702   0.17594257 
   41000   -949.83305     53.06823   -896.76482    1900.7115    16456.783    2.2220566      6.94941   0.17038342 
   41100   -940.67293     48.40271   -892.27022    1733.6096   -13094.137    2.1342424    11.578929   0.16722386 
   41200   -942.85342    43.590031   -899.26339    1561.2368   -12160.516    2.1381094    7.9331731   0.16984181 
   41300   -945.59438    47.372571   -898.22181    1696.7137    10619.821    2.2027455    10.229593   0.15989073 
   41400   -945.86039    53.914469   -891.94592    1931.0207    3413.1969    2.1779606    9.9450413    0.1690676 
   41500   -943.81101    47.824577   -895.98643    1712.9029   -9732.8064    2.1458208    8.4601574   0.16614454 
   41600   -947.26073    46.580664   -900.68007    1668.3505   -2072.7217    2.1764179    10.284256   0.17464162 
   41700   -943.75059    51.836963   -891.91362     1856.612    7444.7992     2.189259    7.1327198   0.19304108 
   41800   -945.59872    49.013389   -896.58534    1755.4818   -2835.3025    2.1704235     9.840819   0.19462956 
   41900   -943.64654    41.622944    -902.0236    1490.7829    -4159.087    2.1654754     9.549552   0.18353194 
   42000   -943.92274    50.779247    -893.1435    1818.7285    1261.1373    2.1736017    11.220873   0.18066455 
   42100   -945.97491    50.252177   -895.72273    1799.8507    4607.7047    2.1896154    10.716118    0.1551308 
   42200   -945.53283    43.519986   -902.01284    1558.7281   -2438.2164    2.1712359    10.585737   0.17167993 
   42300   -942.74027    49.216382   -893.52389    1762.7523   -6618.5699    2.1503678    9.4457242   0.17860698 
   42400   -943.30697    48.575765   -894.73121    1739.8077     6029.963    2.1878008    11.866985   0.18934882 
   42500   -943.44614      43.0287   -900.41744     1541.132    4655.7228    2.1892117    9.0175977   0.18271585 
   42600   -942.14147    48.920921   -893.22055      1752.17   -10909.222    2.1401561    10.341928   0.17000984 
   42700   -944.33185    50.483034   -893.84881    1808.1192   -2159.1286     2.164229    10.389714   0.17243923 
   42800   -948.01288    49.161067   -898.85181    1760.7711    13951.906    2.2130679     10.45492   0.17389898 
   42900   -939.82381    46.089594   -893.73422    1650.7621   -1600.3258    2.1557236    11.302385   0.16239422 
   43000    -937.5707    44.030553   -893.54015    1577.0147   -16734.565    2.1166402    11.511371   0.16518907 
   43100   -946.71165    46.984811   -899.72684    1682.8255    9222.7755     2.198812    10.764809   0.15783593 
   43200   -944.25268    46.776894   -897.47579    1675.3787    15340.762    2.2084761    8.1146269   0.16709387 
   43300   -940.37807    47.049483   -893.32859    1685.1418   -9549.1315    2.1416735    8.9096413   0.17560713 
   43400    -941.8744     40.87788   -900.99652    1464.0974   -2122.8867    2.1634829    8.5006791   0.16455099 
   43500   -944.93143    46.134807   -898.79663    1652.3815    6607.1418    2.1897613    9.6666881   0.16473213 
   43600    -939.7277    47.277027   -892.45067    1693.2916    1166.4569     2.164032    11.878491   0.17728356 
   43700   -947.19449    47.167598   -900.02689    1689.3723   -7724.5025    2.1564547    11.281374   0.16052377 
   43800   -946.38001    47.450563   -898.92945    1699.5071    796.85533     2.174983    9.5590593   0.16219171 
   43900   -941.53705    50.349729   -891.18732    1803.3447     4472.562    2.1746024     7.996583   0.17258331 
   44000   -944.74183    45.978414   -898.76341      1646.78   -1295.1151     2.166494    7.9566042   0.15317792 
   44100   -946.38753    47.344483   -899.04305    1695.7077   -6494.4897    2.1613116    8.8641601   0.16517477 
   44200    -937.4788    47.029283   -890.44952    1684.4184    4581.0019    2.1676104    7.7074176   0.16671659 
   44300   -942.11981    44.473615    -897.6462    1592.8836    7386.6585    2.1864698    10.052621   0.16810681 
   44400   -947.79424    48.212269   -899.58198    1726.7886   -6812.0394    2.1590949    10.655401   0.17313232 
   44500   -943.93504    52.334829   -891.60022    1874.4438   -8096.4571    2.1480027    10.138686   0.18429824 
   44600   -945.46383    46.628152   -898.83568    1670.0513    8663.7162    2.2009052    10.806553   0.19037214 
   44700   -945.09373    45.415177   -899.67855    1626.6069   -151.31976    2.1717144    10.786887   0.17951402 
   44800   -939.65568    45.892865   -893.76282     1643.716   -10003.239    2.1314437    10.213949   0.17393198 
   44900   -943.27383    46.889061   -896.38476    1679.3961    8246.6574    2.1873042    8.3411646   0.15612824 
   45000   -948.51182    48.034084   -900.47773    1720.4067    13368.585    2.2116546    8.4921298   0.15647205 
   45100    -942.7376    48.229464   -894.50814    1727.4045   -9535.0282    2.1387037    8.7611573   0.15729565 
   45200   -943.32384    48.632025   -894.69182    1741.8228   -7737.6663     2.144771    8.8062452   0.15589587 
   45300   -947.05667    46.631696   -900.42497    1670.1783    12391.863    2.2061089    11.189465   0.18259648 
   45400   -942.26976    49.156079   -893.11368    1760.5925    4437.2251    2.1710833    10.441233   0.17731583 
   45500   -944.67009    50.882022   -893.78807    1822.4095   -4924.7888    2.1505481    8.8318487   0.18722759 
   45600   -943.63918     44.10277   -899.53641    1579.6013    1777.5774    2.1717507    7.2854242    0.1966408 
   45700   -942.06213    48.940267   -893.12186    1752.8629    6333.0392    2.1779755     6.127209   0.18949997 
   45800   -939.78349    47.630543   -892.15295    1705.9533    -1165.778    2.1530163    3.0308386   0.19527863 
   45900   -944.27256    45.122345   -899.15022    1616.1187   -4623.5132    2.1578196    4.4641332   0.18586389 
   46000   -944.19125    49.518245     -894.673     1773.564    4268.7982    2.1777654    4.3422271   0.16730951 
   46100   -941.92239    52.015879   -889.90651    1863.0202    1754.7781     2.159628    4.7848226   0.17988638 
   46200   -946.05856    47.102007   -898.95655    1687.0231   -5886.9245    2.1603027    3.0933083   0.16803836 
   46300   -944.94428    49.631569   -895.31271    1777.6228   -4239.7532    2.1571681    3.9600589   0.18041359 
   46400   -939.39068    50.970551   -888.42013    1825.5803    6237.7566    2.1728316    2.9485208   0.18687787 
   46500    -944.1021    46.473283   -897.62882    1664.5045    6644.0038    2.1840768    3.6279789   0.17618799 
   46600   -943.43564    46.370479   -897.06516    1660.8224   -12810.351    2.1309828    3.8484067   0.16016505 
   46700   -942.67905     50.89009   -891.78896    1822.6985   -1826.8851    2.1576039    2.9271996    0.1559044 
   46800   -945.07206    47.163265    -897.9088    1689.2171    17644.705    2.2161521    2.0875134   0.15191804 
   46900   -947.00063    46.316059   -900.68457    1658.8733   -6378.1404    2.1621657    2.4830822   0.14983504 
   47000   -944.02521    50.393525   -893.63168    1804.9133   -14298.107    2.1316481    2.4503012   0.15317099 
   47100   -944.88285    47.094929   -897.78792    1686.7696    7560.0899    2.1866001    2.2712959    0.1445904 
   47200   -949.52924    48.504442    -901.0248    1737.2532     2815.046    2.1883029    2.4632856   0.16462567 
   47300   -939.48308    45.952699   -893.53038     1645.859   -3854.5468    2.1519423    2.7023353   0.18224342 
   47400   -942.06866    44.949353   -897.11931    1609.9228   -855.94153     2.166128    2.6910148   0.19054927 
   47500   -949.96245    48.884772   -901.07768    1750.8753    5680.8376    2.1967121     3.036484    0.1764449 
   47600   -943.67673    51.733473   -891.94326    1852.9054   -2771.9065    2.1593543    1.8734568    0.1514031 
   47700   -944.36788    47.349923   -897.01796    1695.9025   -4838.3258    2.1591022    3.1197788   0.17073267 
   47800    -945.7576    45.706054   -900.05155    1637.0251    3015.4881     2.185685    2.6884766   0.17304527 
   47900   -937.13495    46.872229   -890.26272    1678.7932    5591.7557    2.1727243    3.6929968   0.18289941 
   48000   -942.78879    46.942756   -895.84604    1681.3193   -3212.9048    2.1630811    2.5654873    0.1711767 
   48100   -944.78123    44.988746   -899.79248    1611.3337   -1541.3384    2.1686623    3.6975469   0.16798823 
   48200   -938.93062    47.648719    -891.2819    1706.6043    5224.5889    2.1777686    2.0720879   0.17333026 
   48300   -941.39804      46.7841   -894.61394    1675.6368    4535.2648    2.1769327    2.6353906   0.19213501 
   48400   -946.10412    45.719246   -900.38487    1637.4976   -9019.9962    2.1515166    2.4824717   0.15984856 
   48500   -943.56272    49.707174   -893.85554    1780.3307   -788.11547    2.1633779    2.7757457   0.16444145 
   48600   -942.89259    50.816431   -892.07616    1820.0603    14262.961    2.1971101    3.2631435   0.14455664 
   48700    -946.8021    45.718382   -901.08372    1637.4666   -1725.3636    2.1715511    3.6909076   0.14490931 
   48800   -942.09261    45.227471   -896.86514     1619.884   -13046.288    2.1324428    3.8189205    0.1500348 
   48900   -943.26991    50.851677   -892.41824    1821.3226    3634.3781    2.1764722    3.1724703   0.15124212 
   49000    -945.7265    45.488297    -900.2382    1629.2258    12134.489    2.2045079    2.6417237   0.14538326 
   49100   -943.84731    45.756112    -898.0912     1638.818   -8727.5161    2.1484265    2.2950654   0.16849078 
   49200    -941.1126    47.551744   -893.56085     1703.131   -4910.2861    2.1493472    2.9987815   0.18575712 
   49300   -942.34157    44.167174   -898.17439     1581.908    8097.9106    2.1871467    2.0621052   0.17295474 
   49400   -945.12329    43.852426   -901.27087    1570.6349    3671.6484    2.1804295    3.0275489   0.17326643 
   49500   -938.27442    46.418521    -891.8559    1662.5431   -5371.2248    2.1422462    3.0830114   0.15768324 
   49600   -942.65888    45.029201   -897.62968    1612.7827    3492.1016    2.1766487    1.8844253    0.1588601 
   49700   -944.34737    44.931638   -899.41573    1609.2883    5735.9195    2.1864642    3.7715835   0.14941449 
   49800   -935.58198    44.712973   -890.86901    1601.4565   -3047.2409    2.1462706    2.9539277   0.15642064 
   49900   -947.07504    48.727336   -898.34771    1745.2365   -4522.0082    2.1656753    2.6240196   0.14500842 
   50000   -949.49821    50.614028   -898.88419    1812.8109    1066.8532    2.1792092    2.5397178   0.14396107 
   50100   -939.71229    48.242111   -891.47018    1727.8575    3302.2467    2.1625693    2.5801713   0.17344407 
   50200   -942.76818    45.154425   -897.61375    1617.2677   -3833.5291    2.1564479    3.0537635   0.18139456 
   50300   -944.00409    43.954429   -900.04966    1574.2882   -1712.3749    2.1693348    3.2886585   0.17140469 
   50400   -942.85136    50.713433   -892.13793    1816.3713    5719.1247     2.182001    2.3015551   0.17023848 
   50500   -944.31693    46.439225   -897.87771    1663.2846   -1315.1917    2.1665526    2.3331912   0.14219005 
   50600   -948.17626    45.733011   -902.44325    1637.9906   -13555.747    2.1459386    2.3827581   0.14193897 
   50700   -943.04811    48.951743   -894.09636    1753.2739     6422.772     2.181216    2.6590775   0.14771514 
   50800   -944.32769    49.137064   -895.19062    1759.9114    11134.232    2.1988974     2.105187   0.13706466 
   50900   -946.78171    43.691841   -903.08987    1564.8833   -11342.242    2.1494409    3.2367225   0.13956848 
   51000    -941.0536    45.748656   -895.30495    1638.5509   -6596.5626    2.1461814    3.3966697   0.15614596 
   51100   -940.20326    47.663097   -892.54016    1707.1193    14203.596    2.1926747    2.5708564    0.1758666 
   51200   -946.20809    45.736634   -900.47145    1638.1204    3308.7197    2.1805138    2.6249437   0.15811467 
   51300   -945.89025    51.379306   -894.51094    1840.2204    -11087.44    2.1441573    3.2093067   0.17801276 
   51400    -943.8396    51.555228   -892.28437    1846.5213   -1414.9887    2.1617129    2.2712531   0.14741595 
   51500   -947.09064    47.536355   -899.55428    1702.5799    6148.6921    2.1882866    2.9474182   0.14749045 
   51600    -942.6984    47.622583   -895.07582    1705.6682   -2653.5392       2.1629    3.0526923   0.16340347 
   51700   -941.89143    49.302068   -892.58936    1765.8213   -7642.8375    2.1495686    2.2650866   0.15005732 
   51800   -946.57889     45.86513   -900.71376    1642.7226    2929.9662    2.1837583    2.5039915   0.15128582 
   51900   -944.45158    49.442888   -895.00869    1770.8649    1855.3106     2.175934    2.0210892   0.16986896 
   52000   -942.18042     48.80895   -893.37147    1748.1596    -4276.583    2.1532708    2.8897883   0.16702886 
   52100   -948.76585    46.587343   -902.17851    1668.5897   -1559.2452    2.1754922    3.1229744    0.1914038 
   52200   -942.96811    47.663883   -895.30423    1707.1474    6192.7235    2.1809475    2.9999509   0.18350395 
   52300   -942.01539    48.399984    -893.6154    1733.5119    -420.7309    2.1641717    2.5315991   0.16828624 
   52400   -949.08318     46.40172   -902.68146    1661.9413   -10542.128    2.1566601    3.0827922   0.15396776 
   52500   -946.01032    49.080665   -896.92965    1757.8914    1996.1785    2.1738933     1.994822   0.13408923 
   52600   -941.49033    50.018737    -891.4716    1791.4898    12203.407     2.191203    2.4563921   0.15222104 
   52700   -945.40322    44.969616    -900.4336    1610.6486   -4933.8069    2.1565146    2.1296179   0.14446149 
   52800   -945.57807    48.266182   -897.31189    1728.7196   -11641.147    2.1428698      3.23589   0.13481184 
   52900   -945.09424    54.462193   -890.63205    1950.6382    7251.7045    2.1809991    2.0489703    0.1762324 
   53000   -947.18112    49.000038   -898.18109    1755.0037    4421.6773    2.1862058     3.746801    0.1800105 
   53100   -947.76703    48.465008   -899.30203    1735.8408   -10738.238    2.1482331    4.0858382   0.17441868 
   53200   -943.40864    52.250638     -891.158    1871.4284   -5179.7385    2.1529777    3.3125387   0.17047243 
   53300   -944.86641    47.223742   -897.64266    1691.3832    9029.3272     2.195634     1.124441    0.1859636 
   53400   -945.73669    47.396646   -898.34005     1697.576   -3100.7764    2.1700337    1.7668857   0.15928144 
   53500     -937.714    46.489045   -891.22495     1665.069   -7840.1005    2.1380359    3.2806534   0.18315147 
   53600   -947.57446    48.035806   -899.53865    1720.4684    4477.0192    2.1875861    4.2354892   0.17623654 
   53700   -947.38886      49.6091   -897.77976     1776.818    3196.3497    2.1825512    3.6823076   0.19908207 
   53800   -938.60861    46.736015    -891.8726    1673.9146   -4700.4479    2.1528602    4.4306111   0.21352281 
   53900   -946.70791     47.45388   -899.25403    1699.6259   -4971.9814    2.1651399    2.5794629    0.2097744 
   54000   -946.65122    48.401232   -898.24999    1733.5566    2806.5943    2.1843737    2.1562709   0.18622775 
   54100   -941.41363    50.203356   -891.21027    1798.1021   -121.67793    2.1666013    2.5689039   0.18575545 
   54200   -946.42419    47.876682   -898.54751    1714.7691   -6181.5015    2.1654173    1.9866232   0.18128625 
   54300   -945.64159    47.381096    -898.2605     1697.019   -1031.3329    2.1711023    4.0750897   0.17863639 
   54400   -937.84683    47.622439   -890.22439    1705.6631    4356.9333    2.1703271    4.3178616    0.2281637 
   54500   -944.92567     48.91038   -896.01529    1751.7925   -4421.5378     2.163831      4.32963    0.1813029 
   54600   -942.77828    43.824187    -898.9541    1569.6235   -799.36778      2.16772    3.8332918   0.19778206 
   54700   -937.50057    47.842155   -889.65841    1713.5325    3716.6407    2.1626341    4.4583681   0.17341209 
   54800   -942.42897    46.421354   -896.00761    1662.6445    3763.1367    2.1744995    4.5316116   0.15535044 
   54900   -943.67907      44.7861   -898.89297    1604.0757   -1465.3326    2.1631232    4.0922698   0.18137743 
   55000   -937.37329    46.953627   -890.41966    1681.7086   -3401.6682     2.150787    9.6749675    0.2020835 
   55100   -943.52118    48.482758   -895.03842    1736.4766    358.79709    2.1785185     8.257051   0.21195834 
   55200   -941.04816    41.097037   -899.95112    1471.9468    2420.6983    2.1696101    14.916868    0.2078389 
   55300   -942.95751     51.62056   -891.33695    1848.8612   -1277.2126    2.1566287    13.651407   0.18953861 
   55400   -942.18172    46.417885   -895.76384    1662.5203    822.83181    2.1683808    11.904052    0.1662923 
   55500   -944.06243      43.7805   -900.28193    1568.0587    975.33481    2.1750202    9.2076121   0.18467633 
   55600   -942.08987    49.930673    -892.1592    1788.3356   -3097.7237    2.1567815      13.2086   0.19006925 
   55700    -945.0604    49.585865   -895.47453    1775.9859    103.24696    2.1665978    13.266614   0.18929819 
   55800   -948.12667    48.992562    -899.1341    1754.7359    3959.1038    2.1835907    8.3377931   0.18970469 
   55900   -940.02617    48.696701   -891.32947    1744.1392   -457.84213    2.1603089    14.804323   0.20615663 
   56000    -942.8938      47.0666    -895.8272    1685.7549   -326.81826    2.1664642    10.883899   0.18984652 
   56100   -947.85082    48.851321    -898.9995    1749.6772    1079.2547    2.1785209    13.294882   0.18097157 
   56200   -937.59066    46.871202   -890.71946    1678.7565    2252.6056    2.1627302    8.4070242   0.19698068 
   56300   -945.05776     48.32654   -896.73122    1730.8814   -3306.5437    2.1617281    9.8632573   0.16912248 
   56400   -946.83307    47.586287   -899.24678    1704.3682   -2882.6745    2.1669038    10.095195   0.16832091 
   56500   -940.58898    49.942592   -890.64639    1788.7625    4937.9555    2.1731613    11.750751   0.19906555 
   56600   -944.07351     47.12858   -896.94493    1687.9748    -291.6723    2.1736223    11.835998   0.19542006 
   56700   -940.22849    40.570032   -899.65846    1453.0714   -2007.0004    2.1537372    13.348992     0.203556 
   56800   -941.30576    50.054947   -891.25081    1792.7867    2335.0514     2.166879    17.103393   0.19191616 
   56900   -944.73552    47.665706   -897.06981    1707.2127    9628.7023    2.1921063     10.91005   0.20011237 
   57000   -945.79141    45.312531   -900.47888    1622.9305   -7322.5731    2.1520638    11.096523   0.16435514 
   57100    -942.2811    49.370247   -892.91086    1768.2632    -8033.342    2.1422089    12.844873   0.17506512 
   57200   -945.94074    51.095164   -894.84558    1830.0435    7086.4317    2.1902881    9.3648555   0.17785474 
   57300   -947.19488    46.649719   -900.54516    1670.8238    4359.0097    2.1881117    13.388884   0.16265785 
   57400   -939.45105    46.004398   -893.44666    1647.7107   -11058.626    2.1356638    11.322353   0.20215659 
   57500   -942.19357    48.622533   -893.57103    1741.4828    -1550.243    2.1629628    14.676502   0.18205537 
   57600   -949.05619    49.940412   -899.11578    1788.6844    11026.133    2.2048483    10.862054   0.17888834 
   57700   -937.80985    46.125721   -891.68413     1652.056    214.14173    2.1532179    15.307785   0.19143107 
   57800   -939.31281    46.380083   -892.93273    1661.1664    -7110.006    2.1441059    13.272574   0.19163159 
   57900    -947.3786    48.439789   -898.93881    1734.9376   -73.636217    2.1784026    10.902389   0.17988579 
   58000   -937.97188    44.551566   -893.42031    1595.6755    4224.2452     2.171961    9.5876157   0.19456534 
   58100   -937.95057    47.926667    -890.0239    1716.5594   -3366.6099    2.1472134    9.1286135   0.17252115 
   58200   -945.19552     46.79898   -898.39654    1676.1697    -212.8584    2.1663072     15.09438   0.18772779 
   58300   -940.97582    45.805582   -895.17023    1640.5898    5501.2008    2.1771502     16.26642   0.19939062 
   58400   -938.14393    48.712013   -889.43192    1744.6876   -1626.3128    2.1531814    14.527272   0.21159495 
   58500   -948.01105    48.814119   -899.19693    1748.3447   -2550.7544    2.1706487    19.933363   0.17549917 
   58600   -945.05992     49.29498   -895.76494    1765.5674   -894.65711    2.1725229    20.705065   0.16797849 
   58700   -940.34399    49.512346   -890.83164    1773.3527    1200.1268    2.1627005    19.938863   0.19232614 
   58800   -945.28663    45.512685   -899.77394    1630.0993   -2349.7436     2.165606     16.24996   0.17741259 
   58900   -943.34876    45.322071   -898.02669    1623.2722   -6315.6068    2.1557413    14.875003   0.19264316 
   59000   -937.58037    45.743204   -891.83716    1638.3557    9983.3626    2.1830265    14.912766   0.20070882 
   59100   -946.01216    47.116579   -898.89558     1687.545    6024.5339    2.1893162    15.244647   0.18039549 
   59200   -942.72734    41.757297   -900.97005    1495.5949   -13470.207    2.1389956    17.761608   0.17998266 
   59300   -945.16536    50.558312   -894.60705    1810.8154   -5969.5999    2.1600258    13.781832   0.18942545 
   59400   -939.85688    46.241821   -893.61506    1656.2143    18524.124    2.2051289    20.941662   0.19689612 
   59500   -942.11005    40.832846    -901.2772    1462.4844    279.59083    2.1760584    12.139621   0.20068344 
   59600   -936.54104    44.653914   -891.88713    1599.3413   -10626.353    2.1368122    11.230927   0.19552819 
   59700   -942.33673    50.039766   -892.29696     1792.243    2076.2956    2.1745034    12.225442   0.19709347 
   59800   -941.12905    44.011453   -897.11759    1576.3307    10920.567    2.1967293    21.080175   0.17169877 
   59900   -941.65159    47.417854   -894.23373    1698.3356    -4451.973    2.1528518    22.778309   0.17757935 
   60000   -936.99124    47.264131   -889.72711    1692.8298   -7656.9486    2.1366772    23.221161   0.19422171 
   60100    -945.8525    49.049633   -896.80287      1756.78    5480.8461    2.1883923    26.984167     0.167554 
   60200   -945.68867    47.076057   -898.61261    1686.0937    4240.8697    2.1874376     26.13566   0.17150095 
   60300    -937.0005    47.407522   -889.59298    1697.9655   -5724.3557    2.1431804    29.385114    0.1864494 
   60400   -942.79303    46.935199   -895.85784    1681.0486   -964.36608    2.1688369    23.614159   0.16861631 
   60500   -945.51204    47.400573   -898.11147    1697.7166    3920.2843    2.1873826    21.454116   0.18604999 
   60600   -940.73056    47.026047   -893.70451    1684.3025   -507.55538    2.1649999    25.605427   0.17181378 
   60700   -940.55655    49.610882   -890.94567    1776.8819   -6886.4256    2.1458664    26.675037    0.1663752 
   60800   -944.54408    44.330016   -900.21406    1587.7404    8128.5175    2.1960554    25.406036   0.16587938 
   60900   -943.73441    48.458041   -895.27636    1735.5913     5560.458    2.1858353    26.976849   0.18068446 
   61000   -941.99576    47.531112   -894.46465     1702.392   -8487.7333    2.1437843    26.257426   0.18393736 
   61100   -946.91282    42.746785   -904.16603    1531.0348    21.764048     2.182359    25.088363   0.16989222 
   61200   -945.85655    49.424856   -896.43169    1770.2191    9240.5121    2.1976919    26.462906   0.17802795 
   61300   -944.17351     49.52737   -894.64614    1773.8908   -5099.3447    2.1617586    28.250065   0.16972966 
   61400   -947.14407    46.506105   -900.63797      1665.68   -16368.543    2.1379157    25.779217   0.16662743 
   61500   -949.64225      49.8869   -899.75535    1786.7679    8045.1051    2.2038502    23.973155   0.17047952 
   61600   -943.74863    53.161381   -890.58725    1904.0479    13266.197    2.2019946    22.256859   0.17062488 
   61700   -946.72523    49.995241   -896.72999    1790.6482   -15877.209    2.1333014    26.061233   0.15583963 
   61800   -944.91984    46.542601   -898.37723    1666.9872   -4358.2583     2.159426    27.903036   0.16823318 
   61900    -946.8954    44.936209   -901.95919     1609.452    12278.993    2.2085504    24.766358   0.17531133 
   62000   -953.58194    42.226041    -911.3559    1512.3836    311.75735    2.1938602    27.798535   0.16979402 
   62100   -946.60088    44.950418   -901.65046     1609.961    -11495.52    2.1483748    26.939487   0.17399402 
   62200   -946.49072    48.150237   -898.34048    1724.5669    4065.2154    2.1848883    27.040375   0.17081239 
   62300   -944.94767    50.200424   -894.74724    1797.9971     8332.742    2.1881949    27.577147   0.16423746 
   62400   -943.76737    46.966544   -896.80083    1682.1713    -8269.655    2.1515825    27.973291   0.17135485 
   62500   -949.24151    44.508357   -904.73315     1594.128   -2138.3829     2.181254    25.105602   0.16834959 
   62600   -945.69458    49.516071   -896.17851    1773.4861    6462.8017    2.1896297    25.644309   0.15911902 
   62700   -943.10114    47.434304   -895.66684    1698.9247    444.64156    2.1663278    23.972242   0.17251678 
   62800   -944.27247    43.625203   -900.64727    1562.4966   -6652.7803    2.1572568    25.420031   0.16933144 
   62900   -944.40114    41.544302   -902.85684    1487.9662     8871.857    2.1968885    27.483912   0.19434071 
   63000   -941.60853    47.241133   -894.36739    1692.0061    6650.9472    2.1840303     30.06144   0.19117548 
   63100   -943.91673    46.875132    -897.0416    1678.8972   -8202.3156    2.1471741    24.291767   0.17206333 
   63200      -944.78    44.381676   -900.39833    1589.5907   -3038.1885     2.165346    22.509968   0.16308769 
   63300   -951.00841    44.706595   -906.30181    1601.2281    9422.6398     2.213254    22.401575   0.16377856 
   63400   -941.69615    45.663732   -896.03242    1635.5093   -1770.7987    2.1575865    23.373206   0.16273602 
   63500   -940.94812     44.21524   -896.73288    1583.6295   -3991.0995    2.1545651    30.547125   0.17071131 
   63600   -945.84103    49.250176   -896.59086    1763.9627    4360.1186    2.1812427    27.121066   0.17116341 
   63700   -942.35131    54.276475   -888.07483    1943.9865    3428.5093    2.1699812    27.373355   0.18082212 
   63800   -940.23591    49.807312    -890.4286    1783.9173    -5844.198    2.1494165    26.715857   0.18902107 
   63900   -944.21658    47.590175    -896.6264    1704.5075   -3342.0275    2.1634248    23.637418   0.17850941 
   64000   -943.94498    46.741231   -897.20375    1674.1014    5524.8763    2.1820493    27.722636   0.17796069 
   64100   -937.41799    48.330789    -889.0872    1731.0336    4072.8832    2.1659536    29.643125   0.15994755 
   64200     -940.856    48.517893   -892.33811     1737.735    -3776.031    2.1511536    26.970263   0.16864835 
   64300   -946.87897    48.943286   -897.93568     1752.971   -3423.3311    2.1646451    25.819797   0.15765652 
   64400   -944.31971    49.339085   -894.98062    1767.1471    6651.6374    2.1880645    22.957883   0.16809501 
   64500   -940.41288    52.681593   -887.73129    1886.8636   -1072.9836    2.1528988    26.092713   0.18226265 
   64600   -943.23278    45.815227   -897.41756    1640.9353   -7376.7992     2.152677    25.234308   0.15605494 
   64700   -944.13155    46.446524   -897.68503     1663.546    912.69554    2.1735192    28.966221   0.16265597 
   64800   -947.01426     52.99706    -894.0172    1898.1625    6684.2071    2.1913877    22.700322   0.17543224 
   64900   -941.44719    46.843512   -894.60368    1677.7647   -9368.9915    2.1473767    25.192673   0.20167259 
   65000   -947.11783    43.638757   -903.47907     1562.982   -6683.8432    2.1640708    25.134332   0.15227198 
   65100   -944.65313    47.709635    -896.9435    1708.7861    15819.802    2.2138741    25.572536   0.16558855 
   65200    -942.4152    47.971727   -894.44347    1718.1733   -319.46703    2.1661305    25.790168    0.1624547 
   65300   -944.63299    48.604211   -896.02878    1740.8266   -18680.411    2.1227775    28.579692   0.16805739 
   65400   -947.80466    45.521458    -902.2832    1630.4135    7735.5674    2.1970238    26.336403   0.14797254 
   65500   -942.71496    49.776465   -892.93849    1782.8125    8828.4322     2.185727    26.014255   0.16031136 
   65600   -941.57858    45.892062   -895.68651    1643.6872   -4180.8576    2.1557381    21.741696   0.18419446 
   65700   -943.03469    43.606754   -899.42794    1561.8358   -441.66398    2.1685105    25.252383   0.16066728 
   65800    -949.4268    44.006442   -905.42036    1576.1511    6039.9707    2.2015746    25.805042   0.18444424 
   65900   -941.69055    46.902867   -894.78768    1679.8906   -3559.1173    2.1633683    22.819081   0.17044765 
   66000   -943.01782    47.066125   -895.95169    1685.7379   -3425.8531    2.1638606    27.301227   0.18210929 
   66100   -940.86366    43.425744   -897.43792    1555.3527    5348.4936     2.179948    25.073376   0.15734315 
   66200   -947.60391    41.628071   -905.97584    1490.9665   -401.96707     2.184438    29.763187   0.16218482 
   66300   -947.62429     46.61963   -901.00466    1669.7461   -3887.3177    2.1676477    24.916136   0.15669188 
   66400   -947.86666    51.308474   -896.55818    1837.6835    4129.8203    2.1841273    24.046284    0.1488035 
   66500    -942.9874    46.950762   -896.03664     1681.606   -1051.2095    2.1731061     23.57172   0.16296352 
   66600   -942.13712    46.996202   -895.14092    1683.2335   -6915.7067    2.1507954    25.317436   0.16264519 
   66700   -951.47688    45.499966   -905.97691    1629.6438    5793.0905    2.2016783    23.302515     0.162288 
   66800   -947.52093    46.977457   -900.54348    1682.5622     1659.762     2.184281    29.074161   0.15842363 
   66900   -942.69858    45.927721   -896.77086    1644.9644   -8984.3868    2.1456487    24.275174    0.1812223 
   67000    -941.9251    47.910405    -894.0147     1715.977    289.16231    2.1713154    26.558843   0.16038415 
   67100   -949.55462    46.555565   -902.99905    1667.4515    11981.676    2.2121401    29.110997   0.17024933 
   67200   -942.73691    44.421763   -898.31515    1591.0264    -7089.447    2.1510195    25.251879   0.15285244 
   67300   -941.92879    46.324015   -895.60477    1659.1582   -7635.1084    2.1485156    28.062996   0.16507479 
   67400   -948.38599    51.830234   -896.55576     1856.371    7340.1674    2.1939074    26.793892   0.15779327 
   67500   -949.45526    45.602396   -903.85286    1633.3125    3688.9626    2.1907796    26.772698   0.14717951 
   67600     -940.607    46.933176   -893.67382    1680.9762   -9433.0582    2.1392776    25.896334   0.16369884 
   67700   -942.96602    47.969015     -894.997    1718.0762     3813.632    2.1761561    26.879546   0.16128757 
   67800   -949.11841    50.539022   -898.57938    1810.1245     2434.215    2.1877441    27.264739   0.16143873 
   67900    -938.3208    43.460997    -894.8598    1556.6153    720.27959    2.1566627    29.004632   0.15754863 
   68000   -941.58368    50.971087    -890.6126    1825.5995   -4899.7135    2.1463911    28.820693   0.16313191 
   68100   -946.71081    49.728241   -896.98257    1781.0853    400.16046    2.1757013    27.585475   0.14589832 
   68200   -945.88466    47.957121   -897.92754    1717.6502    2318.3794    2.1769381    27.415357    0.1582581 
   68300   -934.73087    46.598234   -888.13264    1668.9798    119.51018    2.1513854    23.289354   0.16694476 
   68400   -940.60313    44.805266   -895.79787    1604.7622    2419.4882    2.1737747    26.233648   0.16729648 
   68500   -943.39063    45.366566   -898.02407    1624.8659    28.716273    2.1715629    24.210476   0.15199785 
   68600   -945.96314     52.54572   -893.41742    1881.9971    -2255.771    2.1670312    27.939472   0.15599771 
   68700   -937.10249    48.890004   -888.21249    1751.0626    1770.7636      2.15786    23.039158   0.17008885 
   68800   -945.28251    46.479979   -898.80253    1664.7443    4084.6683    2.1839336    25.328453   0.16415085 
   68900   -948.38643    51.447105   -896.93932    1842.6487   -4575.1961    2.1691899     26.87763   0.15966596 
   69000   -944.23308    50.167765   -894.06532    1796.8274   -5473.3513    2.1512366    25.658818   0.14808856 
   69100    -945.5305    45.448621   -900.08188    1627.8048    4280.4894    2.1835059    25.082842   0.14396498 
   69200   -947.81064    45.926838    -901.8838    1644.9328     4889.569    2.1921065    23.380396   0.13971344 
   69300    -944.5798    47.715933   -896.86387    1709.0117   -5003.8291    2.1548492    25.503315   0.14668974 
   69400   -946.15531     50.67444   -895.48087    1814.9747   -6306.1251    2.1540942     27.40693   0.14948238 
   69500    -948.5456    44.953847   -903.59175    1610.0838    8206.7534    2.2014643    25.877899   0.15460209 
   69600   -945.24476    44.802024   -900.44274     1604.646    1647.6147    2.1798065    25.512548   0.16227365 
   69700   -941.54615    45.426106   -896.12005    1626.9984   -6016.2287    2.1482907    27.906221   0.17318134 
   69800   -944.97644    48.585268   -896.39118    1740.1481    560.44404    2.1697517      25.8631   0.16821909 
   69900   -947.79462    43.366153   -904.42846    1553.2183    10526.541    2.2070813    26.821276   0.16001272 
   70000   -943.52238    47.131121   -896.39126    1688.0658   -5653.1798    2.1538899    24.175069   0.15728054 
   70100    -943.4982    47.769852   -895.72835    1710.9429   -3889.9605    2.1560857    25.269193   0.13381158 
   70200     -944.995    48.118287   -896.87672    1723.4225    6159.1144    2.1889448    24.955601   0.16444282 
   70300   -950.47322    46.156401   -904.31682    1653.1549     281.2401    2.1851324    25.974001   0.14791884 
[...]
  186800   -946.78147     46.11615   -900.66532    1651.7132    82.863995    2.1711853    23.889667   0.16064381 
  186900   -939.95129    45.171634   -894.77966    1617.8841    4275.8253    2.1666532    22.745918   0.15834881 
  187000   -944.21623    47.447394   -896.76883    1699.3936    209.45125    2.1682191    24.492099    0.1414593 
  187100   -946.14247    41.291997   -904.85047    1478.9296     4138.261    2.1851661    28.132323   0.16027949 
  187200   -942.61395    46.791464   -895.82249    1675.9006    -727.1109     2.163576    26.452848    0.1567999 
  187300   -943.24766    47.355017   -895.89264     1696.085   -550.83387    2.1687845    24.612422     0.161663 
  187400   -945.09122    42.745839   -902.34538    1531.0009    3136.9758    2.1852596    25.530176    0.1800733 
  187500   -943.82895    44.205632   -899.62331    1583.2854    774.35095    2.1727752     26.13748   0.16413279 
  187600     -941.868    47.302052   -894.56594     1694.188   -2653.0699    2.1591363    28.358122   0.17452005 
  187700     -943.143     45.77245   -897.37055    1639.4032     -722.693    2.1668464    22.421099   0.17640421 
  187800   -949.49559    48.653679   -900.84191    1742.5983    2178.2848    2.1854283    24.314311     0.150163 
  187900   -941.56685    50.501642   -891.06521    1808.7857    444.63542    2.1625206    26.759987   0.15596919 
  188000   -946.85884    53.862459   -892.99639     1929.158   -3158.9872    2.1617986    25.963925   0.15424237 
  188100   -943.75484    46.526989   -897.22785     1666.428   -172.27157    2.1685685     28.84952    0.1547073 
  188200   -943.62441    44.886586   -898.73782    1607.6747    1099.4449    2.1727378     28.74237   0.17274915 
  188300   -940.11724    52.062054   -888.05519     1864.674    484.60836    2.1573544    26.582119   0.17126371 
  188400   -942.10471    47.267854   -894.83685    1692.9631    4101.2038    2.1770953    24.173439   0.15608987 
  188500   -946.78712    48.223177   -898.56394    1727.1793   -4267.7768     2.163803    26.758143   0.15422673 
  188600   -940.86464    48.290429   -892.57421    1729.5881   -1098.4773    2.1594165    24.482705   0.14880483 
  188700   -939.37731    49.922914    -889.4544    1788.0577    3810.4711    2.1693052     22.22824   0.14367448 
  188800   -945.54582    47.554063   -897.99176    1703.2141    322.91155    2.1753627     19.35141    0.1518035 
  188900   -944.00406    49.263912   -894.74015    1764.4547    -4215.929    2.1558657    7.3823789    0.1710116 
  189000   -939.00264    49.446394   -889.55625    1770.9905    2615.6133    2.1587084    10.076605   0.18203385 
  189100     -947.129     47.37935   -899.74965    1696.9565    8134.4335    2.1961975    11.164851   0.18726074 
  189200   -945.06116    49.229412   -895.83175     1763.219   -9096.8317    2.1524525    8.8536198   0.19464142 
  189300   -938.04612    45.716572   -892.32955    1637.4018   -5515.0322    2.1421297    4.3902815   0.18708428 
  189400   -946.31131    45.593642   -900.71767    1632.9989    9430.8334    2.1961649    7.9623585   0.19106718 
  189500    -943.8379    46.099792   -897.73811    1651.1274    4804.6512    2.1814092    8.1553021   0.19705059 
  189600   -943.86292    50.542843   -893.32008    1810.2613   -10536.753    2.1381238    8.5157334   0.16773033 
  189700   -947.40859    48.038418   -899.37017    1720.5619   -3364.3675    2.1676161    8.9909065    0.1765846 
  189800   -946.90983     48.39526   -898.51457    1733.3427    12404.829    2.2030467    7.5205048   0.16742975 
  189900    -939.4422    48.144859   -891.29734    1724.3743   -1522.9193    2.1543349    5.6585579   0.17448371 
  190000   -943.46952    45.576165   -897.89335    1632.3729   -9669.3102    2.1468277    24.096477   0.17890025 
  190100   -948.64734    49.768005   -898.87933    1782.5094    1018.4063     2.186415    22.794062   0.18485754 
  190200   -938.00411    48.522265   -889.48185    1737.8916     10379.97    2.1834148    22.600727   0.18639227 
  190300   -942.43927    46.115686   -896.32358    1651.6966   -4178.4288    2.1562355    24.979147    0.1750435 
  190400   -948.69307    48.421804   -900.27127    1734.2934   -9596.8696    2.1579422    24.189281   0.16998661 
  190500   -942.11671    50.653972   -891.46274    1814.2416    7963.1445    2.1819953    23.345108   0.16140724 
  190600   -943.06868    47.655158   -895.41352    1706.8349    6721.1675     2.182611    22.316163     0.165915 
  190700   -945.90235    44.827369   -901.07498    1605.5538   -4987.5439    2.1586345    22.518793   0.15210303 
  190800   -941.87667    48.187752   -893.68892    1725.9105   -1225.8125     2.166504    20.437912   0.16202724 
  190900   -944.39638    48.891928   -895.50446    1751.1315    320.06451    2.1766685     24.99666   0.17648198 
  191000   -949.59255    47.194927   -902.39763    1690.3511    262.20895    2.1834667    22.498445   0.18306438 
  191100   -942.14662    47.729839   -894.41678    1709.5097   -1569.4577    2.1623178    23.517297   0.19363681 
  191200   -939.66639    44.436034   -895.23036    1591.5376    77.452799    2.1667197    22.179229    0.1898773 
  191300   -946.10867    43.668935   -902.43974    1564.0629    4966.1595    2.1920974    22.161034   0.17043409 
  191400   -941.24128     47.80965   -893.43163    1712.3683   -1135.8446    2.1590082    25.676859     0.155903 
  191500    -944.6204    49.185334   -895.43507    1761.6403   -4614.0072    2.1589968    27.972278   0.15741017 
  191600   -948.65785    47.608649    -901.0492    1705.1691    2076.3797    2.1840436    27.707202   0.14692768 
  191700   -940.93262    47.601373   -893.33125    1704.9085    5483.9623    2.1742179    24.378552   0.17416794 
  191800   -941.09564    47.346205   -893.74943    1695.7694   -2063.8749    2.1560443    21.655274   0.16906077 
  191900   -943.94285    43.565927   -900.37692    1560.3735   -3299.9678    2.1619993    24.109058   0.17132838 
  192000   -943.02433     48.20522   -894.81911    1726.5362    6757.1396    2.1823405    24.834967   0.18493953 
  192100    -941.5362     49.93894   -891.59726    1788.6317    4585.2015    2.1683023    23.974739   0.18291571 
  192200   -948.71326    48.187564   -900.52569    1725.9038   -8462.5736    2.1557826    22.598661   0.17505474 
  192300    -944.4171    48.288669   -896.12843     1729.525    -241.8871    2.1685217     26.11286   0.15964179 
  192400   -941.64576    51.910532   -889.73523     1859.247    8818.2085    2.1822467    26.375027   0.15994174 
  192500   -945.04063     45.61179   -899.42884    1633.6489   -2698.3683     2.165829    23.251995   0.14566565 
  192600   -943.45307    45.457749   -897.99532    1628.1317   -11450.519    2.1431221      24.3746   0.16422135 
  192700   -938.91846    47.503744   -891.41471    1701.4119    7081.4292    2.1789297    21.144023   0.18905689 
  192800   -946.35199    47.076509   -899.27548    1686.1098    11227.434    2.2029365    21.882685   0.19641041 
  192900   -946.43846    45.632504   -900.80596    1634.3908   -11418.221    2.1461248    22.944588   0.17336536 
  193000   -944.34762    50.091711   -894.25591    1794.1034   -8601.8649    2.1466529    26.793973   0.18865256 
  193100   -944.24129    47.392799    -896.8485    1697.4382    9768.0157    2.1986928    26.658911   0.18009118 
  193200   -948.76598    45.720238   -903.04574    1637.5331     1625.685    2.1851866     27.17619   0.17704311 
  193300   -943.80286    50.102473   -893.70039    1794.4889   -8087.8561    2.1484381    24.049287   0.17801367 
  193400   -944.75073     49.12066   -895.63007    1759.3239    2286.5679    2.1747805    22.778536    0.1689504 
  193500   -949.64311    48.391642   -901.25147    1733.2131    2576.6667    2.1902488    21.747069   0.17285338 
  193600   -939.55279    47.631421   -891.92137    1705.9847   -4669.5713    2.1523535    20.852672    0.1831101 
  193700   -941.29408    45.455876    -895.8382    1628.0646    184.94169    2.1651254    24.860401   0.18539162 
  193800   -947.06672    47.262246   -899.80447    1692.7623    3147.5653    2.1867689    24.423173   0.17775972 
  193900   -944.13623    53.088263   -891.04797    1901.4291   -1803.0508    2.1632055    23.861531   0.17582854 
  194000   -941.98798    46.641134   -895.34685    1670.5163   -2881.2913    2.1618228    25.099561   0.15801625 
  194100    -946.9093    47.195964   -899.71333    1690.3883    903.35655    2.1761166    22.828109   0.16870492 
  194200   -944.38342    52.534515    -891.8489    1881.5958    1169.7576    2.1738517    25.394492   0.16978482 
  194300     -948.271    52.828182   -895.44282    1892.1139   -2520.6343       2.1685     22.72341    0.1721749 
  194400   -945.75971    45.025505    -900.7342    1612.6503   -3877.9275     2.166527    20.767354   0.17051705 
  194500    -941.7951    48.692934   -893.10216    1744.0043    3742.4386     2.170724     20.79116   0.16685407 
  194600   -947.37315    51.566536   -895.80661    1846.9263    4377.1132    2.1842773    23.710113   0.15783246 
  194700   -947.03282    44.930421    -902.1024    1609.2447   -5869.3828    2.1640366    25.417195   0.15220672 
  194800   -943.05272    48.082872   -894.96985    1722.1541   -4041.6265    2.1541264    25.583638    0.1581455 
  194900   -941.87376    48.516822   -893.35694    1737.6966    10735.576    2.1891164     24.05387   0.15207325 
  195000   -945.49371    43.679575   -901.81413     1564.444    5566.3703    2.1868498    22.990869   0.15432884 
  195100   -941.31833    46.615485   -894.70284    1669.5976    -8489.805    2.1358633    22.371778   0.16407264 
  195200   -949.86506     55.92316    -893.9419    2002.9648    -3990.288    2.1653994    27.418457   0.15845751 
  195300   -945.89605    46.585955    -899.3101      1668.54    11662.978     2.202187    26.445565   0.15008878 
  195400   -941.56592    47.906033   -893.65989    1715.8204   -2263.9941     2.154882     24.82364   0.15506034 
  195500   -942.67759    49.612726   -893.06486    1776.9479   -10388.586    2.1384552    24.102693   0.15153422 
  195600   -946.95893    47.844392   -899.11453    1713.6126    6426.8907     2.188076    20.121919    0.1506901 
  195700   -945.85473     48.57567   -897.27906    1739.8043    4345.2739    2.1828771    22.001393   0.14929752 
  195800   -938.96031    47.188721   -891.77159    1690.1289   -7747.7198     2.136083    25.931682   0.15614758 
  195900   -945.03117    44.242266   -900.78891    1584.5975   -23.552449     2.168874    24.997288   0.15360236 
  196000   -941.62545    44.610574   -897.01487     1597.789    7006.5028    2.1817661    23.815247   0.16189572 
  196100   -939.02612    47.048099   -891.97802    1685.0923     76.56214    2.1586324    24.972839   0.17493598 
  196200   -946.85762    45.448939   -901.40868    1627.8162   -2698.1253    2.1669902    25.897027   0.15545109 
  196300   -942.27224    44.217777   -898.05446    1583.7204    690.14473    2.1692844    25.479109   0.16969358 
  196400   -940.71271    48.526843   -892.18587    1738.0555    4981.1579    2.1675586    24.827983   0.16614784 
  196500   -943.93595    43.260671   -900.67528    1549.4404    3421.2349    2.1735042    23.592139   0.15419621 
  196600    -943.5076    45.344735   -898.16287    1624.0839   -2997.4386    2.1622772     22.97206   0.16316186 
  196700   -939.02467    46.645214   -892.37945    1670.6624     4716.946    2.1661406    25.251616   0.15964177 
  196800   -944.73847    44.789331   -899.94913    1604.1914    3331.0142    2.1777547    28.147866   0.15675837 
  196900   -943.41183    45.504077   -897.90776     1629.791   -3610.0218    2.1602915    28.981531   0.16264709 
  197000   -938.32391    45.851153   -892.47276     1642.222   -628.94984    2.1537522    24.419779   0.18204439 
  197100   -946.42069    47.035565   -899.38513    1684.6434    7393.0854    2.1902302    24.206579   0.16979059 
  197200   -945.34735    46.828546    -898.5188    1677.2287    909.61965    2.1710846    23.525082   0.16140275 
  197300   -940.06276    47.595418   -892.46735    1704.6953   -11033.709    2.1304421    26.011969   0.17279284 
  197400   -946.08745    45.569376   -900.51808    1632.1298    4848.3958    2.1860793    24.373668   0.14966585 
  197500   -947.85912    49.529396   -898.32972    1773.9634    9450.5957    2.1966053    23.200397   0.14008089 
  197600   -943.37058    49.903386   -893.46719    1787.3583   -10569.393    2.1381846    24.798622   0.16249583 
  197700   -942.95424    44.927093   -898.02714    1609.1255   -6715.0875    2.1496322    26.452527   0.15202362 
  197800   -945.80345    46.080005   -899.72344    1650.4187    11239.865     2.199671    24.504365   0.15008683 
  197900   -943.33234    50.769392   -892.56295    1818.3755    1921.1691    2.1707897     24.82663   0.17562486 
  198000   -944.44273    47.108869   -897.33387    1687.2688    -10959.21    2.1412947    26.905322   0.15629802 
  198100   -944.79731    43.909725   -900.88759    1572.6871    996.34937    2.1755147    21.787325   0.17574666 
  198200   -943.00046    51.758114   -891.24235    1853.7879    7364.5469    2.1774949    21.959794   0.16248831 
  198300   -943.24006    47.108116   -896.13195    1687.2419   -339.32836     2.161564    21.017203   0.15718025 
  198400   -946.93724    45.846708   -901.09053    1642.0628   -4288.1276    2.1626627    24.860085   0.14540731 
  198500   -941.77204    49.879546   -891.89249    1786.5045     4344.933    2.1704867    23.630083   0.13679915 
  198600   -942.43263    47.794344   -894.63828    1711.8201     3681.793    2.1783152    20.839802   0.16242041 
  198700   -945.85751    44.809276   -901.04824    1604.9058   -4318.1125    2.1669083    23.920353   0.15082512 
  198800   -942.38298    49.182616   -893.20036    1761.5429   -2291.1497    2.1597566    24.091032    0.1660682 
  198900   -938.75164    44.782467   -893.96918    1603.9456    4490.8846    2.1730772    20.363992   0.16696788 
  199000   -947.34182    47.074842   -900.26698    1686.0501   -253.89936    2.1746208    45.113673   0.18143897 
  199100   -943.24249     50.45288   -892.78961    1807.0392   -4683.2603     2.155644    52.108689   0.17869079 
  199200   -941.58361    47.156717   -894.42689    1688.9826   -3292.5729     2.160789    43.387481   0.18677685 
  199300   -944.47781     44.33274   -900.14507     1587.838    4625.4485    2.1833098    46.931055   0.19388698 
  199400   -936.67313     44.58022   -892.09291    1596.7018    2905.3699    2.1666518     38.54216   0.20171611 
  199500   -942.53955    47.416108   -895.12344     1698.273   -3798.7767    2.1561765    46.966239    0.2000082 
  199600    -946.2493    45.707298     -900.542    1637.0696   -201.91805    2.1772684    52.725707   0.18310501 
  199700   -942.62107    51.456289   -891.16478    1842.9777    3364.6599    2.1690446    47.144962   0.18672281 
  199800   -944.26948    50.086184    -894.1833    1793.9055    570.84103    2.1659379    68.462723   0.18532011 
  199900   -943.43113     42.52436   -900.90677    1523.0684   -766.34201    2.1717197    34.128805   0.17680341 
  200000   -938.43576     46.22397   -892.21179     1655.575   -1054.9921    2.1604774    37.676344   0.19336468 
  200100    -942.3888    49.680666   -892.70813    1779.3813    2106.3503    2.1738229    35.344312   0.21111613 
  200200   -945.84015     45.86511   -899.97504    1642.7219    1945.1975    2.1776248    26.207619   0.17765387 
  200300   -940.62017    48.503738   -892.11644     1737.228    184.31102    2.1631297     33.51401   0.18542909 
  200400   -940.19298    47.976179    -892.2168    1718.3328   -664.95914    2.1637318    44.230458   0.21730123 
  200500   -944.88166    45.753197   -899.12846    1638.7136   -601.28827    2.1705291    45.851222   0.18235313 
  200600    -942.9789    49.456711   -893.52219      1771.36    4260.0855    2.1771549    63.376629   0.19560801 
  200700   -942.39142    51.446031   -890.94539    1842.6102    191.43902    2.1675068    52.341801   0.20718096 
  200800   -946.09415    47.069365   -899.02478     1685.854   -5085.5596     2.160715    52.746877   0.18670353 
  200900   -941.69289    46.843474   -894.84942    1677.7634   -1479.8861    2.1647797    48.875612   0.20356306 
  201000   -939.61567    50.546476   -889.06919    1810.3914    4634.0186    2.1689662    48.258283   0.20348848 
  201100   -945.19246     45.86423   -899.32823    1642.6904    2731.5687    2.1775466    36.813827   0.17347592 
  201200   -943.81603    47.874957   -895.94107    1714.7073    -8074.774    2.1446625    35.111633   0.17358471 
  201300   -939.49325    47.991125   -891.50212    1718.8681    1070.2375    2.1611695    45.454442   0.20029267 
  201400   -946.51738     46.40324   -900.11414    1661.9958    12818.959    2.2040416     45.85042   0.18921505 
  201500   -943.50436    47.452805   -896.05155    1699.5874   -4181.3449    2.1576764      47.4675   0.19539554 
  201600   -941.24248    48.302147   -892.94033    1730.0077   -10315.008    2.1374543    44.037583   0.18949048 
  201700   -945.26392    46.625502   -898.63842    1669.9564    6254.9625    2.1914571    40.506408   0.19161307 
  201800   -947.50193    48.088962   -899.41297    1722.3722    5290.1081    2.1935534    46.087197   0.20735312 
  201900   -938.18322     46.11909   -892.06413    1651.8186   -10725.373    2.1285617    43.003801   0.19257022 
  202000   -948.90354    50.406814   -898.49672    1805.3893   -6525.0991    2.1574955    47.127633   0.16983977 
  202100   -942.37549    44.569984    -897.8055    1596.3352    12166.065    2.1952502    73.934065   0.17610959 
  202200   -940.08707    49.570167    -890.5169    1775.4236   -1882.3222    2.1537967    63.482587   0.18827573 
  202300   -944.45507    47.205765    -897.2493    1690.7393   -6573.5565    2.1493802    57.125436   0.16811558 
  202400   -941.66412    43.928877   -897.73524    1573.3731    3565.8983     2.171157    81.373679   0.16170968 
  202500   -940.87678    50.906473   -889.97031    1823.2852    4840.5575    2.1659228    81.744814   0.16685715 
  202600   -944.57685     46.18073   -898.39612    1654.0263    325.60127    2.1679153    79.363947   0.15169118 
  202700   -944.50416    45.530159     -898.974    1630.7252   -2825.9919    2.1610932    80.137325   0.14973609 
  202800   -941.28624    49.351572   -891.93467    1767.5943    2989.2778    2.1668111     76.41903   0.15949242 
  202900   -945.88957    46.287013   -899.60256     1657.833    1569.6195    2.1789362    76.286687   0.15516645 
  203000   -947.90384    47.890624   -900.01322    1715.2685   -5796.1023    2.1627997    81.492109   0.14978589 
  203100   -942.08304    48.749224   -893.33382    1746.0204     215.6452    2.1629312     79.88036    0.1492229 
  203200   -946.48319    47.300367   -899.18282    1694.1276    2729.0941     2.183516    81.708758   0.15958686 
Loop time of 141.96 on 1 procs for 200000 steps with 217 atoms

Performance: 365.174 ns/day, 0.066 hours/ns, 1408.849 timesteps/s
100.0% CPU use with 1 MPI tasks x no OpenMP threads

MPI task timing breakdown:
Section |  min time  |  avg time  |  max time  |%varavg| %total
---------------------------------------------------------------
Pair    | 136.05     | 136.05     | 136.05     |   0.0 | 95.84
Neigh   | 2.737      | 2.737      | 2.737      |   0.0 |  1.93
Comm    | 0.93265    | 0.93265    | 0.93265    |   0.0 |  0.66
Output  | 0.071776   | 0.071776   | 0.071776   |   0.0 |  0.05
Modify  | 1.8583     | 1.8583     | 1.8583     |   0.0 |  1.31
Other   |            | 0.3119     |            |       |  0.22

Nlocal:    217 ave 217 max 217 min
Histogram: 1 0 0 0 0 0 0 0 0 0
Nghost:    951 ave 951 max 951 min
Histogram: 1 0 0 0 0 0 0 0 0 0
Neighs:    4216 ave 4216 max 4216 min
Histogram: 1 0 0 0 0 0 0 0 0 0
FullNghs:  8432 ave 8432 max 8432 min
Histogram: 1 0 0 0 0 0 0 0 0 0

Total # of neighbors = 8432
Ave neighs/atom = 38.8571
Neighbor list builds = 4631
Dangerous builds = 56
Total wall time: 0:02:24
