LAMMPS (3 Mar 2020)

    # ---------- Initialize simulation ---------------------
    units metal
    atom_style atomic
    dimension  3
    boundary   p p p
    read_data /home/modeler/RemLabs/Lab4/Problem2A_size_4/temp_2100/lammps.data
  orthogonal box = (0 0 0) to (16.36 16.36 16.36)
  1 by 1 by 1 MPI processor grid
  reading atoms ...
  256 atoms
  read_data CPU = 0.000988389 secs

    pair_style eam
    pair_coeff * * /usr/share/lammps-stable/potentials/Ag_u3.eam
Reading potential file /usr/share/lammps-stable/potentials/Ag_u3.eam with DATE: 2007-06-11

    velocity  all create 2100 87287 dist gaussian

    # ---------- Describe computed properties------------------
    compute msdall all msd
    thermo_style custom step pe ke etotal temp press density c_msdall[4]
    thermo 100

    # ---------- Specify ensemble  ---------------------
    #fix  1 all nve
    fix  1 all nvt temp 2100 2100 0.25

    # --------- Compute RDF ---------------
    compute rdfall all rdf 100 1 1
    fix 2 all ave/time 1 25000 25000 c_rdfall[*] file /home/modeler/RemLabs/Lab4/Problem2A_size_4/temp_2100/lammps.rdf mode vector

    # --------- Run -------------
    timestep 0.005
    run 100000
Neighbor list info ...
  update every 1 steps, delay 10 steps, check yes
  max neighbors/atom: 2000, page size: 100000
  master list distance cutoff = 7.55
  ghost atom cutoff = 7.55
  binsize = 3.775, bins = 5 5 5
  2 neighbor lists, perpetual/occasional/extra = 1 1 0
  (1) pair eam, perpetual
      attributes: half, newton on
      pair build: half/bin/atomonly/newton
      stencil: half/bin/3d/newton
      bin: standard
  (2) compute rdf, occasional, copy from (1)
      attributes: half, newton on
      pair build: copy
      stencil: none
      bin: none
Per MPI rank memory allocation (min/avg/max) = 3.744 | 3.744 | 3.744 Mbytes
Step PotEng KinEng TotEng Temp Press Density c_msdall[4] 
       0       -729.6    69.218808   -660.38119         2100    16884.641    10.472245            0 
     100   -683.80085    45.456757    -638.3441    1379.0932     75990.83    10.472245   0.10464037 
     200   -666.22999    62.218051   -604.01194     1887.607    104469.13    10.472245   0.18758583 
     300   -655.02582    76.292805   -578.73301     2314.615    122366.15    10.472245   0.20967849 
     400   -663.52298    73.597378    -589.9256    2232.8396    109573.21    10.472245   0.16905345 
     500   -665.41146    66.761593   -598.64986    2025.4516       107594    10.472245   0.17324508 
     600   -654.30448    68.980632   -585.32385    2092.7741    121466.76    10.472245   0.20427959 
     700   -657.51749    70.636446   -586.88105    2143.0091    117271.95    10.472245   0.19873105 
     800   -662.50645    66.570568   -595.93588    2019.6562    110202.43    10.472245   0.17602265 
     900   -653.49898    66.832632   -586.66634    2027.6068    122177.63    10.472245   0.22484941 
    1000   -658.65843    72.689667   -585.96877    2205.3009    116902.57    10.472245   0.20300825 
    1100   -666.81071    70.540174   -596.27054    2140.0884    105314.37    10.472245   0.15940786 
    1200   -656.14171    65.825705     -590.316    1997.0581    118311.79    10.472245   0.20281783 
    1300   -661.46698    71.914766   -589.55221    2181.7915    112872.16    10.472245   0.16651186 
    1400   -658.05396    63.352837   -594.70112    1922.0348    114380.97    10.472245   0.17937299 
    1500   -664.26379    62.322847   -601.94095    1890.7864    107698.98    10.472245   0.17825966 
    1600   -660.73715    71.435397   -589.30176    2167.2482    114081.01    10.472245   0.20541881 
    1700   -652.80206    69.275032   -583.52703    2101.7058    123675.38    10.472245   0.21779944 
    1800   -663.44023    66.601388   -596.83884    2020.5912    108731.37    10.472245   0.14842681 
    1900   -658.82084    68.998625   -589.82222      2093.32    114613.38    10.472245   0.18597293 
    2000   -656.51286    68.128182   -588.38468     2066.912     117920.3    10.472245   0.21193772 
    2100   -659.65337    69.898798   -589.75457    2120.6299    115428.67    10.472245    0.1895374 
    2200   -663.64577    62.412909   -601.23286    1893.5187    107724.36    10.472245   0.17603372 
    2300   -656.48373    66.137391   -590.34634    2006.5142     118586.7    10.472245   0.21250416 
    2400   -657.63371    70.982131   -586.65158    2153.4967    118088.52    10.472245   0.19984398 
    2500   -661.46621    62.187536   -599.27868    1886.6812    111179.24    10.472245   0.19996148 
    2600   -659.48386    67.269371   -592.21449    2040.8569    113453.21    10.472245   0.18011575 
    2700   -659.61318    71.892699   -587.72048     2181.122    115890.46    10.472245   0.19084635 
    2800   -656.51167    74.686554   -581.82511    2265.8836    120144.55    10.472245   0.19348234 
    2900   -657.21582    65.495411    -591.7204    1987.0375    115207.75    10.472245   0.21183511 
    3000   -664.14423    72.283864   -591.86036    2192.9894    110386.22    10.472245   0.16144918 
    3100   -650.28005    71.684241   -578.59581    2174.7977    126929.01    10.472245   0.22760351 
    3200   -656.34403    72.999191   -583.34484    2214.6914    121074.27    10.472245   0.19102019 
    3300   -659.63733    69.462053   -590.17528    2107.3797    115127.05    10.472245   0.20931521 
    3400   -663.28381    69.476429   -593.80739    2107.8159    110520.17    10.472245   0.20762922 
    3500   -657.77952    68.179093   -589.60043    2068.4565    118174.78    10.472245   0.18144335 
    3600   -655.69766    75.382756    -580.3149    2287.0054     120572.4    10.472245   0.20340298 
    3700   -659.43551    65.806208    -593.6293    1996.4666    113449.17    10.472245   0.18032841 
    3800   -659.20146    71.406826   -587.79464    2166.3814    114590.78    10.472245   0.21780972 
    3900    -661.8191    74.718971   -587.10013    2266.8671    113731.26    10.472245   0.22320189 
    4000   -667.20943    69.303652   -597.90577     2102.574    104287.69    10.472245   0.16432026 
    4100   -659.30468    71.018021   -588.28666    2154.5856    116430.02    10.472245   0.19817996 
    4200   -660.65149    73.215915   -587.43557    2221.2666    115028.73    10.472245   0.18383309 
    4300   -663.35723    63.365696   -599.99153    1922.4249    109136.48    10.472245   0.17818956 
    4400    -655.1539    65.755405   -589.39849    1994.9253    120640.76    10.472245   0.19774715 
    4500   -655.08931    66.708569   -588.38074    2023.8429    120781.51    10.472245   0.18095602 
    4600    -664.2353    62.275029   -601.96027    1889.3357    106566.57    10.472245   0.17915429 
    4700   -661.53236    67.522698   -594.00966    2048.5425    113067.86    10.472245    0.1788934 
    4800   -657.71284    70.024111   -587.68873    2124.4317    117128.23    10.472245   0.19656894 
    4900   -656.46167    68.623737   -587.83793    2081.9464    118679.07    10.472245    0.1969006 
    5000   -662.45367    64.813742   -597.63993    1966.3566    109899.78    10.472245   0.18876877 
    5100    -656.9248    70.806849   -586.11795    2148.1789    118879.49    10.472245   0.18334349 
    5200   -656.54465    69.121195   -587.42346    2097.0386    118670.11    10.472245   0.18568469 
    5300   -667.88046    69.822684   -598.05778    2118.3208    103427.78    10.472245     0.179777 
    5400   -663.64295    60.192659   -603.45029    1826.1595    107386.01    10.472245   0.18341148 
    5500   -662.50436     74.45649   -588.04787    2258.9038    111659.77    10.472245    0.1701007 
    5600   -656.22207    70.895083   -585.32698    2150.8558     118839.2    10.472245   0.19071343 
    5700   -663.35419    68.143283    -595.2109    2067.3701    110785.16    10.472245   0.21247569 
    5800    -654.1326     70.17139   -583.96121       2128.9    121766.67    10.472245    0.2304369 
    5900   -657.26707    71.554274    -585.7128    2170.8547    118101.98    10.472245   0.19862678 
    6000   -662.31855    68.164129   -594.15442    2068.0025    111138.66    10.472245   0.17707675 
    6100   -661.53633    71.869906   -589.66642    2180.4305    112936.51    10.472245    0.1927745 
    6200   -654.49976    71.950716   -582.54904    2182.8822    122617.03    10.472245   0.22336237 
    6300   -662.30713    67.494686   -594.81245    2047.6926    111687.66    10.472245   0.16649337 
    6400   -660.20246     67.14133   -593.06113    2036.9723    114202.22    10.472245   0.19009404 
    6500   -653.18528    70.159678    -583.0256    2128.5447    125135.46    10.472245   0.19834155 
    6600   -663.18162    66.106078   -597.07554    2005.5642    109890.22    10.472245   0.16118977 
    6700   -659.30862    69.498447   -589.81017    2108.4839       116399    10.472245   0.19341133 
    6800   -659.43803    72.246249   -587.19178    2191.8483    115744.78    10.472245   0.19942419 
    6900   -663.07355     63.18918   -599.88437    1917.0697    109728.58    10.472245   0.18110356 
    7000   -657.18742    62.105884   -595.08153     1884.204    116916.74    10.472245   0.19381708 
    7100   -662.48016    73.511058    -588.9691    2230.2208    112184.39    10.472245   0.17811547 
    7200   -658.00998    65.085167   -592.92482    1974.5912     116590.6    10.472245   0.23616661 
    7300   -653.57709    63.937686    -589.6394    1939.7783    122308.52    10.472245   0.23129971 
    7400   -656.81663    72.040068   -584.77656     2185.593    117970.98    10.472245   0.22622331 
    7500   -663.07226    65.190527   -597.88174    1977.7877       109807    10.472245   0.18509226 
    7600   -663.15356    72.329106   -590.82445     2194.362    110934.82    10.472245    0.1663637 
    7700   -655.12633     72.00856   -583.11777    2184.6371    121350.43    10.472245   0.21192826 
    7800   -653.27434    71.626825   -581.64751    2173.0558    124419.18    10.472245   0.20823815 
    7900   -659.99996    66.306806   -593.69316     2011.654    112998.75    10.472245   0.18376553 
    8000   -659.44705    71.546165   -587.90089    2170.6087    115068.05    10.472245    0.1809404 
    8100   -650.73795    67.586917   -583.15104    2050.4908    127346.26    10.472245   0.23976065 
    8200    -656.4085    65.988717   -590.41978    2002.0037    117972.03    10.472245   0.20644805 
    8300   -663.01429    72.473814   -590.54047    2198.7523    113030.53    10.472245   0.18291946 
    8400   -657.36866    68.071756   -589.29691    2065.2001    118636.93    10.472245   0.18314718 
    8500   -657.53703    74.209146   -583.32789    2251.3998     117407.4    10.472245   0.18932419 
    8600   -662.01098    66.829555   -595.18142    2027.5135    110435.29    10.472245   0.17860906 
    8700   -660.16272    69.007566   -591.15515    2093.5912    115036.32    10.472245     0.198216 
    8800   -654.34555    68.570513   -585.77504    2080.3317    122207.64    10.472245   0.19474627 
    8900   -654.88119    63.895715   -590.98547    1938.5049    120393.57    10.472245    0.2024828 
    9000   -661.69844    67.246401   -594.45204      2040.16    110996.07    10.472245   0.18252762 
    9100   -659.24075    74.199555   -585.04119    2251.1088    116951.96    10.472245   0.21264369 
    9200   -655.77199    72.518531   -583.25345    2200.1089    122304.75    10.472245   0.21107136 
    9300   -660.40848    66.560494   -593.84798    2019.3505    114191.23    10.472245   0.21306503 
    9400   -657.56832     72.58437   -584.98395    2202.1064    118539.76    10.472245   0.17120721 
    9500   -657.45484    60.892126   -596.56271    1847.3803    115874.99    10.472245   0.20127582 
    9600   -658.85412    68.175129   -590.67899    2068.3363    116874.55    10.472245   0.16599397 
    9700   -656.34638    69.144773   -587.20161    2097.7539    119062.92    10.472245   0.19970919 
    9800   -656.11819    65.724721   -590.39347    1993.9944    119304.68    10.472245   0.19551442 
    9900   -658.98662    62.651454   -596.33516    1900.7559    114123.42    10.472245   0.20062067 
   10000   -657.80625    74.467574   -583.33867    2259.2401     118416.5    10.472245   0.20207714 
   10100   -654.54842    66.644402   -587.90402    2021.8962    120181.56    10.472245    0.2172774 
   10200   -663.24141    62.351091   -600.89032    1891.6433    108831.49    10.472245   0.16602005 
   10300   -659.50812    74.030725    -585.4774    2245.9867    115982.06    10.472245   0.18932633 
   10400   -657.37971    68.131574   -589.24813    2067.0149    119393.19    10.472245   0.20682204 
   10500   -658.35784    63.280391   -595.07745    1919.8369    115574.27    10.472245   0.19868508 
   10600   -654.49168    70.410811   -584.08087    2136.1637    122327.38    10.472245   0.19544582 
   10700   -660.79582    72.095226   -588.70059    2187.2664    113913.01    10.472245   0.19167747 
   10800   -659.90078    66.058206   -593.84257    2004.1119    114154.71    10.472245   0.18036023 
   10900   -655.48066    69.720942   -585.75971     2115.234    121575.66    10.472245   0.17862578 
   11000   -660.23438    66.411677    -593.8227    2014.8357    112217.15    10.472245   0.19728779 
   11100    -664.3631    70.797927   -593.56517    2147.9082    109500.38    10.472245   0.17436979 
   11200   -657.11167    69.963486   -587.14819    2122.5925    118868.69    10.472245    0.1941679 
   11300   -662.54007     70.44354   -592.09653    2137.1566    111867.39    10.472245   0.15634086 
   11400   -662.15486    59.468017   -602.68685    1804.1749     109221.4    10.472245   0.18709629 
   11500   -659.00844    70.978745    -588.0297     2153.394    116081.43    10.472245   0.18983834 
   11600   -651.90333    64.787427    -587.1159    1965.5582    122360.64    10.472245   0.23183773 
   11700   -658.63603    60.316065   -598.31996    1829.9035    113886.43    10.472245   0.19015732 
   11800   -655.75153    65.750258   -590.00128    1994.7691    117466.78    10.472245   0.18628551 
   11900   -658.44232    71.160263   -587.28206     2158.901    114529.87    10.472245   0.20208939 
   12000   -664.65653    68.804663   -595.85187    2087.4354    107251.55    10.472245   0.18476662 
   12100    -666.2585    81.598168   -584.66033    2475.5722    108600.12    10.472245   0.15689995 
   12200   -660.68621    70.829894   -589.85632    2148.8781    114772.37    10.472245   0.18573582 
   12300   -661.64172    66.699208   -594.94252    2023.5589    112407.51    10.472245   0.18604121 
   12400   -655.26067    72.964192   -582.29648    2213.6296    119954.87    10.472245   0.20360292 
   12500   -660.55983    68.506629    -592.0532    2078.3935    113105.85    10.472245   0.17716244 
   12600   -663.70197    72.579542   -591.12243    2201.9599    110221.19    10.472245   0.18203621 
   12700   -655.88605    74.053514   -581.83254    2246.6781    121786.02    10.472245   0.20398591 
   12800   -660.31972    68.593168   -591.72656     2081.019    115344.69    10.472245   0.18912502 
   12900   -654.45821    63.762504   -590.69571    1934.4635     119127.4    10.472245   0.19446182 
   13000   -661.49844    72.402438     -589.096    2196.5868    114856.66    10.472245   0.18740756 
   13100   -661.52479    71.997566   -589.52722    2184.3036    114773.17    10.472245   0.18697935 
   13200   -664.94705    73.005024   -591.94203    2214.8684    109310.02    10.472245   0.16987387 
   13300     -662.132    63.427579   -598.70442    1924.3024    111056.07    10.472245   0.18993927 
   13400   -652.98742    66.258802   -586.72862    2010.1977     123164.3    10.472245   0.24207125 
   13500   -656.40241    67.785872   -588.61654    2056.5268    118864.65    10.472245   0.20052343 
   13600   -665.08078     65.02651   -600.05427    1972.8117    108113.38    10.472245   0.15432408 
   13700   -662.57432    71.250479   -591.32384     2161.638    111390.08    10.472245   0.17808495 
   13800   -657.49392    70.731939   -586.76198    2145.9063    117630.19    10.472245   0.22355981 
   13900   -655.33867    76.019935   -579.31874    2306.3365    120676.56    10.472245   0.22051256 
   14000   -651.97841    60.228057   -591.75035    1827.2334    121641.17    10.472245   0.22084546 
   14100   -658.55269    65.923583    -592.6291    2000.0276    115572.85    10.472245   0.17763447 
   14200   -651.98678    71.372146   -580.61463    2165.3292    125914.21    10.472245    0.2168575 
   14300   -663.38411    73.186891   -590.19722     2220.386     112342.1    10.472245   0.16940938 
   14400   -658.51465    67.667421   -590.84722    2052.9332     114510.2    10.472245   0.21677236 
   14500    -658.3128    76.443367   -581.86944    2319.1828    118768.88    10.472245   0.24755685 
   14600   -650.35659    68.872604   -581.48399    2089.4967     125968.3    10.472245   0.24654671 
   14700   -659.80163    68.221366   -591.58026    2069.7391    114234.06    10.472245   0.19933405 
   14800   -656.11449    67.277732   -588.83676    2041.1105    118260.01    10.472245   0.20017827 
   14900   -654.92632    73.384853   -581.54147    2226.3919    121591.23    10.472245   0.18882128 
   15000   -665.03289    72.208343   -592.82455    2190.6982    110086.82    10.472245   0.17108627 
   15100   -655.10967    66.398825   -588.71085    2014.4458    119045.49    10.472245    0.2098245 
   15200   -650.44063    72.376897   -578.06373    2195.8119    127197.11    10.472245   0.25939796 
   15300   -658.40744    66.376842    -592.0306    2013.7788    115660.74    10.472245   0.18853401 
   15400   -656.28149    62.743185   -593.53831    1903.5388    118499.99    10.472245   0.16866561 
   15500   -658.18975    76.032561   -582.15719    2306.7196    116742.88    10.472245   0.19615528 
   15600   -661.03435    65.755575   -595.27877    1994.9304     111653.3    10.472245   0.20096513 
   15700   -660.95393    70.374914   -590.57902    2135.0746    110938.72    10.472245    0.1827351 
   15800   -652.35461    68.618159   -583.73646    2081.7772    124542.62    10.472245   0.22379237 
   15900   -658.89495    61.765798   -597.12915    1873.8863    113394.99    10.472245   0.20046015 
   16000   -659.26059     69.46802   -589.79256    2107.5608    115812.76    10.472245   0.19749064 
   16100    -657.7314    70.319164   -587.41224    2133.3832    117970.47    10.472245   0.20454571 
   16200   -665.02304    65.613043   -599.40999    1990.6062    106486.68    10.472245   0.17285024 
   16300   -659.19307    70.093875    -589.0992    2126.5483    114922.88    10.472245    0.2101342 
   16400   -657.31611    69.899507   -587.41661    2120.6514    118328.58    10.472245     0.209658 
   16500   -660.98737    61.932545   -599.05483    1878.9452    110912.32    10.472245   0.17884735 
   16600   -659.78904    71.808291   -587.98074    2178.5612    117027.93    10.472245   0.20386217 
   16700   -659.89766    69.486092   -590.41157     2108.109    115465.84    10.472245   0.17755473 
   16800   -664.73393    66.256556   -598.47737    2010.1295    107640.49    10.472245   0.16178733 
   16900   -656.60497    73.278027   -583.32695    2223.1509    119490.57    10.472245   0.19044593 
   17000   -657.04178    65.554039   -591.48774    1988.8161    116554.02    10.472245   0.21716453 
   17100   -663.67377    72.107014   -591.56676    2187.6241    109001.43    10.472245   0.18196309 
   17200   -652.61513    74.353291   -578.26184    2255.7729    124997.67    10.472245   0.25332015 
   17300    -658.0506    68.350755   -589.69985    2073.6645    116717.29    10.472245   0.22085851 
   17400    -658.6395     65.84839   -592.79111    1997.7463    115646.39    10.472245   0.20454046 
   17500   -656.61812    68.095547   -588.52257    2065.9219    119287.47    10.472245   0.19591709 
   17600   -656.79572    71.320766   -585.47496    2163.7704       119581    10.472245   0.20697428 
   17700   -664.94861     67.95042   -596.99819    2061.5189    106748.64    10.472245   0.18819708 
   17800   -654.31219    64.656864   -589.65533    1961.5971    120563.57    10.472245   0.23110877 
   17900   -654.98844    66.059669   -588.92877    2004.1562    119992.75    10.472245    0.2387858 
   18000    -655.7812    70.812442   -584.96875    2148.3486    118511.47    10.472245   0.20756854 
   18100   -656.54772    65.305591   -591.24213    1981.2786    117509.08    10.472245   0.19860544 
   18200   -662.01273    66.611369   -595.40136     2020.894    110718.59    10.472245   0.16647509 
   18300   -659.24383    77.578773   -581.66505    2353.6294    117732.64    10.472245   0.19072347 
   18400   -660.72251    71.332311    -589.3902    2164.1207    114107.76    10.472245   0.18305264 
   18500   -661.52502    68.066959   -593.45806    2065.0546    111637.31    10.472245   0.20619616 
   18600   -657.12138    65.872486    -591.2489    1998.4774    118624.48    10.472245   0.19720396 
   18700   -658.93795    70.033494   -588.90446    2124.7164    117063.89    10.472245   0.18194776 
   18800   -660.09075    69.791501   -590.29925    2117.3747    113227.78    10.472245   0.17296251 
   18900   -664.01303    67.567567   -596.44546    2049.9037    109650.04    10.472245   0.17404474 
   19000   -660.02275    75.200257   -584.82249    2281.4686    115559.79    10.472245   0.17029808 
   19100   -655.45475    65.022518   -590.43223    1972.6905    120744.18    10.472245   0.23388764 
   19200   -664.72839    65.363325   -599.36506    1983.0301    107142.29    10.472245   0.18342758 
   19300   -662.35737    65.245067    -597.1123    1979.4424    108099.36    10.472245   0.19147422 
   19400   -655.88343    69.434144   -586.44928     2106.533    118762.34    10.472245   0.21030759 
   19500   -660.14517    73.278989   -586.86618    2223.1801    115434.32    10.472245    0.1752147 
   19600   -662.80371    67.841995   -594.96172    2058.2295    109750.84    10.472245   0.19769909 
   19700   -656.19326    70.536078   -585.65718    2139.9641    121415.33    10.472245   0.23691364 
   19800   -655.09324    71.214778   -583.87846    2160.5549    123125.18    10.472245   0.24464742 
   19900   -657.15615     67.43578   -589.72037    2045.9055    117125.18    10.472245   0.20737881 
   20000   -661.27073    63.093219   -598.17751    1914.1584    111643.86    10.472245   0.20644866 
   20100   -657.58244    71.228724   -586.35372     2160.978    117713.14    10.472245   0.17120178 
   20200   -659.95574    69.267477   -590.68826    2101.4766    115370.08    10.472245   0.18251114 
   20300   -662.82875    67.805593   -595.02315    2057.1251    109714.62    10.472245   0.19084595 
   20400   -656.83354    74.663921   -582.16962     2265.197    119107.17    10.472245   0.23261568 
   20500   -658.82369     65.78538   -593.03831    1995.8347    114934.75    10.472245   0.20208448 
   20600   -656.92848    65.110479     -591.818    1975.3592    117880.85    10.472245   0.18625747 
   20700   -650.57589     68.40825   -582.16764    2075.4088    126666.37    10.472245   0.23427952 
   20800   -653.25647    71.417071    -581.8394    2166.6922    124174.83    10.472245   0.22641256 
   20900   -660.43896    68.019022   -592.41994    2063.6002    113865.53    10.472245   0.17992911 
   21000   -660.48618    68.525829   -591.96035     2078.976    113089.93    10.472245   0.17835671 
   21100   -653.25644    73.455134   -579.80131    2228.5241    124494.36    10.472245   0.24827971 
   21200    -658.4902    69.572862   -588.91733    2110.7415    115956.26    10.472245    0.1884017 
   21300    -659.7536    69.148662   -590.60494    2097.8719    113831.54    10.472245   0.17436181 
   21400   -662.27216    70.233308   -592.03885    2130.7785    112349.13    10.472245   0.19109881 
   21500    -659.9931    67.580236   -592.41287    2050.2881    114719.85    10.472245   0.19246313 
   21600   -655.69853    72.704006   -582.99452    2205.7359    122178.71    10.472245    0.1851397 
   21700   -662.70423    69.239529    -593.4647    2100.6286    111599.58    10.472245   0.16384888 
   21800   -663.51855    71.074458    -592.4441    2156.2978    110250.93    10.472245   0.18007303 
   21900   -656.63716    70.523933   -586.11323    2139.5957       118846    10.472245   0.21405645 
   22000   -666.51281    67.572897   -598.93992    2050.0654    106472.76    10.472245   0.15100623 
   22100   -664.00659    69.294277   -594.71231    2102.2896       109011    10.472245   0.17915258 
   22200   -663.34637    76.256972    -587.0894    2313.5279    112011.03    10.472245   0.19357793 
   22300   -657.46883    64.436672   -593.03215    1954.9168    117019.57    10.472245   0.22299206 
   22400   -661.67897    65.506458   -596.17252    1987.3726    112383.02    10.472245   0.20648008 
   22500   -654.22768    67.095027   -587.13265    2035.5675    120831.05    10.472245   0.19449868 
   22600   -661.01006    67.915336   -593.09472    2060.4545    113086.89    10.472245   0.19573527 
   22700   -669.04692     72.42701   -596.61991    2197.3323    103014.44    10.472245   0.15615819 
   22800   -651.10961    67.170656   -583.93895     2037.862    124688.56    10.472245   0.21915466 
   22900   -665.51839     73.00415   -592.51424    2214.8419    107926.89    10.472245   0.16540747 
   23000   -665.34416    71.991086   -593.35307     2184.107    108060.09    10.472245   0.19788971 
   23100   -658.12396    70.783629   -587.34033    2147.4744    118414.91    10.472245    0.1973971 
   23200   -662.71157    67.096768    -595.6148    2035.6203    109625.52    10.472245    0.1747347 
   23300   -661.26015    66.567763   -594.69239    2019.5711    111546.86    10.472245    0.1869751 
   23400   -659.52663    71.386712   -588.13992    2165.7711    115011.92    10.472245   0.17621135 
   23500   -663.28988    72.095054   -591.19483    2187.2612    109667.76    10.472245   0.16022792 
   23600    -666.6713    66.446945   -600.22435    2015.9056    105800.31    10.472245   0.14158878 
   23700    -657.4775      69.4006    -588.0769    2105.5153    116453.03    10.472245   0.16388194 
   23800   -658.05959     67.57157   -590.48802    2050.0252    115033.65    10.472245   0.18682584 
   23900   -666.08947    64.386521   -601.70295    1953.3953    104577.21    10.472245   0.18090829 
   24000   -661.07491    69.929379   -591.14553    2121.5577    113177.12    10.472245   0.18195984 
   24100   -657.83293    69.896669   -587.93626    2120.5653     117620.2    10.472245   0.20315621 
   24200   -657.04195     62.73043   -594.31152    1903.1519    115376.32    10.472245   0.18483759 
   24300    -661.0709    64.684133   -596.38677    1962.4244    110911.54    10.472245   0.16925996 
   24400   -656.51055     70.81188   -585.69867    2148.3315    119486.98    10.472245   0.19931856 
   24500   -666.67933     71.90837   -594.77096    2181.5975    106794.21    10.472245   0.16825407 
   24600   -656.39988    63.594802   -592.80508    1929.3757    116594.62    10.472245   0.20693649 
   24700   -651.67449    65.080144   -586.59434    1974.4388    124281.19    10.472245   0.24177373 
   24800   -668.27718    73.686537   -594.59065    2235.5446    104490.61    10.472245   0.17051124 
   24900   -659.04558    72.524543   -586.52104    2200.2913    117438.77    10.472245   0.20124583 
   25000   -655.94815    71.166868   -584.78128    2159.1014    120787.05    10.472245   0.17876849 
   25100    -660.9325    69.280249   -591.65225    2101.8641    112457.95    10.472245   0.19900247 
   25200   -657.19573    69.392143   -587.80359    2105.2587    117565.84    10.472245   0.19399252 
   25300   -651.56017    64.178059   -587.38211    1947.0709    124564.85    10.472245   0.21563847 
   25400   -657.12916    61.970582   -595.15858    1880.0992    115999.81    10.472245   0.19068167 
   25500   -660.15119    67.884189     -592.267    2059.5096    112958.35    10.472245   0.19405948 
   25600   -657.63493    73.740733    -583.8942    2237.1888    118073.87    10.472245   0.18688253 
   25700   -662.73037    68.574172    -594.1562    2080.4427     111204.8    10.472245   0.21766116 
   25800   -661.80951    73.398878   -588.41063    2226.8174     112776.9    10.472245   0.21346354 
   25900   -656.10409    67.091076   -589.01302    2035.4477    119037.05    10.472245   0.19442974 
   26000   -661.14922    66.958659   -594.19056    2031.4303    112574.12    10.472245   0.20473464 
   26100   -659.36003    68.436086   -590.92394    2076.2533    114445.72    10.472245   0.19123857 
   26200   -658.41833    73.510198   -584.90813    2230.1947    116831.95    10.472245   0.21971115 
   26300   -664.83196    68.463998   -596.36797    2077.1002    107782.64    10.472245   0.18290434 
   26400   -663.70009    73.276208   -590.42388    2223.0957    110236.11    10.472245   0.18602466 
   26500   -659.52772    72.101978   -587.42574    2187.4713    116390.18    10.472245   0.18646086 
   26600   -661.25566    66.579162    -594.6765    2019.9169    112264.53    10.472245   0.16566082 
   26700   -664.29285    60.898628   -603.39422    1847.5776    107619.08    10.472245   0.17032303 
   26800   -658.80148    70.133605   -588.66787    2127.7536    116301.67    10.472245   0.19042244 
   26900   -660.74921    74.151065   -586.59814    2249.6377    112494.97    10.472245   0.19168561 
   27000    -665.0769    69.082411   -595.99449    2095.8619    109401.49    10.472245   0.16819382 
   27100   -663.28819    69.590602   -593.69759    2111.2797    109433.78    10.472245   0.18573345 
   27200   -651.56626     65.60127   -585.96499    1990.2491    123365.82    10.472245   0.23302814 
   27300   -662.30333    66.646573   -595.65676    2021.9621    110204.86    10.472245   0.17526308 
   27400   -659.93701    64.551997   -595.38502    1958.4156    112402.24    10.472245   0.21003795 
   27500   -658.35012    70.382577   -587.96754    2135.3071     115746.2    10.472245   0.23798951 
   27600   -655.34872    72.580042   -582.76868    2201.9751    121068.38    10.472245   0.22999601 
   27700   -667.45134    72.444557   -595.00678    2197.8646    106669.03    10.472245   0.15354729 
   27800   -659.42921    67.836431   -591.59278    2058.0607    116159.22    10.472245   0.19509403 
   27900   -656.12427    68.526988   -587.59728    2079.0112    119569.95    10.472245   0.21506948 
   28000    -658.2146    65.745655   -592.46894    1994.6295    115407.55    10.472245   0.20058422 
   28100   -662.97567    65.650211   -597.32546    1991.7339    110624.48    10.472245   0.18653889 
   28200   -655.13879    68.719658   -586.41913    2084.8565    122058.27    10.472245   0.20664088 
   28300    -660.6682     69.96377   -590.70443    2122.6011    114307.17    10.472245    0.1872352 
   28400   -663.38081    67.447934   -595.93288    2046.2742    110463.88    10.472245   0.17272487 
   28500   -661.53433    73.165103   -588.36923     2219.725     113392.7    10.472245    0.1648493 
   28600   -657.70101    68.657103   -589.04391    2082.9587    116657.89    10.472245   0.19934587 
   28700   -659.05801     69.98157   -589.07644    2123.1411    116274.06    10.472245   0.19391936 
   28800   -661.18756    70.343146   -590.84442    2134.1108    112989.06    10.472245   0.22021674 
   28900    -657.3331    74.639277   -582.69382    2264.4493    119755.75    10.472245   0.20876889 
   29000   -656.65989    65.023462   -591.63643    1972.7192    116359.66    10.472245   0.17201606 
   29100    -662.8666    67.914047   -594.95255    2060.4154     111122.7    10.472245   0.15905199 
   29200   -656.31763    71.499276   -584.81835    2169.1862     119302.5    10.472245   0.22292014 
   29300   -650.70773    75.289875   -575.41786    2284.1875    126961.11    10.472245   0.24389197 
   29400   -656.43239    69.447571   -586.98481    2106.9403    119118.29    10.472245   0.19905324 
   29500   -664.39813    68.388383   -596.00974    2074.8061    107396.26    10.472245   0.19197287 
   29600   -656.93559    72.852222   -584.08337    2210.2326    119147.78    10.472245   0.19865684 
   29700    -655.3549     67.47722   -587.87768    2047.1627    119978.07    10.472245   0.24672471 
   29800    -663.9561    74.292873   -589.66323    2253.9399    109718.67    10.472245   0.19180489 
   29900   -659.74675    65.918783   -593.82797     1999.882    114123.32    10.472245    0.1795299 
   30000   -661.38507    73.293983   -588.09108     2223.635    113636.76    10.472245   0.18065966 
   30100   -657.25728    78.266281     -578.991    2374.4874    119285.71    10.472245   0.22658553 
   30200   -657.58817      66.0083   -591.57987    2002.5978    116715.23    10.472245   0.21410964 
   30300   -658.45304    67.615893   -590.83715    2051.3699    117178.75    10.472245   0.20960543 
   30400   -658.79303    77.102127   -581.69091    2339.1687    117233.29    10.472245   0.24997688 
   30500   -661.86761    67.611145   -594.25647    2051.2258    111050.99    10.472245   0.18142932 
   30600   -659.40275    68.457897   -590.94486    2076.9151    116263.58    10.472245   0.18271739 
   30700   -655.68067    70.928031   -584.75264    2151.8554    118127.23    10.472245   0.20939402 
   30800   -665.49902    74.094792   -591.40423    2247.9304     108108.4    10.472245   0.17406294 
   30900   -659.89182    69.998017    -589.8938    2123.6401    114624.85    10.472245    0.1812782 
   31000   -660.16448    69.290349   -590.87413    2102.1705    114198.35    10.472245   0.18323889 
   31100   -664.54416    69.421442   -595.12272    2106.1476    107795.17    10.472245   0.15915785 
   31200   -660.44149    75.028832   -585.41266    2276.2679    114333.77    10.472245   0.18560286 
   31300    -660.3107    69.073129   -591.23757    2095.5803    114261.67    10.472245   0.20679508 
   31400   -664.76883    70.660049   -594.10878    2143.7252    107888.93    10.472245   0.16067431 
   31500   -659.51496    72.746409   -586.76856    2207.0224     115923.7    10.472245   0.18892594 
   31600   -662.13357    66.891493   -595.24208    2029.3926    111243.07    10.472245   0.17147399 
   31700   -660.96989    67.067573   -593.90232    2034.7346    111554.08    10.472245   0.17386043 
   31800   -658.66895    72.324877   -586.34407    2194.2337    115345.78    10.472245   0.19402709 
   31900   -658.96768    62.698996   -596.26868    1902.1982     113245.5    10.472245   0.24266557 
   32000   -665.81424    66.889907   -598.92433    2029.3445     105847.4    10.472245   0.16175485 
   32100   -657.61552    71.915089   -585.70043    2181.8013    118317.78    10.472245   0.19489561 
   32200   -656.25448    65.252487     -591.002    1979.6675    118098.49    10.472245   0.21520117 
   32300   -663.82904    64.309231   -599.51981    1951.0504    107451.29    10.472245   0.17236873 
   32400   -659.59919    70.170909   -589.42828    2128.8854    116683.87    10.472245   0.17309456 
   32500   -659.37618    72.854553   -586.52163    2210.3033    114665.98    10.472245   0.22074705 
   32600   -662.05061    66.733093   -595.31752     2024.587    109272.22    10.472245   0.21007905 
   32700   -659.23912    67.148456   -592.09067    2037.1885    113751.46    10.472245   0.20317017 
   32800   -656.06608    71.478198   -584.58788    2168.5467    120773.91    10.472245   0.20947092 
   32900   -659.74716    67.531794   -592.21536    2048.8184    114214.92    10.472245   0.21644917 
   33000   -658.79452    69.117884   -589.67664    2096.9381    115912.11    10.472245   0.20805657 
   33100   -657.72697    74.564934   -583.16203    2262.1939    117553.86    10.472245   0.18551616 
   33200   -660.94739    67.268187   -593.67921     2040.821    111158.61    10.472245   0.19977623 
   33300   -653.98628    66.091864   -587.89441     2005.133    119808.42    10.472245   0.21797454 
   33400   -654.95086    78.822457    -576.1284     2391.361     123595.1    10.472245   0.22371379 
   33500   -661.16042    73.286457   -587.87396    2223.4067    113520.49    10.472245    0.1832179 
   33600    -661.9277    68.148956   -593.77875    2067.5422    111717.05    10.472245    0.1594155 
   33700   -655.47111    73.986538   -581.48457    2244.6461    121487.97    10.472245   0.20964373 
   33800   -656.30383     68.07693    -588.2269    2065.3571    117785.16    10.472245   0.22717218 
   33900   -656.58198    66.168164   -590.41381    2007.4478    117483.43    10.472245   0.20552092 
   34000    -656.2641    74.552026   -581.71207    2261.8022    119146.21    10.472245   0.18121452 
   34100   -660.22602    70.097195   -590.12882     2126.649    113445.05    10.472245   0.18118061 
   34200   -661.89298    69.391956   -592.50102    2105.2531    112930.92    10.472245   0.18926911 
   34300   -649.01396    67.753153    -581.2608    2055.5341     128384.6    10.472245   0.24993518 
   34400   -659.55734    68.998725   -590.55861     2093.323    114647.35    10.472245   0.20477026 
   34500   -662.62038    69.284633   -593.33574     2101.997    109774.89    10.472245   0.20403549 
   34600   -654.18818    68.997769   -585.19041     2093.294    121543.86    10.472245   0.20249066 
   34700   -662.17836    65.151969   -597.02639    1976.6179    109330.57    10.472245   0.17299388 
   34800   -657.76157      66.2192   -591.54237    2008.9962    116332.95    10.472245   0.17915296 
   34900   -661.34865      72.9272   -588.42145    2212.5073    113097.68    10.472245   0.19512452 
   35000   -659.96077    68.213813   -591.74696    2069.5099    114303.28    10.472245    0.1830356 
   35100   -665.81235    65.087278   -600.72507    1974.6553    106209.36    10.472245   0.15000021 
   35200   -659.92493    71.605858   -588.31907    2172.4197    115485.16    10.472245   0.19274893 
   35300   -659.84861     69.09444   -590.75417    2096.2269    112473.67    10.472245   0.20407925 
   35400     -661.011    61.049197    -599.9618    1852.1456    108698.93    10.472245   0.22563364 
   35500   -654.05646    67.676957    -586.3795    2053.2225    123696.05    10.472245   0.22062751 
   35600   -663.13383    73.670758   -589.46307    2235.0658    110791.04    10.472245    0.1645213 
   35700   -661.76769    66.031347   -595.73635     2003.297     112269.8    10.472245   0.16817624 
   35800   -660.33747    70.113597   -590.22388    2127.1466    112413.82    10.472245   0.18125338 
   35900   -657.50893    67.851636    -589.6573     2058.522    116013.55    10.472245   0.19448294 
   36000   -665.47122    65.280279   -600.19094    1980.5106     105983.4    10.472245   0.16157985 
   36100   -656.67011    67.666086   -589.00402    2052.8926    118821.99    10.472245   0.20242295 
   36200    -656.5233    68.337026   -588.18627     2073.248    119466.98    10.472245   0.22531926 
   36300   -658.91452    65.519083   -593.39544    1987.7556    114089.45    10.472245   0.21595396 
   36400   -663.87764    71.121025   -592.75662    2157.7106    108791.33    10.472245   0.19851469 
   36500   -657.96827    75.586351   -582.38192    2293.1822    118344.86    10.472245   0.23065863 
   36600   -663.58105    71.989859   -591.59119    2184.0698    109757.54    10.472245   0.17816453 
   36700   -661.95475    70.793972   -591.16077    2147.7882    111914.26    10.472245    0.1714834 
   36800   -657.30004    73.411348   -583.88869    2227.1957    119804.16    10.472245   0.20539577 
   36900   -659.34985    73.585525   -585.76433      2232.48    117126.39    10.472245   0.21934762 
   37000   -664.34403    72.158577   -592.18545    2189.1884    109551.76    10.472245   0.17316354 
   37100   -654.88964    70.778687   -584.11095    2147.3245    121758.61    10.472245   0.17447664 
   37200   -658.81649    71.782629   -587.03386    2177.7827    116952.93    10.472245   0.19135992 
   37300   -660.11436    65.487616   -594.62674     1986.801    112512.09    10.472245   0.19527603 
   37400    -656.0287    72.779631   -583.24907    2208.0303    119550.14    10.472245   0.25210106 
   37500   -654.54123    69.482159   -585.05907    2107.9897    120681.95    10.472245   0.21594391 
   37600    -657.0326    68.482185   -588.55042    2077.6519    118643.31    10.472245   0.21020391 
   37700   -656.60485    65.865442   -590.73941    1998.2637     118535.9    10.472245   0.21833934 
   37800   -663.55251     67.79518   -595.75733    2056.8092    108467.35    10.472245   0.18103777 
   37900    -660.1249    75.184404    -584.9405    2280.9877    115095.34    10.472245   0.19103468 
   38000   -656.86436    68.632598   -588.23176    2082.2152     119563.5    10.472245   0.18572713 
   38100   -657.52162    61.628133   -595.89349    1869.7097     116098.5    10.472245   0.19095454 
   38200   -653.65455    65.421024   -588.23352    1984.7807     121784.3    10.472245   0.20091548 
   38300   -653.04281     68.13078   -584.91203    2066.9908    123124.93    10.472245    0.2095346 
   38400   -662.72428    68.406834   -594.31744    2075.3659    110695.25    10.472245   0.17794742 
   38500   -661.44025    69.546752   -591.89349    2109.9494    110761.29    10.472245   0.18115734 
   38600   -656.10131    74.902594   -581.19871     2272.438    119158.13    10.472245   0.23380427 
   38700   -657.74953    69.674371   -588.07516    2113.8212    118947.75    10.472245    0.2304457 
   38800   -656.71523    70.158491   -586.55674    2128.5086    119352.94    10.472245   0.20544765 
   38900   -659.50923     64.03133    -595.4779    1942.6193    114037.19    10.472245   0.19833294 
   39000   -662.55774    69.779429   -592.77831    2117.0085    110695.61    10.472245    0.1931668 
   39100   -648.01682    61.774258   -586.24256     1874.143    127558.43    10.472245   0.21641482 
   39200   -662.06242    68.135457   -593.92696    2067.1327    112021.65    10.472245   0.18213061 
   39300   -654.77417    70.096759   -584.67741    2126.6358    122815.67    10.472245   0.20213636 
   39400   -657.27269     71.73951   -585.53318    2176.4745    117833.73    10.472245   0.19590859 
   39500   -660.03852    66.295758   -593.74276    2011.3188    114697.82    10.472245   0.18718671 
   39600   -657.02858    73.310596   -583.71799     2224.139    120372.62    10.472245   0.19547238 
   39700   -654.76068    71.084651   -583.67603     2156.607    120252.99    10.472245   0.22874085 
   39800   -653.05012    60.377654   -592.67246     1831.772    121675.89    10.472245   0.18397438 
   39900   -662.36916    73.820945   -588.54822    2239.6223     111808.1    10.472245   0.19278448 
   40000   -660.33867    72.251762   -588.08691    2192.0155    114347.18    10.472245   0.17329055 
   40100   -667.06876    70.301522   -596.76723     2132.848    104404.45    10.472245   0.16348104 
   40200   -658.81288    71.597649   -587.21523    2172.1706    117030.03    10.472245    0.1806862 
   40300   -657.96996    67.032062    -590.9379    2033.6572    117257.85    10.472245   0.17548943 
   40400   -662.67561     65.29728   -597.37833    1981.0265    110402.45    10.472245   0.16917959 
   40500   -660.34726     73.48549   -586.86177    2229.4451    115016.45    10.472245   0.20210447 
   40600    -659.3438    74.500823   -584.84297    2260.2488    117314.97    10.472245   0.20519683 
   40700   -660.75416    63.955503   -596.79866    1940.3188    113007.28    10.472245   0.16098698 
   40800   -660.08232    69.199041   -590.88328    2099.4003    115463.94    10.472245   0.15918093 
   40900   -656.29357    67.312358   -588.98121     2042.161    118385.82    10.472245    0.2291282 
   41000   -653.65493    71.930212   -581.72472    2182.2601    123720.77    10.472245   0.21549461 
   41100   -657.10522    68.189991   -588.91523    2068.7872    117613.33    10.472245   0.23173329 
   41200   -664.04033    69.953781   -594.08655    2122.2981    109470.47    10.472245   0.19448624 
   41300   -657.38833    76.176581   -581.21175    2311.0889    118881.73    10.472245   0.20548959 
   41400   -660.60788    72.008558   -588.59932    2184.6371    113668.41    10.472245   0.18680915 
   41500   -663.36543    64.803595   -598.56183    1966.0487    108664.27    10.472245   0.17923472 
   41600   -652.30121    68.061929   -584.23928     2064.902     123762.5    10.472245   0.22763375 
   41700   -657.34254    70.472531   -586.87001    2138.0362    119378.76    10.472245    0.2268383 
   41800   -661.43804    67.353915   -594.08413    2043.4218    111711.51    10.472245   0.21332867 
   41900   -655.00433    74.096341   -580.90799    2247.9774    122575.81    10.472245   0.24914189 
   42000   -654.98724    74.610966   -580.37628    2263.5904    122101.72    10.472245    0.1897677 
   42100   -661.11884      69.1036   -592.01524    2096.5048    112284.81    10.472245   0.17753512 
   42200   -658.99656    70.198298   -588.79826    2129.7164    114534.16    10.472245   0.19971202 
   42300   -650.51999    66.497697   -584.02229    2017.4454    126058.55    10.472245   0.20643228 
   42400   -660.44802    69.958744   -590.48928    2122.4486    114225.08    10.472245   0.16549712 
   42500   -658.80606    65.414949   -593.39111    1984.5964    114963.57    10.472245   0.18011878 
   42600   -660.74834    68.634481   -592.11386    2082.2724    112933.52    10.472245   0.17659325 
   42700    -656.6922    73.566506   -583.12569     2231.903    119236.75    10.472245   0.20897566 
   42800   -667.64608    72.177716   -595.46836    2189.7691    103664.65    10.472245   0.14367917 
   42900   -663.70043    72.130627   -591.56981    2188.3405    110017.39    10.472245   0.18706179 
   43000   -655.93813     68.24116   -587.69697    2070.3396    119512.13    10.472245   0.21890814 
   43100   -655.45612    64.819088   -590.63703    1966.5188    118146.79    10.472245   0.23113393 
   43200   -655.30803    71.323921   -583.98411    2163.8662    120176.63    10.472245   0.19634484 
   43300   -650.63602    76.099824    -574.5362    2308.7602    130335.48    10.472245   0.24934273 
   43400   -663.30462    74.002812   -589.30181    2245.1399    110317.26    10.472245   0.16137771 
   43500   -662.80847    70.294717   -592.51376    2132.6416    110644.05    10.472245    0.1846134 
   43600   -657.24159    75.890548   -581.35104    2302.4111    120429.78    10.472245   0.18731931 
   43700    -661.6168    66.843003   -594.77379    2027.9215    112830.84    10.472245   0.18256896 
   43800   -661.57466    70.594132   -590.98053    2141.7254    112715.48    10.472245   0.19670449 
   43900   -660.04913    75.273857   -584.77528    2283.7016    114110.58    10.472245   0.20857701 
   44000   -654.51953    62.157515   -592.36202    1885.7704    120534.86    10.472245   0.21024133 
   44100   -654.64001      65.9101   -588.72991    1999.6185    119319.02    10.472245   0.21881551 
   44200   -659.47876    76.640891   -582.83787    2325.1754    117558.05    10.472245   0.18412526 
   44300   -658.63466    63.536816   -595.09785    1927.6165    113407.42    10.472245   0.19349811 
   44400   -658.85146     71.17964   -587.67182    2159.4889    117022.49    10.472245   0.18902616 
   44500   -658.79668    71.542336   -587.25434    2170.4925    117606.84    10.472245   0.19944917 
   44600   -661.95808    66.442681    -595.5154    2015.7763    109899.78    10.472245   0.20067919 
   44700   -662.20707    76.243184   -585.96389    2313.1096     113306.5    10.472245   0.16806644 
   44800   -661.01055     64.46022   -596.55033    1955.6312    112510.06    10.472245   0.17652123 
   44900   -658.10567    63.199145   -594.90653     1917.372    113898.26    10.472245   0.18748546 
   45000   -659.77126    70.515014   -589.25624     2139.325    115347.29    10.472245   0.22076483 
   45100   -655.10175    73.164509   -581.93724     2219.707    121064.92    10.472245   0.22925928 
   45200   -665.10207    69.908036   -595.19404    2120.9102    107015.72    10.472245   0.16508683 
   45300   -661.31902    69.057444   -592.26158    2095.1045    113285.16    10.472245   0.17906057 
   45400   -658.78584    72.920333    -585.8655     2212.299    118064.77    10.472245   0.17647072 
   45500   -661.28158    71.358747   -589.92283    2164.9227    113030.43    10.472245   0.17803912 
   45600   -669.86099    67.048801   -602.81219    2034.1651     100324.7    10.472245   0.16273832 
   45700    -659.4437    65.973932   -593.46977    2001.5551    114397.42    10.472245   0.20761555 
   45800   -653.62721    67.928651   -585.69856    2060.8585    121671.47    10.472245    0.2370564 
   45900   -658.10926    70.104392   -588.00487    2126.8674    116786.88    10.472245   0.19051674 
   46000   -659.88392    63.858752   -596.02516    1937.3836    115380.79    10.472245   0.17367552 
   46100   -660.57618    72.284992   -588.29119    2193.0237     114287.6    10.472245   0.18683017 
   46200   -658.55547    70.336471     -588.219    2133.9083    115745.06    10.472245   0.17710922 
   46300   -657.93684    66.373566   -591.56327    2013.6794     116472.8    10.472245   0.20766006 
   46400   -656.34076    72.759158    -583.5816    2207.4092    119446.35    10.472245     0.226553 
   46500   -657.67973      73.6141   -584.06563    2233.3469    119145.46    10.472245   0.20203057 
   46600   -659.91125    65.811577   -594.09967    1996.6295    114827.42    10.472245   0.20473678 
   46700     -658.107    70.852444   -587.25456    2149.5622    118258.28    10.472245   0.19172485 
   46800   -654.29241    75.517675   -578.77474    2291.0987    121986.84    10.472245   0.19970517 
   46900   -660.90298    68.226081    -592.6769    2069.8821     113213.9    10.472245   0.22160626 
   47000   -654.11523    66.653072   -587.46216    2022.1592    120961.07    10.472245   0.20040941 
   47100   -651.71397    73.747074    -577.9669    2237.3811       127085    10.472245   0.21863597 
   47200   -658.41335    66.829963   -591.58338    2027.5259    115621.66    10.472245   0.17923925 
   47300   -660.53349     68.56847   -591.96502    2080.2697    112586.92    10.472245   0.17457449 
   47400   -656.66127    74.206054   -582.45521    2251.3059    121396.46    10.472245   0.20942542 
   47500   -660.13329    75.434919   -584.69837     2288.588    115830.06    10.472245    0.1971197 
   47600   -665.70587    73.494527   -592.21135    2229.7192    107898.17    10.472245   0.17355091 
   47700   -654.20622    68.966536   -585.23969    2092.3465    123780.96    10.472245   0.17791922 
   47800   -659.19088    73.058265   -586.13262    2216.4837    116127.69    10.472245   0.18898921 
   47900   -660.08993    66.338009   -593.75192    2012.6007     113225.1    10.472245   0.17776372 
   48000   -662.36612    77.600184   -584.76593     2354.279    114160.08    10.472245   0.16479452 
   48100   -659.87764    69.628604   -590.24904    2112.4326    114380.84    10.472245   0.19034236 
   48200   -664.72564    70.241715   -594.48392    2131.0336     107878.8    10.472245   0.17322799 
   48300   -655.78092    71.481271   -584.29965    2168.6399    120785.06    10.472245   0.20801293 
   48400   -654.90391    67.296585   -587.60732    2041.6825    120932.86    10.472245   0.23760796 
   48500   -657.30105    65.638542   -591.66251    1991.3798    116438.32    10.472245   0.19605543 
   48600   -666.73992    63.337842   -603.40207    1921.5799    103550.89    10.472245   0.18258832 
   48700   -655.54514    63.412404   -592.13273     1923.842    117908.21    10.472245   0.18529486 
   48800   -661.53182    76.033885   -585.49794    2306.7597    112918.88    10.472245    0.1883783 
   48900   -660.78177    69.405753   -591.37601    2105.6717    112823.04    10.472245   0.18957064 
   49000   -659.44488    63.940127   -595.50476    1939.8524    114121.15    10.472245   0.19467218 
   49100   -660.79434    73.325671   -587.46866    2224.5964    114650.72    10.472245   0.17730522 
   49200   -662.51622    71.033706   -591.48251    2155.0614     110887.5    10.472245    0.1971098 
   49300   -655.88319    66.068138   -589.81505    2004.4132    119299.15    10.472245   0.19705344 
   49400   -651.62305     67.23472   -584.38833    2039.8056    124592.33    10.472245   0.21390573 
   49500   -665.30265    69.351831   -595.95082    2104.0358    107690.85    10.472245   0.15383493 
   49600   -660.64738    67.284091   -593.36329    2041.3035    111404.48    10.472245   0.19303724 
   49700   -661.23523     75.40193    -585.8333    2287.5871    114596.53    10.472245   0.18478467 
   49800   -662.99076    72.033485   -590.95727    2185.3933    109838.97    10.472245   0.19330111 
   49900   -664.68469    71.265795   -593.41889    2162.1027    108651.42    10.472245   0.20279887 
   50000   -655.38168    68.535843   -586.84584    2079.2798    119893.22    10.472245   0.21474007 
   50100   -653.00637    66.956264   -586.05011    2031.3577     122189.9    10.472245   0.21412579 
   50200   -660.24304    66.421648    -593.8214    2015.1382     112931.4    10.472245   0.16520728 
   50300   -657.81511    71.063279   -586.75183    2155.9586    119611.59    10.472245   0.16942732 
   50400   -656.09151    71.098974   -584.99253    2157.0416     119496.6    10.472245    0.1986767 
   50500   -663.16413     66.59891   -596.56522     2020.516    109344.46    10.472245   0.16111955 
   50600    -659.0775    71.934747   -587.14276    2182.3977    116081.49    10.472245   0.18257622 
   50700   -658.11656     72.24964   -585.86692    2191.9511    117633.11    10.472245   0.21455843 
   50800   -658.70216    69.551661    -589.1505    2110.0983    117373.64    10.472245   0.17034336 
   50900   -665.86668    65.548878    -600.3178    1988.6596    105570.45    10.472245   0.19111997 
   51000   -657.88781    61.543254   -596.34455    1867.1347    114805.25    10.472245   0.18528442 
   51100   -661.77279    74.001413   -587.77138    2245.0974    113249.17    10.472245   0.17239944 
   51200   -659.97333    74.254859   -585.71847    2252.7866    115731.37    10.472245   0.18714388 
   51300   -664.58453     68.47755   -596.10698    2077.5113    108625.47    10.472245   0.17647359 
   51400   -661.53818    70.114695   -591.42348      2127.18    113840.64    10.472245   0.18184033 
   51500    -660.3337    75.374107   -584.95959     2286.743    115050.08    10.472245   0.17313952 
   51600   -666.04545     72.37383   -593.67162    2195.7189    107236.22    10.472245   0.16907503 
   51700   -654.95864    71.897959   -583.06068    2181.2816    120489.38    10.472245   0.20226017 
   51800   -653.94695    67.353053    -586.5939    2043.3957    121501.51    10.472245   0.22501526 
   51900   -660.09142    67.840418     -592.251    2058.1816    114491.75    10.472245    0.2033743 
   52000    -658.9637    75.799374   -583.16432     2299.645    117199.54    10.472245   0.19307101 
   52100   -655.94722    70.040437   -585.90678    2124.9271    117999.62    10.472245   0.22970415 
   52200   -663.40466    72.066237   -591.33842    2186.3869    110566.02    10.472245   0.19439287 
   52300   -657.29419    69.635426   -587.65877    2112.6396    118804.67    10.472245   0.18158752 
   52400   -648.47868    68.112054   -580.36663    2066.4227    129710.26    10.472245   0.26757893 
   52500    -660.3603    66.678479   -593.68182      2022.93    112702.66    10.472245   0.20947416 
   52600   -656.01774    68.745403   -587.27234    2085.6376    118354.49    10.472245   0.22105836 
   52700   -655.78061    70.022954   -585.75766    2124.3967    119831.22    10.472245   0.22471797 
   52800   -666.24944     71.53944      -594.71    2170.4047    107070.96    10.472245   0.16085411 
   52900   -656.14957       71.341   -584.80857    2164.3843    120477.96    10.472245   0.19632775 
   53000   -656.64132    64.594112   -592.04721    1959.6933    117332.07    10.472245   0.25222453 
   53100   -662.83856    66.944237   -595.89432    2030.9928    111324.78    10.472245   0.17772168 
   53200   -657.87562     70.87545   -587.00017    2150.2602    119092.24    10.472245   0.19756443 
   53300   -660.72794    70.094481   -590.63345    2126.5667    113498.12    10.472245   0.18763295 
   53400   -660.34742    68.332824    -592.0146    2073.1205    114663.56    10.472245   0.18578676 
   53500   -663.40935    75.889014   -587.52034    2302.3646    112065.36    10.472245   0.18194699 
   53600   -656.92613    78.273236   -578.65289    2374.6985     121633.2    10.472245   0.18283665 
   53700     -656.462    64.196029   -592.26597     1947.616    118821.54    10.472245   0.22768132 
   53800   -654.43223    66.092386   -588.33985    2005.1488    121852.64    10.472245   0.21331201 
   53900   -658.11765    77.117264   -581.00038    2339.6279    119314.44    10.472245   0.19042932 
   54000   -660.91339    65.398815   -595.51458    1984.1069    111417.34    10.472245   0.15666086 
   54100   -661.02863    70.357974   -590.67066    2134.5607    112620.75    10.472245   0.18425023 
   54200    -656.5601    71.614098     -584.946    2172.6697    120096.85    10.472245   0.19363853 
   54300    -659.8082      70.6197    -589.1885    2142.5011    115880.48    10.472245    0.1609261 
   54400   -661.20247    69.736219   -591.46625    2115.6975    113881.64    10.472245   0.16275479 
   54500   -653.32086    74.445979   -578.87488    2258.5849    125605.97    10.472245   0.20782476 
   54600   -659.06121    68.802555   -590.25866    2087.3715    114821.45    10.472245   0.17569744 
   54700   -659.15412     65.82269   -593.33143    1996.9666    112599.88    10.472245   0.21606508 
   54800   -655.06913    73.784055   -581.28508    2238.5031    122184.06    10.472245   0.21494442 
   54900   -662.81262    69.279151   -593.53347    2101.8307    110458.64    10.472245   0.17851186 
   55000     -660.881    71.674877   -589.20613    2174.5136    114882.99    10.472245   0.18587229 
   55100   -651.03247    66.832286   -584.20019    2027.5963     125057.3    10.472245   0.22134246 
   55200   -663.83048    66.932571   -596.89791    2030.6388    109886.02    10.472245   0.17918145 
   55300   -658.65034    68.343813   -590.30653    2073.4539    117316.34    10.472245   0.18556502 
   55400    -659.9043    74.059216   -585.84509    2246.8511    116081.96    10.472245   0.18679592 
   55500   -663.41619    64.287263   -599.12893     1950.384    108001.09    10.472245   0.18724337 
   55600   -656.72059    69.466648   -587.25394    2107.5191     118655.9    10.472245   0.18163486 
   55700   -656.29829    66.888737   -589.40955     2029.309    118841.54    10.472245    0.1886461 
   55800   -662.62214    64.422636   -598.19951     1954.491    109653.28    10.472245   0.18241675 
   55900   -661.50496    71.949003   -589.55596    2182.8302    111959.67    10.472245   0.18846182 
   56000   -660.02798    69.731988     -590.296    2115.5692    114252.92    10.472245   0.21223793 
   56100    -662.1814    62.216034   -599.96536    1887.5458    109917.51    10.472245   0.17814657 
   56200   -659.45562    70.481481   -588.97414    2138.3077    115803.46    10.472245    0.1885583 
   56300   -656.13795    68.524804   -587.61315    2078.9449     118962.7    10.472245   0.19876582 
   56400   -665.44644    68.930165   -596.51627     2091.243    107460.62    10.472245     0.157462 
   56500   -657.14346    64.263155   -592.88031    1949.6526       118851    10.472245   0.19623428 
   56600    -661.1771    73.424926   -587.75217    2227.6076    113461.51    10.472245   0.18190611 
   56700   -666.14883    72.090012   -594.05882    2187.1082    107873.13    10.472245    0.1743595 
   56800   -659.29686    65.815579   -593.48129    1996.7509     114288.2    10.472245   0.20847688 
   56900   -653.37689    66.534797    -586.8421    2018.5709    120697.63    10.472245   0.21475404 
   57000   -664.81515    70.373348   -594.44181    2135.0271    108143.49    10.472245   0.15992836 
   57100   -662.34645    74.541795   -587.80466    2261.4919    113350.12    10.472245   0.16332139 
   57200   -651.21824    65.277801   -585.94044    1980.4355    125682.37    10.472245   0.23611126 
   57300   -668.04126    72.351859    -595.6894    2195.0523    105294.38    10.472245   0.16619722 
   57400   -664.20133     66.00513    -598.1962    2002.5016    108592.75    10.472245   0.18153797 
   57500   -653.08699    67.326538   -585.76045    2042.5912    124129.02    10.472245   0.23235198 
   57600   -654.08853     66.62198   -587.46655     2021.216    122581.95    10.472245   0.21299651 
   57700   -660.46688    63.833104   -596.63378    1936.6054    114469.63    10.472245   0.19124153 
   57800    -659.8284    70.529299    -589.2991    2139.7584    114621.43    10.472245   0.18178244 
   57900   -660.40536    66.371209   -594.03415    2013.6079    111995.67    10.472245   0.22582861 
   58000   -664.96959    68.584249   -596.38534    2080.7484    107402.46    10.472245   0.16547834 
   58100    -655.7297    67.207414   -588.52229    2038.9772    119652.03    10.472245   0.17970234 
   58200   -655.60417    68.291252   -587.31292    2071.8593    117052.44    10.472245   0.21453963 
   58300   -651.19388    73.947169   -577.24671    2243.4517    126854.94    10.472245   0.23868435 
   58400   -655.87844    66.116242    -589.7622    2005.8726    118205.12    10.472245   0.20564373 
   58500   -662.04049    71.674746   -590.36575    2174.5097    111648.16    10.472245   0.19953311 
   58600    -655.2962    75.891015   -579.40519    2302.4253    121945.07    10.472245   0.21017559 
   58700   -662.86278    71.740601   -591.12218    2176.5076    112041.64    10.472245   0.17369533 
   58800      -660.58    67.669078   -592.91092    2052.9834    112933.93    10.472245   0.16252924 
   58900   -653.83942    69.317178   -584.52224    2102.9844    120914.44    10.472245   0.18331889 
   59000   -664.75673    70.839044   -593.91769    2149.1557    109475.86    10.472245   0.19331552 
   59100   -660.85722    67.659843   -593.19737    2052.7032    113164.87    10.472245   0.16060832 
   59200   -656.56168    70.589322   -585.97236    2141.5795    119428.54    10.472245   0.18614466 
   59300   -657.24966    66.815931   -590.43373    2027.1001    116726.49    10.472245   0.19236698 
   59400    -665.0262    72.303811   -592.72239    2193.5946    109219.84    10.472245   0.16603361 
   59500   -656.18222    74.260756   -581.92147    2252.9655    121291.26    10.472245   0.18458039 
   59600   -662.32916    70.093496   -592.23566    2126.5368       111041    10.472245   0.18624735 
   59700     -660.877    68.460454   -592.41655    2076.9926    112492.95    10.472245   0.18280109 
   59800   -652.12673    64.760534    -587.3662    1964.7423    122754.73    10.472245   0.20756619 
   59900   -654.90609    77.403937   -577.50215    2348.3252    122144.03    10.472245   0.22677068 
   60000   -659.45382    69.848402   -589.60542     2119.101    114400.26    10.472245   0.24741677 
   60100   -659.68667    67.181602   -592.50507    2038.1941     113163.9    10.472245    0.2144533 
   60200   -660.57062    69.092254   -591.47836    2096.1605    113840.65    10.472245   0.16110535 
   60300   -652.19736    69.958361     -582.239     2122.437    125019.44    10.472245   0.20146104 
   60400    -659.9215    66.504925   -593.41657    2017.6647    113647.99    10.472245   0.20551192 
   60500   -659.13726    69.808372   -589.32888    2117.8866    115340.88    10.472245   0.18266003 
   60600   -657.32215    74.670972   -582.65117    2265.4109    117911.79    10.472245   0.19539495 
   60700   -659.83503    69.084401   -590.75063    2095.9223    114307.34    10.472245   0.18570574 
   60800   -664.83719     71.01043   -593.82676    2154.3553    107957.71    10.472245   0.19439497 
   60900   -657.71472    74.848904   -582.86581    2270.8091    118951.95    10.472245   0.18069342 
   61000   -654.87851    65.624952   -589.25356    1990.9675    120555.16    10.472245   0.18086116 
   61100   -657.67472    64.700252   -592.97446    1962.9135    117612.37    10.472245   0.16174334 
   61200   -664.20911    74.716352   -589.49276    2266.7877    109854.94    10.472245   0.13153245 
   61300   -655.72317    66.809183   -588.91399    2026.8954    118027.85    10.472245   0.18581776 
   61400   -664.38731    66.314528   -598.07278    2011.8883    108816.62    10.472245   0.15324617 
   61500   -657.29659    68.211077   -589.08552    2069.4269    117977.29    10.472245   0.20404667 
   61600   -656.44796    70.465301   -585.98266    2137.8168    118028.38    10.472245   0.21879603 
   61700   -665.33048     68.25443   -597.07605    2070.7422    107778.42    10.472245   0.16571847 
   61800   -663.79846    74.589767   -589.20869    2262.9473    111343.16    10.472245   0.15244961 
   61900    -655.8929    69.751491    -586.1414    2116.1608     122072.7    10.472245   0.21777124 
   62000    -659.8177    64.174704   -595.64299    1946.9691    114283.05    10.472245   0.17610073 
   62100   -660.39558    68.711283   -591.68429    2084.6024    114127.45    10.472245   0.17445464 
   62200   -659.95267    74.174568   -585.77811    2250.3507    115998.56    10.472245   0.18866353 
   62300   -657.97878    62.307236   -595.67154    1890.3128    114409.77    10.472245    0.1967741 
   62400   -662.08645    70.221495   -591.86496    2130.4201    110977.66    10.472245   0.17719962 
   62500   -657.59572    68.385513   -589.21021     2074.719     115463.6    10.472245   0.18058241 
   62600   -657.04368    75.534516   -581.50916    2291.6096    121538.98    10.472245   0.17912353 
   62700   -660.89911    68.625671   -592.27344    2082.0051    113617.67    10.472245   0.17089178 
   62800   -659.83947    67.465062   -592.37441    2046.7939     114992.3    10.472245    0.1922349 
   62900   -653.13642    67.084955   -586.05146    2035.2619    121519.42    10.472245   0.22030535 
   63000   -664.67902    65.182946   -599.49607    1977.5577    105888.49    10.472245   0.18245482 
   63100   -656.32588    66.982377   -589.34351    2032.1499    118508.13    10.472245   0.20406261 
   63200   -658.21309    71.489511   -586.72358    2168.8899    117699.94    10.472245   0.18895139 
   63300   -664.09426    69.005938   -595.08833    2093.5418    108579.09    10.472245   0.15461688 
   63400   -664.65705    61.875915   -602.78113    1877.2271    106943.51    10.472245   0.16486163 
   63500   -660.02852    70.518999   -589.50953    2139.4459    112714.97    10.472245   0.20482726 
   63600   -655.04481    72.272211   -582.77259    2192.6359    120561.55    10.472245   0.21146176 
   63700   -658.38807    62.949037   -595.43903    1909.7841    114813.91    10.472245   0.19217188 
   63800   -660.08357    69.319124   -590.76444    2103.0435    114482.59    10.472245     0.204926 
   63900   -659.82234     74.21075   -585.61159    2251.4484    116343.94    10.472245   0.19300311 
   64000   -656.66433    65.573884   -591.09044    1989.4182    119277.66    10.472245   0.20845976 
   64100   -655.85636    67.428906   -588.42746    2045.6969    119343.69    10.472245   0.20384781 
   64200   -652.28468    73.557582    -578.7271    2231.6322    126086.17    10.472245   0.23147631 
   64300   -656.94881    65.773795   -591.17501    1995.4832    116655.54    10.472245   0.20052412 
   64400   -658.31847    68.093497   -590.22497    2065.8597    116541.24    10.472245   0.20361605 
   64500   -652.30993    72.018945   -580.29099    2184.9522    125782.36    10.472245   0.22304467 
   64600    -661.0929    67.531078   -593.56182    2048.7967    112671.46    10.472245   0.20714661 
   64700   -659.98858    72.142819   -587.84576    2188.7103    113976.77    10.472245   0.17556887 
   64800   -655.41246    74.225931   -581.18653     2251.909    120172.15    10.472245   0.18603126 
   64900   -661.42094    68.239297   -593.18165     2070.283    113242.56    10.472245   0.19795912 
   65000   -658.93087    66.372792   -592.55808    2013.6559    113828.71    10.472245   0.24669523 
   65100   -652.37074    70.979544   -581.39119    2153.4182    123792.22    10.472245   0.22390164 
   65200   -658.47117     66.25867    -592.2125    2010.1936    115633.52    10.472245    0.1738102 
   65300   -658.39209    67.191366   -591.20072    2038.4903    115064.41    10.472245    0.1951574 
   65400   -650.99318    72.029676    -578.9635    2185.2777    126970.32    10.472245   0.22115125 
   65500   -665.88323    72.802885   -593.08034    2208.7358    108694.47    10.472245   0.17660869 
   65600   -658.66684     68.37422   -590.29262    2074.3764    115061.03    10.472245   0.17869303 
   65700   -651.54724    70.430553   -581.11669    2136.7626    123900.17    10.472245   0.28586205 
   65800   -654.85636    77.559343   -577.29701      2353.04    122785.42    10.472245   0.22426914 
   65900   -659.42929    67.396755   -592.03254    2044.7215    115667.85    10.472245   0.18771299 
   66000   -660.70348    66.878856   -593.82462    2029.0092    113400.63    10.472245   0.17851696 
   66100   -652.59821    70.374735   -582.22347    2135.0692    124116.38    10.472245   0.22702218 
   66200   -655.09556    65.595836   -589.49972    1990.0842    119407.28    10.472245   0.19589988 
   66300   -656.01172      65.6144   -590.39733    1990.6474    119255.83    10.472245   0.20898654 
   66400   -656.90081    72.419309    -584.4815    2197.0987    119392.32    10.472245   0.22269575 
   66500   -647.41871    66.998626   -580.42008    2032.6428    130748.21    10.472245   0.28979086 
   66600    -659.9693     66.77383   -593.19547    2025.8229    114224.75    10.472245   0.18496717 
   66700   -659.83147    70.328794   -589.50267    2133.6754    115967.62    10.472245   0.19130702 
   66800   -654.17473    76.192921   -577.98181    2311.5847    123876.05    10.472245   0.20693838 
   66900   -660.31628    66.888675   -593.42761    2029.3071    114063.93    10.472245   0.21168617 
   67000   -653.24196    64.510776   -588.73119     1957.165    122564.95    10.472245   0.20667761 
   67100   -652.55679    70.262222   -582.29457    2131.6557    124712.54    10.472245   0.21147394 
   67200    -659.7184    67.601667   -592.11674    2050.9383    115049.49    10.472245   0.18007537 
   67300   -657.53442    63.779425   -593.75499    1934.9769    116985.71    10.472245   0.21173702 
   67400   -655.19759    70.395192   -584.80239    2135.6898    121654.98    10.472245   0.22076496 
   67500   -662.59768    70.445436   -592.15224    2137.2142    110848.83    10.472245   0.18145521 
   67600    -662.1444    70.471047   -591.67335    2137.9912    111497.62    10.472245   0.17602067 
   67700    -652.5358    74.051766   -578.48403    2246.6251    125150.18    10.472245   0.19128974 
   67800   -655.52871    63.950958   -591.57775    1940.1809    118963.59    10.472245   0.22201419 
   67900   -662.89487    69.421302   -593.47357    2106.1434    112392.34    10.472245   0.20561797 
   68000   -655.79231    74.778827   -581.01348    2268.6831    121501.89    10.472245   0.20470572 
   68100   -659.17499    68.008688    -591.1663    2063.2867    115597.27    10.472245   0.20797724 
   68200   -661.80327    70.204525   -591.59874    2129.9053    112446.43    10.472245   0.18133722 
   68300   -656.59558    72.126279    -584.4693    2188.2085    120647.61    10.472245   0.19741328 
   68400    -655.4223    69.534902    -585.8874    2109.5898    120527.31    10.472245   0.19261016 
   68500   -660.34321    68.548349   -591.79486    2079.6592    113103.48    10.472245   0.17848213 
   68600   -656.98263    71.160487   -585.82214    2158.9078    117789.26    10.472245   0.18801362 
   68700   -649.43288    70.252174    -579.1807    2131.3509    128270.41    10.472245   0.20626765 
   68800   -662.25787    70.124083   -592.13378    2127.4647    111459.54    10.472245   0.16752571 
   68900   -661.27485    69.741706   -591.53314     2115.864    112542.64    10.472245   0.18162083 
   69000     -658.042     76.62848   -581.41352    2324.7989    119246.93    10.472245   0.19085646 
   69100   -660.88282    68.862641   -592.02018    2089.1944    114272.14    10.472245   0.22637835 
   69200   -656.74124    65.673681   -591.06756    1992.4459    117628.52    10.472245   0.18283824 
   69300   -658.29792    75.309073   -582.98885      2284.77    117619.42    10.472245   0.19026136 
   69400   -655.56226    69.122228   -586.44003    2097.0699    120168.88    10.472245    0.2170806 
   69500   -662.73472    70.659206   -592.07552    2143.6996    111072.22    10.472245   0.20966892 
   69600   -656.74706    70.866928   -585.88013    2150.0016    118603.01    10.472245   0.19537474 
   69700   -663.55635    64.377657   -599.17869    1953.1264    108229.03    10.472245   0.19421259 
   69800   -659.77018    69.360866   -590.40931    2104.3099    114885.03    10.472245   0.20475388 
   69900   -657.79711    70.476027   -587.32108    2138.1422    118870.38    10.472245   0.23398225 
   70000   -660.42111     67.55198   -592.86913    2049.4308    113229.68    10.472245   0.18198405 
   70100   -662.32358    67.301838   -595.02174    2041.8419    111162.22    10.472245   0.15661693 
   70200   -660.15525    72.259762   -587.89548    2192.2582    115552.32    10.472245   0.16243319 
   70300   -660.94158    64.258144   -596.68344    1949.5005    112739.42    10.472245   0.17784737 
   70400   -667.39234    67.778833   -599.61351    2056.3132    104770.43    10.472245   0.15218678 
   70500   -656.98548    68.684581    -588.3009    2083.7923    118929.93    10.472245   0.19285205 
   70600   -657.78372    69.532851   -588.25087    2109.5276     116739.7    10.472245   0.19109715 
   70700   -662.36982    64.123962   -598.24586    1945.4296    109737.66    10.472245   0.19223009 
   70800   -652.60873    63.878411   -588.73031      1937.98    122054.86    10.472245   0.21091494 
   70900   -662.49886    72.445009   -590.05385    2197.8784    111779.35    10.472245   0.20901258 
   71000   -663.27701    64.821821   -598.45519    1966.6017    107258.31    10.472245   0.19222072 
   71100   -659.44856    68.791835   -590.65672    2087.0462    114227.33    10.472245   0.19519311 
   71200    -658.7606     72.35995   -586.40065    2195.2978     115772.6    10.472245   0.19026156 
   71300   -662.33023    64.051275   -598.27896    1943.2244     109125.1    10.472245   0.18119303 
   71400   -662.73682    68.108215    -594.6286    2066.3062    110633.16    10.472245   0.16503338 
   71500   -654.66353    66.222486   -588.44105    2009.0959    121568.97    10.472245    0.1959425 
   71600   -653.31741    66.800129   -586.51728    2026.6207    122852.78    10.472245   0.20791524 
   71700   -660.56211    63.369104     -597.193    1922.5283     110287.2    10.472245   0.18672338 
   71800    -651.9614    65.162083   -586.79931    1976.9248    122618.85    10.472245   0.25312017 
   71900   -656.34792     67.38372    -588.9642     2044.326    117516.24    10.472245   0.22884989 
   72000   -663.01053    69.759104   -593.25143    2116.3918    109438.34    10.472245   0.18324814 
   72100   -660.97867    66.412754   -594.56592    2014.8683    111752.75    10.472245    0.2137508 
   72200    -655.8726    71.164436   -584.70816    2159.0276    119711.96    10.472245   0.19622933 
   72300   -662.78472    66.680958   -596.10376    2023.0053    109749.25    10.472245   0.21058249 
   72400   -658.68784    65.619918   -593.06793    1990.8148    114914.78    10.472245   0.22066442 
   72500   -650.38247    63.402796   -586.97967    1923.5505     126570.8    10.472245   0.25134763 
   72600   -652.20691    72.134075   -580.07283     2188.445    124671.62    10.472245   0.24338317 
   72700   -657.56078    64.899675   -592.66111    1968.9637    117642.89    10.472245   0.21169657 
   72800   -659.72996    69.244176   -590.48579    2100.7696    114036.27    10.472245   0.18971686 
   72900   -650.88669    72.136996   -578.74969    2188.5337    127801.96    10.472245   0.23678171 
   73000   -656.10163    69.276191   -586.82544    2101.7409    120311.35    10.472245   0.18462525 
   73100   -658.28192    65.139753   -593.14217    1976.2473    115541.96    10.472245   0.20509981 
   73200   -657.25184    74.740726   -582.51111    2267.5271     117734.6    10.472245   0.19055501 
   73300   -658.48736    69.642882   -588.84447    2112.8658    115826.22    10.472245   0.17342474 
   73400   -655.88707    63.003994   -592.88308    1911.4514    117915.49    10.472245   0.22209453 
   73500   -652.73414    69.667904   -583.06624    2113.6249    124467.95    10.472245   0.20896492 
   73600   -662.39965     65.89563   -596.50402    1999.1795    111431.62    10.472245   0.16769339 
   73700   -660.91172    70.416015   -590.49571    2136.3216    114549.98    10.472245   0.19696739 
   73800   -658.38546    72.289507   -586.09595    2193.1607    116991.22    10.472245   0.19599926 
   73900   -663.59501    62.989074   -600.60593    1910.9988    109198.04    10.472245   0.15602508 
   74000   -659.37609    65.690572   -593.68552    1992.9584    114317.06    10.472245   0.19414808 
   74100    -658.5964    70.089303    -588.5071    2126.4096    115644.05    10.472245   0.19220433 
   74200   -663.65712    64.710257   -598.94687     1963.217    108953.53    10.472245   0.18898802 
   74300    -665.1733    71.657133   -593.51617    2173.9753    108474.92    10.472245   0.15852771 
   74400   -659.47322    69.113186   -590.36003    2096.7956    114870.67    10.472245   0.20311353 
   74500   -658.20335    75.230433   -582.97292    2282.3842    117628.94    10.472245   0.18841629 
   74600   -657.90935    72.727368   -585.18198    2206.4447    115651.83    10.472245   0.23748482 
   74700   -661.95724    67.020202   -594.93704    2033.2974    111157.29    10.472245   0.19705237 
   74800   -656.41675    71.295535   -585.12121    2163.0049    119797.36    10.472245   0.19558641 
   74900   -657.33042    74.457379   -582.87304    2258.9308    118714.25    10.472245   0.22537329 
   75000   -665.87483    74.188303   -591.68653    2250.7674    108083.73    10.472245   0.16296957 
   75100    -659.0499    71.511457   -587.53844    2169.5557    116973.39    10.472245   0.19160609 
   75200   -660.57882    76.293131   -584.28569    2314.6249    115072.26    10.472245   0.18877044 
   75300   -661.01723    65.141357   -595.87587     1976.296    112318.82    10.472245   0.19194019 
   75400   -657.80096    70.849314   -586.95165    2149.4672    117144.96    10.472245   0.17316748 
   75500   -658.29793    74.528614   -583.76932     2261.092    117154.23    10.472245   0.17286228 
   75600   -660.12925    67.435972   -592.69328    2045.9113    114454.35    10.472245   0.18105666 
   75700   -661.74375    67.869992   -593.87376    2059.0789    111690.14    10.472245   0.19022098 
   75800    -656.8455    74.518314   -582.32719    2260.7795    118945.76    10.472245   0.23782651 
   75900   -661.04012    68.414402   -592.62572    2075.5955    112197.95    10.472245   0.18285542 
   76000   -662.63406    67.891629   -594.74243    2059.7353    111424.62    10.472245   0.19681112 
   76100   -661.62012    71.955944   -589.66417    2183.0408    112983.38    10.472245   0.19323327 
   76200   -653.78474    70.450566   -583.33417    2137.3698    122358.08    10.472245   0.19585788 
   76300   -665.52278    70.217665   -595.30512    2130.3039     106811.2    10.472245   0.17171457 
   76400   -659.70139    71.891672   -587.80972    2181.0909    114364.13    10.472245   0.17597827 
   76500   -660.75405    74.912457   -585.84159    2272.7372    115337.81    10.472245   0.17444572 
   76600   -658.70316    68.941499   -589.76166    2091.5868    116411.55    10.472245   0.16825403 
   76700   -663.79695    69.001689   -594.79526    2093.4129    108384.75    10.472245    0.1782142 
   76800   -662.56714    68.906623   -593.66052    2090.5288    110771.86    10.472245   0.19626552 
   76900   -657.85172    74.402204   -583.44952    2257.2569    118867.42    10.472245   0.21412562 
   77000    -661.9522    66.302854   -595.64934    2011.5341    109797.72    10.472245   0.16474334 
   77100   -659.05906    63.766143   -595.29292    1934.5739    113454.99    10.472245   0.17353299 
   77200   -654.45159    67.333254   -587.11834     2042.795    121704.48    10.472245   0.17220115 
[...]
   81400    -656.2314    68.837294    -587.3941    2088.4254    118417.87    10.472245   0.24093966 
   81500   -654.92926    67.060616   -587.86864    2034.5235     120330.1    10.472245   0.19584637 
   81600   -664.63813    67.742988   -596.89514    2055.2257     107231.2    10.472245   0.18633561 
   81700   -658.29166    73.207574   -585.08408    2221.0135    116562.09    10.472245   0.19387159 
   81800   -657.70193    67.805851   -589.89608    2057.1329    117752.75    10.472245   0.18232773 
   81900   -659.09566    62.630685   -596.46498    1900.1257    114562.63    10.472245   0.18944841 
   82000   -654.05437    66.753594   -587.30078    2025.2089    120718.08    10.472245   0.21212313 
   82100   -658.03219    73.421861   -584.61032    2227.5147    116890.55    10.472245   0.18978128 
   82200   -661.48658     67.30141   -594.18517    2041.8289    111163.36    10.472245   0.15806291 
   82300   -660.53901     70.43002   -590.10899    2136.7465    113440.98    10.472245   0.18664262 
   82400   -652.65389    74.486742   -578.16714    2259.8216    125946.05    10.472245   0.26130113 
   82500   -662.42506    72.518386   -589.90667    2200.1045    112041.63    10.472245   0.19162425 
   82600   -658.79103    65.052905   -593.73813    1973.6124    114069.21    10.472245   0.18852288 
   82700   -653.35383    70.052417   -583.30141    2125.2905    125086.61    10.472245   0.24589674 
   82800   -662.53977    71.600862   -590.93891    2172.2681     111962.5    10.472245   0.19289666 
   82900   -658.16865    64.366623   -593.80202    1952.7916    116416.71    10.472245   0.17644687 
   83000   -651.61143    66.732541   -584.87888    2024.5702    126268.86    10.472245    0.2146135 
   83100   -661.32736     63.42511   -597.90225    1924.2275    109123.07    10.472245   0.16678703 
   83200   -657.62198     65.34103   -592.28095    1982.3537    116208.72    10.472245   0.18036667 
   83300   -658.81793    70.827263   -587.99067    2148.7983    116330.45    10.472245   0.20828157 
   83400   -664.49368    65.188612   -599.30507    1977.7296     108185.7    10.472245   0.16212385 
   83500   -663.07197    67.512624   -595.55935    2048.2368    110533.69    10.472245   0.16253946 
   83600   -657.39356    69.182559     -588.211    2098.9003    118782.08    10.472245    0.2051278 
   83700   -657.40345    68.628927   -588.77453    2082.1039    117647.71    10.472245    0.2002989 
   83800   -657.85621    60.295521   -597.56069    1829.2802    115622.04    10.472245   0.19564567 
   83900   -654.79656    66.715782   -588.08078    2024.0618    120270.16    10.472245   0.21187313 
   84000   -657.49512    70.680727   -586.81439    2144.3526    119137.32    10.472245   0.18832847 
   84100   -659.88697    62.249814   -597.63715    1888.5707    112377.91    10.472245   0.18431665 
   84200   -661.88618    67.036783   -594.84939    2033.8005     112635.7    10.472245   0.19132906 
   84300   -658.11407    67.875465    -590.2386    2059.2449    117673.55    10.472245   0.18603731 
   84400   -657.34139    69.888196   -587.45319    2120.3083    117386.54    10.472245   0.21526624 
   84500   -658.77187     74.73797    -584.0339    2267.4435    117115.76    10.472245   0.22305076 
   84600   -663.89078    68.003147   -595.88763    2063.1186    110154.82    10.472245   0.16408141 
   84700   -661.36055    71.446631   -589.91391     2167.589    111089.17    10.472245   0.18493103 
   84800   -652.25125     68.46964   -583.78161    2077.2713    124194.12    10.472245   0.23422925 
   84900   -661.51953    69.527197   -591.99234    2109.3561    112181.32    10.472245   0.17637715 
   85000   -661.53599    68.869952   -592.66604    2089.4162    112422.48    10.472245   0.17309595 
   85100   -655.87302    74.859706   -581.01332    2271.1368    119928.07    10.472245   0.21892064 
   85200   -659.77793    71.656958   -588.12097      2173.97    113710.78    10.472245   0.21370755 
   85300   -659.12512    67.482292   -591.64283    2047.3166    117140.45    10.472245   0.19905921 
   85400   -662.28661    67.360213    -594.9264    2043.6129     111041.6    10.472245   0.16483983 
   85500   -656.57877    68.165671    -588.4131    2068.0493    118371.54    10.472245   0.19684219 
   85600   -661.18603    75.290117   -585.89591    2284.1949    113387.46    10.472245   0.16856854 
   85700   -659.59806    67.369505   -592.22855    2043.8948    114034.79    10.472245   0.17280372 
   85800   -658.34338    69.146466   -589.19691    2097.8053    117843.46    10.472245   0.20824836 
   85900    -652.6817    74.237842   -578.44385    2252.2703    124802.35    10.472245   0.22916885 
   86000   -661.03524    69.173621   -591.86162    2098.6291     113161.8    10.472245   0.19407516 
   86100   -661.86716    71.937745   -589.92941    2182.4887    112826.93    10.472245   0.16737375 
   86200   -655.56845    76.548149    -579.0203    2322.3618    120868.41    10.472245   0.20092721 
   86300   -655.52891    66.387221   -589.14168    2014.0937    119046.44    10.472245   0.20938791 
   86400   -663.00216    71.652401   -591.34976    2173.8317    110012.87    10.472245   0.17715491 
   86500   -658.78618    69.541488   -589.24469    2109.7897    115259.19    10.472245    0.1607595 
   86600   -656.67868    72.348988   -584.32969    2194.9652    120109.14    10.472245   0.20614265 
   86700   -659.92089    63.992263   -595.92863    1941.4341    111987.19    10.472245   0.19148233 
   86800   -658.52382    68.363828   -590.15999    2074.0611    116628.77    10.472245   0.19956977 
   86900   -650.20838    65.919171    -584.2892    1999.8937    127057.54    10.472245   0.23220994 
   87000   -661.47657    68.734817   -592.74175    2085.3164    112177.93    10.472245   0.19420194 
   87100   -656.96409    66.098359   -590.86574      2005.33       117364    10.472245   0.19936219 
   87200   -654.08646    71.377673   -582.70879    2165.4969    121089.72    10.472245   0.22345167 
   87300     -656.995    63.965775   -593.02922    1940.6305    116698.97    10.472245   0.21436749 
   87400   -656.30853    66.121849   -590.18668    2006.0427    118008.38    10.472245   0.18947624 
   87500    -654.1957     76.83777   -577.35793    2331.1485    122229.08    10.472245   0.22351249 
   87600   -656.80453    68.999047   -587.80548    2093.3328    117975.66    10.472245   0.20921557 
   87700   -660.33109    68.144348   -592.18675    2067.4024    113424.65    10.472245   0.21070441 
   87800   -653.60687    74.307013   -579.29985    2254.3689    124118.01    10.472245   0.19999632 
   87900   -657.88368    72.069536   -585.81414     2186.487    117618.04    10.472245   0.19834489 
   88000    -659.8442    66.124898    -593.7193    2006.1352    114347.75    10.472245   0.20376877 
   88100   -656.21863    74.102115   -582.11651    2248.1526    118101.38    10.472245   0.19865947 
   88200   -653.80596    69.736537   -584.06942    2115.7072     122654.5    10.472245   0.21190138 
   88300   -662.00509    70.744265   -591.26082    2146.2802    111673.38    10.472245   0.17100978 
   88400   -659.22378    69.436182    -589.7876    2106.5948    115059.05    10.472245   0.17694269 
   88500   -654.55367    75.420518   -579.13315    2288.1511    122877.34    10.472245    0.2112796 
   88600   -658.97996    66.829926   -592.15003    2027.5247    115111.69    10.472245   0.17179668 
   88700   -661.44901    68.898516   -592.55049    2090.2828     111267.8    10.472245   0.18995507 
   88800    -653.8358    72.604737   -581.23106    2202.7243    123276.77    10.472245   0.21036376 
   88900    -660.5326    70.975039   -589.55756    2153.2815    114099.67    10.472245   0.21606883 
   89000   -655.01183    66.841644   -588.17019    2027.8802    119232.81    10.472245   0.21675593 
   89100   -663.32977    70.993709   -592.33606     2153.848    111189.31    10.472245    0.1860236 
   89200   -664.71009    68.600648   -596.10944    2081.2459    107615.41    10.472245   0.16269332 
   89300   -653.50599    68.260354   -585.24564    2070.9219    123628.86    10.472245   0.21235565 
   89400   -660.59985    69.066454    -591.5334    2095.3778     113650.9    10.472245   0.20290455 
   89500   -671.90962    69.673116    -602.2365    2113.7831    98021.344    10.472245   0.14318157 
   89600   -658.88933    68.033175   -590.85616    2064.0296    114383.88    10.472245   0.20194032 
   89700   -654.04096    67.067463    -586.9735    2034.7313    120910.96    10.472245   0.21213794 
   89800   -661.25322    64.978327   -596.27489    1971.3499    111195.14    10.472245   0.20551043 
   89900   -656.22049    65.473648   -590.74685    1986.3772    117658.93    10.472245   0.21721766 
   90000   -653.22967    68.435113   -584.79456    2076.2238    123181.96    10.472245   0.25820585 
   90100   -661.93837    67.135728   -594.80265    2036.8023    110497.37    10.472245   0.18006062 
   90200   -663.33034    69.336518   -593.99382    2103.5712    110628.53    10.472245   0.18338539 
   90300   -662.23104    73.582308   -588.64874    2232.3824    111290.54    10.472245   0.18683126 
   90400   -657.86733    65.003529    -592.8638    1972.1144     116491.1    10.472245   0.20561984 
   90500   -659.42637    72.326681   -587.09969    2194.2884    116553.19    10.472245   0.17026933 
   90600   -654.46569    67.540369   -586.92532    2049.0786    119882.32    10.472245   0.22751207 
   90700   -661.69243    64.684121   -597.00831    1962.4241    110796.88    10.472245   0.18524723 
   90800   -666.73265    74.697643   -592.03501    2266.2201    106621.75    10.472245   0.17498829 
   90900   -655.52313    73.254225    -582.2689    2222.4288    118492.93    10.472245    0.2008974 
   91000   -654.91368    72.429562   -582.48412    2197.4097    121246.39    10.472245     0.237322 
   91100   -660.94982    68.038466   -592.91136    2064.1901    112962.07    10.472245   0.18860547 
   91200   -656.32953    66.379836   -589.94969    2013.8697     118856.2    10.472245   0.19971178 
   91300   -652.85725    71.832638   -581.02461    2179.2999    126773.28    10.472245   0.22213535 
   91400   -662.70658    68.273155   -594.43342    2071.3103     109908.6    10.472245   0.16674856 
   91500   -658.59842    69.443202   -589.15521    2106.8078    117321.18    10.472245   0.19262132 
   91600   -653.53719    71.208164   -582.32903    2160.3542    123556.76    10.472245   0.21747514 
   91700   -660.35034    63.079937   -597.27041    1913.7554    112925.81    10.472245   0.19505273 
   91800    -657.1129     68.46425   -588.64865    2077.1078    117554.59    10.472245   0.20595543 
   91900   -661.36461    74.582677   -586.78193    2262.7321    114380.57    10.472245   0.15613405 
   92000    -659.7876    67.726278   -592.06132    2054.7188    114534.21    10.472245   0.20985407 
   92100   -654.06458    66.719487    -587.3451    2024.1742    121055.81    10.472245   0.19515473 
   92200   -663.56923    70.397395   -593.17183    2135.7567    110046.69    10.472245   0.19796696 
   92300   -659.04087    64.198573    -594.8423    1947.6932     114023.9    10.472245   0.18931728 
   92400   -660.06242    74.670993   -585.39143    2265.4115    116041.33    10.472245   0.21817483 
   92500   -661.60133    68.605243   -592.99609    2081.3853    111900.96    10.472245   0.17802951 
   92600   -661.48821    67.386158   -594.10205       2044.4    112878.47    10.472245   0.18302504 
   92700   -656.31116    67.732747   -588.57841     2054.915    119256.55    10.472245   0.16725735 
   92800   -658.89206    70.221251   -588.67081    2130.4127    114570.02    10.472245   0.21787965 
   92900   -663.63952     65.96107   -597.67845    2001.1649    108117.12    10.472245   0.18153883 
   93000   -656.74116    66.971366   -589.76979    2031.8158    117870.14    10.472245   0.20803169 
   93100   -655.33873    68.968482   -586.37025    2092.4055    120445.88    10.472245   0.21957986 
   93200   -661.97504    64.569893   -597.40515    1958.9586    109209.86    10.472245   0.18197063 
   93300   -658.15669    74.117217   -584.03947    2248.6108    118058.49    10.472245   0.20525192 
   93400   -659.06566    73.640791   -585.42487    2234.1567    116305.05    10.472245   0.20055001 
   93500   -660.20468     66.61576   -593.58892    2021.0272    113105.28    10.472245   0.19955969 
   93600   -657.37725    75.906559   -581.47069    2302.8968     118353.8    10.472245   0.20347662 
   93700    -655.6609    69.125899   -586.53501    2097.1813    119712.03    10.472245   0.22433951 
   93800   -658.21778    67.007973    -591.2098    2032.9264    114550.61    10.472245   0.24583112 
   93900   -659.91249    71.205057   -588.70743      2160.26     114454.2    10.472245   0.20147291 
   94000   -659.41575    69.368657   -590.04709    2104.5462    115017.57    10.472245   0.19394195 
   94100   -660.03779    66.168807   -593.86898    2007.4673    113737.04    10.472245   0.21101963 
   94200   -658.24942    73.205341   -585.04408    2220.9457    116179.81    10.472245   0.20793011 
   94300   -655.21362    69.854773   -585.35885    2119.2943    120228.38    10.472245   0.21094329 
   94400   -664.38699    66.609926   -597.77706    2020.8502    106972.44    10.472245   0.17812601 
   94500   -661.39582    73.326249   -588.06957    2224.6139     114684.2    10.472245   0.16529077 
   94600   -661.56425    70.649967   -590.91428    2143.4193    113178.29    10.472245   0.18975879 
   94700    -663.1014    63.376153   -599.72525    1922.7422    110010.74    10.472245   0.18240058 
   94800   -654.08559    65.751271   -588.33431    1994.7999    120336.43    10.472245   0.23217356 
   94900   -658.35587    70.198598   -588.15727    2129.7254    116490.07    10.472245   0.20417257 
   95000    -666.1548    66.836624   -599.31818    2027.7279    105227.67    10.472245   0.19641244 
   95100   -658.46136    67.807433   -590.65392    2057.1809    115186.22    10.472245   0.20390766 
   95200      -656.72    69.096749   -587.62326    2096.2969    118893.61    10.472245   0.20635986 
   95300   -662.40317    74.560287   -587.84288    2262.0529    112128.51    10.472245   0.18098813 
   95400    -666.5518    71.612516   -594.93929    2172.6217    105820.59    10.472245   0.17591613 
   95500   -659.40121    70.768724   -588.63248    2147.0223    114948.75    10.472245   0.21595046 
   95600   -656.66831    74.485877   -582.18243    2259.7954    121274.55    10.472245   0.20978401 
   95700   -658.59072    66.572099   -592.01862    2019.7026    115495.14    10.472245   0.18968802 
   95800   -662.93243    72.901664   -590.03076    2211.7326    112116.24    10.472245    0.1602605 
   95900   -661.13719    68.351109   -592.78608    2073.6753    111657.16    10.472245   0.18301878 
   96000   -657.42074    67.813712   -589.60703    2057.3714    117607.19    10.472245   0.19054003 
   96100   -657.92096    75.129013   -582.79195    2279.3072    117548.82    10.472245    0.1897686 
   96200   -657.67087    63.390072    -594.2808    1923.1645     116737.8    10.472245    0.2027948 
   96300   -657.07002    69.477895   -587.59212    2107.8603     117489.7    10.472245   0.18987905 
   96400   -658.76385    67.114272   -591.64958    2036.1514    115201.88    10.472245   0.16821264 
   96500   -664.15135     67.39815    -596.7532    2044.7639       108490    10.472245   0.17874912 
   96600   -659.54028    72.403188   -587.13709    2196.6095    115070.25    10.472245   0.19597993 
   96700   -659.82594    67.548341    -592.2776    2049.3204    111960.55    10.472245   0.17412827 
   96800   -666.68273    67.040392   -599.64234      2033.91    105941.39    10.472245   0.16969668 
   96900   -660.71009    69.847347   -590.86274     2119.069    114177.83    10.472245   0.17327698 
   97000    -656.1713    66.693293   -589.47801    2023.3795     118677.5    10.472245   0.19976291 
   97100   -663.61286    76.647285   -586.96557    2325.3694    110221.77    10.472245   0.18604099 
   97200   -664.88706    75.943563    -588.9435    2304.0195    109557.89    10.472245    0.1613305 
   97300    -663.1179     65.79925   -597.31865    1996.2555    108814.05    10.472245   0.19314776 
   97400   -651.82001    65.622738   -586.19727    1990.9004    124891.54    10.472245   0.25714898 
   97500   -659.36017    68.287226   -591.07294    2071.7371    116216.14    10.472245   0.21034281 
   97600    -656.9097     64.38388   -592.52582    1953.3152    117090.13    10.472245   0.20706968 
   97700   -654.88867     71.38431   -583.50436    2165.6983    121322.17    10.472245   0.20948193 
   97800   -663.82457    71.623002   -592.20156    2172.9398    109069.97    10.472245   0.18768354 
   97900   -666.39411     74.58541    -591.8087    2262.8151     107432.3    10.472245   0.15351188 
   98000   -662.88163    72.572074   -590.30955    2201.7333    111393.08    10.472245   0.17848291 
   98100   -659.17407    73.792434   -585.38163    2238.7573    116967.36    10.472245   0.19748247 
   98200   -655.56675    71.619741   -583.94701    2172.8409    121266.75    10.472245    0.2155877 
   98300   -660.73944    65.550109   -595.18933    1988.6969    113147.46    10.472245   0.18981917 
   98400   -658.53806    70.630512   -587.90755    2142.8291    116673.15    10.472245   0.19502954 
   98500    -656.8503    77.692051   -579.15824    2357.0661    119624.26    10.472245   0.21949768 
   98600   -658.61738    70.332726   -588.28465    2133.7947    115661.92    10.472245   0.18916606 
   98700   -658.27272     64.97074   -593.30198    1971.1197    116619.75    10.472245   0.19815281 
   98800   -655.38311    73.628422   -581.75469    2233.7814    119524.57    10.472245   0.21483221 
   98900   -655.27352    67.811324    -587.4622     2057.299    120084.15    10.472245   0.24914532 
   99000   -660.36406     67.95571   -592.40835    2061.6794    114460.13    10.472245   0.18508113 
   99100    -654.0344    71.959898    -582.0745    2183.1608    122932.59    10.472245    0.2327051 
   99200   -657.92249    74.605478   -583.31702    2263.4239    118520.43    10.472245   0.22469619 
   99300   -661.51363    68.540683   -592.97295    2079.4267    112295.76    10.472245   0.18206354 
   99400   -657.24769    70.186695   -587.06099    2129.3643    118359.26    10.472245   0.20847873 
   99500   -657.76472    76.333895   -581.43082    2315.8616    118148.39    10.472245   0.20106104 
   99600   -665.74805    72.513864   -593.23419    2199.9673       107636    10.472245   0.15883993 
   99700   -662.43312    72.353212   -590.07991    2195.0934    112538.62    10.472245   0.18444623 
   99800   -653.96207    70.875736   -583.08634    2150.2688    121774.71    10.472245   0.19988787 
   99900    -663.4239    74.207448   -589.21645    2251.3483    112160.08    10.472245   0.18918091 
  100000   -657.98929    65.469971   -592.51932    1986.2656    115534.73    10.472245   0.20486489 
Loop time of 74.7526 on 1 procs for 100000 steps with 256 atoms

Performance: 577.906 ns/day, 0.042 hours/ns, 1337.745 timesteps/s
100.0% CPU use with 1 MPI tasks x no OpenMP threads

MPI task timing breakdown:
Section |  min time  |  avg time  |  max time  |%varavg| %total
---------------------------------------------------------------
Pair    | 44.649     | 44.649     | 44.649     |   0.0 | 59.73
Neigh   | 3.4571     | 3.4571     | 3.4571     |   0.0 |  4.62
Comm    | 0.78217    | 0.78217    | 0.78217    |   0.0 |  1.05
Output  | 0.026561   | 0.026561   | 0.026561   |   0.0 |  0.04
Modify  | 25.694     | 25.694     | 25.694     |   0.0 | 34.37
Other   |            | 0.1439     |            |       |  0.19

Nlocal:    256 ave 256 max 256 min
Histogram: 1 0 0 0 0 0 0 0 0 0
Nghost:    1435 ave 1435 max 1435 min
Histogram: 1 0 0 0 0 0 0 0 0 0
Neighs:    13232 ave 13232 max 13232 min
Histogram: 1 0 0 0 0 0 0 0 0 0

Total # of neighbors = 13232
Ave neighs/atom = 51.6875
Neighbor list builds = 6215
Dangerous builds = 7
    
Total wall time: 0:01:14
