LAMMPS (3 Mar 2020)
Reading data file ...
  orthogonal box = (0 0 0) to (16.36 16.36 16.36)
  1 by 1 by 1 MPI processor grid
  reading atoms ...
  256 atoms
  read_data CPU = 0.000987218 secs
Reading potential file /usr/share/lammps-stable/potentials/Ag_u3.eam with DATE: 2007-06-11
Neighbor list info ...
  update every 1 steps, delay 10 steps, check yes
  max neighbors/atom: 2000, page size: 100000
  master list distance cutoff = 7.55
  ghost atom cutoff = 7.55
  binsize = 3.775, bins = 5 5 5
  2 neighbor lists, perpetual/occasional/extra = 1 1 0
  (1) pair eam, perpetual
      attributes: half, newton on
      pair build: half/bin/atomonly/newton
      stencil: half/bin/3d/newton
      bin: standard
  (2) compute rdf, occasional, copy from (1)
      attributes: half, newton on
      pair build: copy
      stencil: none
      bin: none
Setting up Verlet run ...
  Unit style    : metal
  Current step  : 0
  Time step     : 0.005
Per MPI rank memory allocation (min/avg/max) = 3.744 | 3.744 | 3.744 Mbytes
Step PotEng KinEng TotEng Temp Press Density c_msdall[4] 
       0       -729.6    40.937981   -688.66202         1242    9986.0351    10.472245            0 
     100   -707.18881    22.094537   -685.09428    670.31676   -5026.9221    10.015793  0.065610651 
     200   -702.78107    21.755239   -681.02584    660.02294   -7161.7612    9.9230413  0.094124084 
     300   -702.68516    25.276758    -677.4084    766.86081    2996.2701     10.01834  0.087849267 
     400    -701.7505     27.84919   -673.90131    844.90474    2404.9112    9.9913907   0.09065612 
     500   -698.08844    27.577704   -670.51074    836.66824   -960.97942    9.8977457   0.10473814 
     600   -696.68093    29.613955   -667.06698    898.44521   -2378.4545    9.8557561   0.12156677 
     700   -695.41325    31.676309   -663.73694    961.01408    212.35189     9.860781   0.12565852 
     800   -690.33305    30.021006   -660.31204    910.79454    11305.488    9.8894934   0.13553091 
     900   -691.66104    34.631348   -657.02969    1050.6658   -7152.4019    9.7059294   0.15822624 
    1000   -686.23382    32.587812   -653.64601     988.6678   -6049.7011    9.6389166    0.1738986 
    1100   -687.46617    37.219818   -650.24636    1129.1962   -2486.0703    9.6693279   0.16781578 
    1200   -684.74461    38.079649   -646.66496    1155.2823    5169.9374    9.7125814   0.19306243 
    1300   -680.94066     37.35241   -643.58825    1133.2189   -618.49978    9.5791542   0.22470364 
    1400   -678.20442    37.527605   -640.67681    1138.5341   -7520.8413    9.4703963   0.25052098 
    1500   -679.08656    41.532347   -637.55422    1260.0322   -4226.4844    9.4911337    0.2484327 
    1600    -676.2646     43.99372   -632.27088    1334.7068    1794.5444    9.5147008   0.25316566 
    1700   -677.16397    40.982217   -636.18175    1243.3421    9456.4869    9.6189582   0.29998274 
    1800   -677.27871    41.269074   -636.00964    1252.0449    2586.7217    9.5431967   0.22299143 
    1900   -681.40218    39.730295   -641.67189    1205.3605   -5862.1115    9.5229803    0.2048448 
    2000   -681.02867    42.855162   -638.17351    1300.1645   -4798.7629    9.5193486   0.21862338 
    2100   -676.82072    41.828281   -634.99244    1269.0104   -3568.1489    9.4717835   0.27347722 
    2200   -678.91706    41.802077   -637.11498    1268.2155   -4131.3638     9.501443   0.22575636 
    2300   -682.73254    38.869224   -643.86331    1179.2369    4095.2492    9.6759874   0.19852981 
    2400   -676.74582    39.290845   -637.45498    1192.0282   -2022.1697    9.4876969   0.27588407 
    2500   -676.64296    40.619149   -636.02382    1232.3271    2586.7528    9.5296497   0.26503758 
    2600   -676.06527     38.84537    -637.2199    1178.5132    180.10883    9.5002156   0.27727307 
    2700   -673.88098    44.271268   -629.60971    1343.1272   -12351.081    9.3109271   0.29885078 
    2800   -674.06097    39.455529   -634.60544    1197.0245    9011.0055    9.5793619   0.25486446 
    2900   -681.04523    42.930765   -638.11446    1302.4583    11050.837    9.6999749   0.20582976 
    3000   -676.85578    39.910426   -636.94535    1210.8255    3029.1089    9.5544849   0.24368326 
    3100   -676.82087    46.635349   -630.18552      1414.85   -14291.305    9.3514927   0.29077954 
    3200   -673.82474    38.900737   -634.92401    1180.1929    2721.5256    9.4957711   0.29110285 
    3300   -682.16746    43.923523   -638.24394    1332.5771   -2981.0471    9.5616359   0.21706934 
    3400   -681.14926     43.02335   -638.12591    1305.2671    6447.7629     9.657291   0.20017981 
    3500   -675.80438    44.511824   -631.29256    1350.4253    323.89943    9.4988145   0.25838929 
    3600   -675.82113    38.579381   -637.24174    1170.4435   -1203.6342    9.4736511   0.25877075 
    3700    -677.4766    39.690504   -637.78609    1204.1533   -3771.8168    9.4824256   0.22813174 
    3800   -678.02092    40.386897   -637.63403    1225.2809     2899.593    9.5581657   0.23713995 
    3900   -683.57677     38.14879   -645.42798    1157.3799    2385.7487    9.6589832   0.18751667 
    4000   -682.35013    41.651917   -640.69821    1263.6598   -1726.9595    9.5869607   0.21094521 
    4100   -676.21534    39.939565   -636.27578    1211.7095   -872.63667    9.4969023   0.25572608 
    4200   -679.75715    43.159035   -636.59811    1309.3836   -8221.9481    9.4632058   0.26373225 
    4300      -683.25    39.686673   -643.56332    1204.0371   -2319.8933    9.6047323   0.20633803 
    4400   -678.00642    40.597346   -637.40907    1231.6656    960.40966    9.5470068   0.23748534 
    4500   -675.89118    39.859081    -636.0321    1209.2677    1114.2673    9.4956942   0.27631061 
    4600   -679.15756    41.076445   -638.08112    1246.2008   -6320.2828     9.475215   0.26161484 
    4700   -684.04311    38.795934   -645.24717    1177.0133    5313.7315    9.6939426   0.18318822 
    4800   -680.19165    40.972157   -639.21949    1243.0369    5058.1401    9.6336847   0.20211129 
    4900   -677.34804    41.402175   -635.94587     1256.083   -1746.8393    9.5141874   0.26671248 
    5000   -677.11818    42.009208   -635.10897    1274.4995   -2301.3557    9.4641907   0.25474234 
    5100   -678.66397    35.751914   -642.91205    1084.6621   -2210.7132    9.5294601   0.22781329 
    5200   -674.88334    36.635697   -638.24765    1111.4749    1128.2252     9.493198   0.24160921 
    5300   -676.81673    43.387832   -633.42889     1316.325     6185.669    9.5717057   0.25593533 
    5400   -678.46401    40.118372   -638.34564    1217.1342   -379.39328    9.5362104   0.22674506 
    5500   -680.58137    39.096095   -641.48527    1186.1198   -10591.363    9.4658197   0.22026341 
    5600   -674.47315    38.992874   -635.48027    1182.9882    2462.3727    9.4986517    0.2522093 
    5700   -678.75548    44.478745   -634.27673    1349.4218   -597.59671    9.5304479   0.23260484 
    5800   -680.44566    41.768538   -638.67712    1267.1979    12937.659    9.7221914   0.20708175 
    5900   -679.29464    46.074133    -633.2205    1397.8236   -3480.6502    9.5019458   0.24260528 
    6000   -674.96355    42.323572   -632.63998    1284.0369   -679.28281    9.4564211   0.28145532 
    6100   -679.14385    38.697344   -640.44651    1174.0223   -2451.9449    9.5352665   0.25153303 
    6200   -672.26585    33.976415   -638.28943     1030.796    3106.9101    9.4721616   0.28663856 
    6300   -678.07566    43.299213   -634.77645    1313.6364   -4258.8502    9.4839991   0.23528326 
    6400   -677.88234    39.569561   -638.31278    1200.4841   -4040.8987    9.4891913   0.25996773 
    6500     -679.188     42.34337   -636.84463    1284.6375   -711.80682    9.5439152   0.26681848 
    6600   -675.39798    45.111213   -630.28676    1368.6099    11238.096    9.5930189   0.28171384 
    6700   -680.34912    43.087814   -637.26131    1307.2229    1679.2199    9.5819193   0.21550223 
    6800    -678.7018    38.699082   -640.00271     1174.075   -1608.1392    9.5125478   0.22512169 
    6900   -675.79058      40.9719   -634.81868    1243.0291   -7653.4732    9.3952952   0.26653612 
    7000   -674.59805    41.803372   -632.79468    1268.2548    1022.7574    9.4762491   0.28563866 
    7100    -680.9722    41.932523   -639.03968     1272.173    -3751.676    9.5312934   0.22423889 
    7200   -678.54513    40.871535    -637.6736    1239.9841    2408.8935    9.5749285   0.24918187 
    7300    -677.0698    43.357475   -633.71233     1315.404    5847.9916    9.5575458    0.2574473 
    7400   -677.54119    39.692127   -637.84907    1204.2026   -2867.8931    9.4909393   0.26639791 
    7500   -678.60065    36.651362   -641.94929    1111.9501    175.82051    9.5420212   0.23367044 
    7600   -675.60534    41.034699   -634.57064    1244.9343   -234.01558    9.4830206   0.26617084 
    7700    -676.0634    40.775738   -635.28766    1237.0778    2234.5751    9.5369019   0.25504735 
    7800   -679.83604    40.189841    -639.6462    1219.3025    621.55388     9.558424   0.20006394 
    7900   -679.51719    38.956533   -640.56066    1181.8857   -47.201876    9.5532979   0.19738674 
    8000   -676.48285    43.579996   -632.90285     1322.155    438.60412    9.4946818   0.22498873 
    8100   -677.53591     40.89195   -636.64396    1240.6035    9331.9878    9.6295515   0.21923583 
    8200   -680.57384    39.163021   -641.41082    1188.1503    2385.9279    9.6057689   0.21300416 
    8300    -681.2833    40.973141   -640.31016    1243.0667   -6124.1773    9.5170142   0.21309543 
    8400   -672.53421    38.831726   -633.70248    1178.0992   -594.95818    9.4194516   0.29219738 
    8500   -677.54538    42.093409   -635.45197     1277.054    2077.7484    9.5457343   0.25346165 
    8600   -678.71336    37.140531   -641.57283    1126.7908    9589.0832     9.658272   0.23349295 
    8700   -677.92229    40.522756   -637.39954    1229.4027    -2228.958    9.5155265   0.25566902 
    8800   -674.50953    43.531839   -630.97769     1320.694   -3365.7317    9.4215729   0.25628011 
    8900   -677.41899    40.401654   -637.01734    1225.7286    7865.7261     9.599351   0.24025407 
    9000   -678.12057    39.203964   -638.91661    1189.3924    443.28746    9.5217687   0.24130549 
    9100   -673.87332     41.79448   -632.07884     1267.985   -6391.5883    9.3839488   0.27560073 
    9200    -674.8022    38.349072   -636.45313    1163.4562   -502.75907    9.4750284   0.26062838 
    9300   -680.37501      39.0175   -641.35751    1183.7353     2657.611    9.6035512   0.21924813 
    9400   -676.61446    41.755146   -634.85931    1266.7916   -6300.3366    9.4464228    0.2470648 
    9500    -678.4777    43.038284   -635.43942    1305.7202    5993.0555    9.6005363   0.23212256 
    9600   -680.54216    40.900705   -639.64146    1240.8691    2433.1788    9.6080935   0.21821154 
    9700   -674.79421    41.674297   -633.11991    1264.3388   -6969.1787    9.3992483   0.30081114 
    9800   -676.64908    43.985368   -632.66371    1334.4534   -6769.8091    9.4236525    0.2307703 
    9900   -677.91258    41.183205   -636.72937    1249.4398   -2733.6867    9.5033824   0.26022211 
   10000   -679.92059    41.248187    -638.6724    1251.4112   -6693.4637    9.4829885   0.25062656 
   10100   -676.67307    39.548736   -637.12433    1199.8523    1246.4823    9.5308175   0.28424282 
   10200   -672.84302    40.548894   -632.29413    1230.1957   -145.97059    9.4325773   0.31032883 
   10300   -677.63993    41.847475   -635.79245    1269.5928   -1016.6862    9.5106723   0.23612068 
   10400   -679.30184    40.794092   -638.50775    1237.6346    -4372.812    9.5062968   0.24082769 
   10500   -677.80323    40.539257   -637.26397    1229.9033   -5219.0427    9.4621953   0.24819913 
   10600   -674.69031    42.227022   -632.46329    1281.1077    6508.8532    9.5381811   0.25412494 
   10700   -678.10178    40.801088    -637.3007    1237.8469    6466.4311    9.6138674   0.25463634 
   10800   -680.44062    41.873731   -638.56689    1270.3893   -2712.4534    9.5415465   0.23885183 
   10900    -676.8434    43.731053   -633.11234    1326.7379   -3804.0997    9.4532151   0.25691628 
   11000   -673.62831    42.150663   -631.47765    1278.7911   -13398.897    9.3149736   0.30557462 
   11100   -676.38773    39.522146   -636.86558    1199.0456   -658.41603    9.4878795   0.27671595 
   11200   -678.78222    40.696338   -638.08589    1234.6689    3526.8073    9.5897293   0.26366787 
   11300   -673.60632    39.355944   -634.25038    1194.0033   -6153.8826    9.3824826   0.25990266 
   11400   -671.73197    40.567582   -631.16439    1230.7626    -5906.288    9.3553339   0.29888716 
   11500    -678.0046    41.892458   -636.11215    1270.9575   -1586.9421     9.511081   0.23546113 
   11600   -681.77777    41.776167    -640.0016    1267.4294   -2261.8934    9.5732072    0.2325278 
   11700   -675.46156    41.315226   -634.14634    1253.4451   -1601.4925    9.4567875   0.25670025 
   11800   -675.44566    42.175735   -633.26992    1279.5517   -5793.5302    9.4139373   0.29413463 
   11900   -678.11185    38.102889   -640.00896    1155.9874   -2685.8552    9.5030766   0.21741657 
   12000    -680.0329    42.816319   -637.21658    1298.9861   -939.44346    9.5474527   0.20655732 
   12100   -673.31615    43.111686   -630.20446    1307.9471    5037.1775    9.4779103    0.2653543 
   12200   -675.48706    43.144287   -632.34277    1308.9362     3719.908    9.5159695   0.27859195 
   12300   -681.01151    42.430914    -638.5806    1287.2935   -1030.0542    9.5689499   0.22290242 
   12400   -676.62035    39.091719   -637.52863     1185.987    3285.7996    9.5444499   0.22314834 
   12500   -673.28081    42.510865   -630.76995    1289.7191    216.38641    9.4432786   0.26219813 
   12600   -676.82503    39.665008   -637.16002    1203.3798   -679.44512    9.5035641   0.25133166 
   12700   -680.18904    41.557317   -638.63172    1260.7898   -724.25867    9.5731521   0.23623993 
   12800   -679.11472    46.574459   -632.54026    1413.0027    16464.646    9.7208802   0.20858063 
   12900   -679.50005    49.178741   -630.32131    1492.0129    7273.1304    9.6195741   0.19606311 
   13000    -678.9193     40.40637   -638.51293    1225.8717   -556.09535    9.5526312   0.22587542 
   13100   -676.49603    37.807113   -638.68892    1147.0139   -5149.9688      9.45407   0.24459748 
   13200    -675.8085    43.854235   -631.95426     1330.475   -3275.9851    9.4453487   0.28817344 
   13300   -672.59092     41.05948   -631.53144    1245.6861   -1149.4684    9.4208451   0.30809656 
   13400   -677.52051    38.836714    -638.6838    1178.2506   -265.04576    9.5272223   0.22942109 
   13500   -678.61793    39.804797   -638.81313    1207.6208    4627.9701    9.6001032   0.20882056 
   13600   -677.03107    45.001135   -632.02994    1365.2703    1568.1061    9.5209411   0.22502112 
   13700   -671.15158    39.912696   -631.23888    1210.8943   -1349.0672    9.3829152   0.30107199 
   13800   -679.84082    41.288756   -638.55207     1252.642   -12277.971    9.4335301   0.23291775 
   13900   -678.51593    40.499655   -638.01627    1228.7018    4346.9917    9.5927937    0.2496427 
   14000   -673.64647    39.555545   -634.09092    1200.0589    13300.816    9.5990662    0.2578159 
   14100    -679.3067    38.965497    -640.3412    1182.1577   -804.41481    9.5404971   0.22187648 
   14200   -681.03598     40.07748    -640.9585    1215.8936   -2915.7912    9.5523483   0.21309447 
   14300   -676.87177    41.528782   -635.34299    1259.9241    3930.3461    9.5425899   0.23968359 
   14400   -676.96619    41.670698   -635.29549    1264.2296    4275.0867    9.5520395   0.20987788 
   14500   -681.28471    40.053773   -641.23094    1215.1744     913.6764    9.6087914   0.19335455 
   14600   -676.47156    40.541716   -635.92984    1229.9779    3623.8563    9.5523757   0.21567567 
   14700   -675.92436    43.711474   -632.21288    1326.1439   -649.77738    9.4678911   0.26876602 
   14800   -678.37169    38.523896    -639.8478    1168.7601   -5540.2357    9.4781603   0.24289137 
   14900   -680.73602    42.014312   -638.72171    1274.6544   -2310.9348    9.5648121   0.21928784 
   15000    -674.4865     40.34378   -634.14272    1223.9728    8703.4161     9.571158   0.26298581 
   15100   -672.70461    40.043602     -632.661    1214.8658   -3546.9171    9.3986029   0.29048659 
   15200   -679.09042    39.215392   -639.87503    1189.7391   -5122.3705    9.5026569   0.24476364 
   15300   -679.45359     39.91922   -639.53437    1211.0923   -6019.8791     9.483204   0.24577309 
   15400   -675.32561    42.668475   -632.65713    1294.5007   -4587.3628    9.4287689   0.27008736 
   15500   -676.75593     39.58457   -637.17136    1200.9394   -302.97737    9.5061088   0.24948207 
   15600    -682.9174    43.096411   -639.82099    1307.4837    12861.602    9.7643344   0.18544332 
   15700   -679.42989    44.577129   -634.85276    1352.4066    4573.8847    9.6043802   0.21890038 
   15800   -673.27394    40.286234   -632.98771    1222.2269   -165.71764    9.4451761   0.29725281 
   15900   -679.16208    40.236995   -638.92509    1220.7331   -8929.4937    9.4473939   0.24471865 
   16000    -679.7314    40.264756   -639.46664    1221.5753   -1376.8058    9.5459935   0.21284728 
   16100   -670.56146    39.741396   -630.82007    1205.6973   -4242.7306    9.3444918   0.34996365 
   16200   -677.10244    44.336904   -632.76553    1345.1185   -4245.3634    9.4428233    0.2653033 
   16300   -678.13732    39.352897   -638.78442    1193.9108     7755.837    9.6168954   0.22183962 
   16400   -678.63059    41.559271   -637.07132    1260.8491    7241.0702    9.6207369   0.20987553 
   16500   -674.00667    42.538167    -631.4685    1290.5474   -1930.5332    9.4365108   0.24973059 
   16600   -681.21489     43.13134   -638.08355    1308.5434   -1981.0002    9.5559695   0.20893903 
   16700   -681.60641    41.826328   -639.78008    1268.9512    11729.182    9.7151993   0.19097903 
   16800   -678.14799     43.24755   -634.90044     1312.069    2599.1662    9.5551223   0.22455221 
   16900   -676.88268    40.840163   -636.04252    1239.0323   -2411.3515    9.4817195   0.24177633 
   17000    -679.1297    36.756553   -642.37315    1115.1415     1195.059    9.5787533   0.25460546 
   17100   -675.69797    39.373156   -636.32481    1194.5255    5949.0818    9.5568147   0.22243115 
   17200   -678.11449    40.992626   -637.12187    1243.6579     -776.337    9.5315742   0.23681864 
   17300   -679.72618     36.08758    -643.6386    1094.8457   -2890.4502    9.5344193     0.226765 
   17400   -676.19244    36.118713   -640.07372    1095.7903    4482.5808    9.5677564   0.24835976 
   17500   -678.18803    42.626934    -635.5611    1293.2404    1323.5976     9.552265   0.24284646 
   17600   -678.09366     40.87714   -637.21652    1240.1542   -4703.3934    9.4917104    0.2158571 
   17700   -677.93816    35.907893   -642.03026    1089.3943    3168.6575    9.5730202   0.21908231 
   17800   -677.18188    43.396944   -633.78494    1316.6014    5729.6745    9.5704102   0.22428877 
   17900   -676.47917    41.595132   -634.88403     1261.937    11344.723    9.6386267   0.23648418 
   18000   -679.95889    39.842631   -640.11626    1208.7687    789.12214    9.5837461   0.22836973 
   18100    -677.1458     40.07822   -637.06758    1215.9161   -369.01929     9.511275   0.25151971 
   18200   -678.70294    45.945768   -632.75717    1393.9291   -6870.8638    9.4558494   0.26160464 
   18300   -678.09774    39.020282   -639.07745    1183.8198     6905.334    9.6197154   0.22805952 
   18400   -679.05396    40.475236   -638.57872     1227.961    7315.6574    9.6342534   0.23134268 
   18500   -675.38688    43.959502   -631.42738    1333.6686   -4486.7525    9.4090422   0.27165314 
   18600   -674.90008    39.881686    -635.0184    1209.9535    6010.2934    9.5328647   0.26909017 
   18700   -682.25991    39.233762   -643.02615    1190.2964     706.9318    9.6206864   0.19072499 
   18800   -678.60605    38.420138   -640.18591    1165.6122   -3655.3741    9.5065439   0.23821363 
   18900   -676.27195    41.080278   -635.19167    1246.3171    -4921.759    9.4403255   0.26137927 
   19000   -679.38445    40.823326   -638.56112    1238.5216   -730.01393      9.55887   0.24233888 
   19100   -680.32507    39.050327   -641.27474    1184.7313    9759.9113     9.690194    0.2209544 
   19200   -674.19348    40.190021   -634.00346     1219.308   -577.14906    9.4678713   0.25477027 
   19300   -677.34712    40.288285   -637.05884    1222.2892   -3119.9561    9.4890544   0.24578334 
   19400   -679.96993    40.518015   -639.45191    1229.2588    1839.5302    9.5829576    0.2075184 
   19500   -682.97307     36.98595   -645.98712     1122.101    4230.5123    9.6736504   0.21340189 
   19600    -679.9874    38.495153   -641.49225    1167.8881   -9464.7348    9.4652253   0.24007627 
   19700   -677.60537    39.699064    -637.9063     1204.413   -9947.6782    9.4060666   0.25695603 
   19800   -678.18778    41.857356   -636.33043    1269.8925   -3606.8774    9.4961914   0.24563365 
   19900   -681.93169    42.041815   -639.88987    1275.4888     4134.727    9.6514326   0.21979277 
   20000   -682.63497    40.006645   -642.62832    1213.7446     3887.985    9.6572239   0.20257549 
   20100   -678.19725    41.683565   -636.51368      1264.62   -8240.3296    9.4476375   0.25279154 
   20200   -677.28704    38.903308   -638.38374    1180.2709   -1370.9184    9.5003065   0.26607765 
   20300   -682.29246    40.309598   -641.98286    1222.9358    4354.3415    9.6589253    0.1825906 
   20400   -683.22797    36.692949   -646.53502    1113.2118    3653.6169     9.667242   0.17947401 
   20500   -677.58184    39.605547    -637.9763    1201.5759    1970.0173    9.5319942   0.22464365 
   20600   -677.34644    40.316096   -637.03034    1223.1329    9094.7731    9.6194447   0.19559289 
   20700   -680.72362    42.425763   -638.29785    1287.1372   -3480.6653    9.5334484   0.20527307 
   20800   -680.32968    34.657209   -645.67247    1051.4504    -1319.895      9.56689   0.22012127 
   20900     -679.082    38.460442   -640.62156     1166.835   -2782.5115    9.5345678   0.21960397 
   21000   -678.76418    42.039402   -636.72478    1275.4156    446.95325    9.5418376   0.21658731 
   21100   -674.88045    37.685207   -637.19524    1143.3155    7974.6498    9.5658543   0.25216675 
   21200   -675.98297    39.418121   -636.56485    1195.8896    3739.7515    9.5377985   0.25309439 
   21300   -668.69502    41.046623   -627.64839    1245.2961   -5984.3657    9.2919086   0.31542486 
   21400   -675.24098    42.676026   -632.56495    1294.7298   -810.18871    9.4726826   0.26624635 
   21500   -677.00557    39.407521   -637.59804    1195.5681    11943.434    9.6574489   0.21988894 
   21600   -677.78816    38.978232   -638.80993     1182.544    -3286.303    9.5088498   0.24192718 
   21700   -675.25639    43.564654   -631.69174    1321.6895   -6569.8925    9.3828542   0.27060158 
   21800   -673.17449    42.002854   -631.17164    1274.3067      7460.34    9.5155837   0.25814795 
   21900   -678.37952     39.48013   -638.89939    1197.7709    173.53364    9.5471842   0.22468854 
   22000   -678.05432    39.134965   -638.91935    1187.2991   -2800.5486    9.5026767   0.21956231 
   22100   -675.01763    41.328445   -633.68919    1253.8461   -1911.3718    9.4590268   0.25378329 
   22200   -675.78487    43.151796   -632.63308     1309.164   -4533.6988    9.4387661   0.29424312 
   22300   -677.02315    38.760867   -638.26228    1175.9495     7096.167    9.6057019    0.2316436 
   22400   -676.78319    38.796742   -637.98645    1177.0379   -4140.2944    9.4797648   0.24108482 
   22500   -673.18615    42.415685   -630.77046    1286.8314    5253.2683    9.4951118   0.25093781 
   22600   -680.18424    43.975447   -636.20879    1334.1524    3251.0096    9.5968827   0.22630576 
   22700   -678.69031    39.281198   -639.40911    1191.7356   -2179.6298    9.5196557   0.20442375 
   22800   -675.00222    40.730484   -634.27173    1235.7049   -4247.3139    9.4313738   0.24063865 
   22900   -677.35035    45.930738   -631.41961    1393.4731     2060.353    9.5281168   0.24886545 
   23000   -679.34622    41.744007   -637.60221    1266.4537    8564.9878    9.6620806   0.23400237 
   23100   -677.49115     39.90324   -637.58791    1210.6075    3528.0174    9.5649466   0.22562951 
   23200   -674.44033    42.389001   -632.05133    1286.0219    313.85911    9.4826978   0.25119501 
   23300   -674.37688    42.273806   -632.10308     1282.527    7789.0686    9.5581457   0.23783186 
   23400   -678.63908    40.904084     -637.735    1240.9716    4284.8645    9.5907183   0.23738943 
   23500   -677.79507    42.495734   -635.29933      1289.26    2671.8458    9.5550135   0.24981801 
   23600   -670.05262     41.03136   -629.02126     1244.833    872.98657    9.3811897   0.33149042 
   23700   -676.33739    40.251028   -636.08636    1221.1588   -6126.1539    9.4330866   0.27622252 
   23800   -679.76678    41.920965   -637.84582    1271.8224   -2350.6212    9.5387934   0.21826071 
   23900   -678.91763    40.778154   -638.13948    1237.1511    962.05356    9.5587922   0.19252963 
   24000   -679.66583    38.844065   -640.82177    1178.4736    1011.0364    9.5732298   0.21904689 
   24100     -684.569     36.26907   -648.29993    1100.3519    5653.5487    9.7140145   0.18086313 
   24200   -683.27431     41.62579   -641.64852    1262.8672   -1483.6905    9.6033167   0.20158135 
   24300   -677.98873     39.84867   -638.14006    1208.9519    5884.7045    9.6026165    0.2534642 
   24400   -675.10518     39.55784   -635.54734    1200.1285   -5582.3883    9.4386331   0.26670458 
   24500   -676.09736    37.275232   -638.82212    1130.8774   -6343.8788    9.4289214   0.25336013 
   24600   -680.95338    38.664368   -642.28901    1173.0218    3107.7504    9.6176995   0.20599664 
   24700   -677.90338    42.882554   -635.02082    1300.9956    6301.7436    9.6176845   0.21843273 
   24800   -677.81151    42.591559   -635.21995    1292.1672    9536.6177     9.619397   0.22074939 
   24900   -680.37274    37.825729   -642.54701    1147.5787   -9788.2065    9.4749632   0.24625962 
   25000   -677.91205    38.898306   -639.01374    1180.1192   -2646.6852    9.5109517   0.22749779 
   25100   -677.13636    42.031128   -635.10523    1275.1645    1637.9646     9.520012    0.2342002 
   25200   -679.99841    39.459049   -640.53936    1197.1313    961.24954    9.5849298    0.2589976 
   25300   -677.77955    38.919828   -638.85972    1180.7721    465.60276    9.5266078    0.2576152 
   25400   -674.77197    42.241988   -632.52998    1281.5617   -6418.9832    9.3866002   0.29998019 
   25500   -679.30971    43.046339   -636.26337    1305.9646    -4223.817    9.4870458   0.23598666 
   25600     -679.511    39.335724   -640.17528    1193.3898    9018.6875    9.6739381   0.19428876 
   25700   -678.13128    42.403181    -635.7281    1286.4521    2238.1507    9.5618051   0.24439551 
   25800   -674.06442    40.280227   -633.78419    1222.0447   -4659.8458    9.4163746    0.2749266 
   25900   -679.21556    39.758191   -639.45737    1206.2069   -3001.1621    9.5295498   0.27231835 
   26000    -679.4806    40.859876   -638.62072    1239.6304    1174.7299    9.5675082   0.24250524 
   26100   -674.23842    42.441117   -631.79731     1287.603   -2082.4774     9.428992   0.30215418 
   26200   -678.38542    41.725157   -636.66026    1265.8818   -2619.1684    9.5180813    0.2256146 
   26300   -681.81442    41.285797   -640.52863    1252.5522    394.68363    9.6144477   0.20009424 
   26400   -677.20152    40.581558   -636.61996    1231.1866   -69.687028    9.5093489   0.28096579 
   26500   -670.64006    39.134319   -631.50574    1187.2795   -9830.5135     9.314017   0.34144228 
   26600   -677.44777    40.248771   -637.19899    1221.0904   -13142.271    9.3762033    0.2769791 
   26700   -681.80523    43.626971   -638.17826    1323.5801    1139.2408    9.6101189   0.23704833 
   26800   -675.18031    41.097457   -634.08285    1246.8383    7903.7205    9.5727233   0.25652879 
   26900   -675.53641    43.981623   -631.55478    1334.3398   -4957.9524    9.4317545   0.27394174 
   27000   -678.90258    40.107142   -638.79544    1216.7935   -5568.3145    9.4770908   0.26065697 
   27100   -676.41159    38.726381   -637.68521    1174.9032   -318.93418    9.5106575   0.25311597 
   27200   -674.84357    43.659603   -631.18396    1324.5702    5674.2033    9.5273796   0.29252609 
   27300   -672.90923     42.87571   -630.03352    1300.7879    836.64986    9.4492179   0.27813069 
   27400    -677.8858    40.258598    -637.6272    1221.3885   -4307.8168    9.4993204   0.23613303 
   27500   -678.08868    39.850662   -638.23802    1209.0123   -2960.6171    9.4829449   0.24910085 
   27600   -676.79775    38.586439   -638.21131    1170.6576    8866.1386    9.6160843   0.24459515 
   27700   -683.46169    38.191524   -645.27017    1158.6764    7993.4615    9.7277104   0.20014379 
   27800   -682.17421    38.390336   -643.78388    1164.7081   -9111.9772    9.5168763   0.20838691 
   27900   -677.58242    38.519606   -639.06281      1168.63   -7979.1183     9.444329   0.24634629 
   28000   -678.45758    41.833436   -636.62414    1269.1668   -769.41371    9.5252304    0.2450658 
   28100   -676.65902    41.517592   -635.14143    1259.5846    2552.2995    9.5256107   0.25555014 
   28200   -683.67316    40.751125   -642.92204    1236.3311   -7566.8264    9.5471883   0.22449412 
   28300   -678.69735    40.635253    -638.0621    1232.8157   -3731.8063    9.4950113   0.22674908 
   28400   -675.83613    42.000482   -633.83564    1274.2348   -2956.8238    9.4630012   0.26056066 
   28500   -679.36262    41.846385   -637.51624    1269.5597    5384.3852    9.6147088   0.23792247 
   28600   -682.25253    41.643341   -640.60919    1263.3996   -2558.2984    9.5852678   0.21555479 
   28700   -673.21976    39.331789   -633.88797    1193.2704    6235.3367    9.5203439   0.27610667 
   28800    -674.4505    38.934897   -635.51561    1181.2293   -5888.1561    9.3960459   0.26657947 
   28900   -677.90085    36.844461   -641.05639    1117.8084   -3473.4877    9.5091331   0.26538708 
   29000   -678.93319    42.795694    -636.1375    1298.3604   -1900.6102    9.5451939     0.263555 
   29100   -676.67317    43.297439   -633.37573    1313.5826   -2403.9534    9.4672788   0.26855378 
   29200   -680.26308    39.764537   -640.49854    1206.3994    591.22831    9.5660499   0.19958016 
   29300   -679.70666    37.916326   -641.79033    1150.3273   -5103.1192    9.5205546    0.2238824 
   29400   -675.55994    39.860496   -635.69945    1209.3107    6570.6499    9.5569428   0.24316602 
   29500    -677.4856    42.594286   -634.89131    1292.2499   -817.00492    9.5111325   0.24940266 
   29600   -677.00775    36.179733   -640.82802    1097.6416    3423.2036    9.5560378   0.22908248 
   29700   -680.33144    39.751201   -640.58024    1205.9948    3243.8116    9.6100534   0.20624057 
   29800   -676.19546    41.890641   -634.30482    1270.9023    6350.0721    9.5666167    0.2229748 
   29900   -680.04723    42.879404   -637.16782       1300.9   -3039.9715    9.5252969   0.21599982 
   30000   -680.45798      38.9059   -641.55208    1180.3496    1542.4294    9.5979213   0.22135265 
   30100   -678.32777     43.88308   -634.44469    1331.3501    2686.8874    9.5525937   0.24570857 
   30200   -678.22881    41.770292   -636.45851    1267.2512   -1758.3607     9.525926   0.22804653 
   30300   -682.72283     41.35701   -641.36582    1254.7128   -616.46493    9.6046997   0.19469508 
   30400   -678.58448    43.437447   -635.14703    1317.8303   -708.87897    9.5249595   0.24443061 
   30500   -678.81712    45.216503   -633.60062    1371.8043   -1555.7167    9.5196129    0.2349606 
   30600   -677.91002    37.287901   -640.62212    1131.2618   -978.12586    9.5275507   0.21940691 
   30700   -677.00792    39.080162   -637.92776    1185.6364   -4159.5466    9.4731726   0.23812891 
   30800   -673.72833     43.16397   -630.56436    1309.5333    364.13959    9.4541042   0.30250862 
   30900   -680.03485    43.421306   -636.61354    1317.3405    8466.0897    9.6505061    0.2275998 
   31000   -681.00442    42.032613   -638.97181    1275.2096    437.76179      9.58152   0.23867429 
   31100   -674.72255    40.738127   -633.98442    1235.9367     -4162.85     9.432948   0.28480369 
   31200    -676.7519    43.895667   -632.85623     1331.732    -7156.615     9.426388   0.26563667 
   31300   -680.65133    41.154774   -639.49656    1248.5772    3206.0247    9.6122306   0.22353288 
   31400   -677.48727    40.192255   -637.29501    1219.3758    13588.606     9.671101   0.21265664 
   31500   -675.47987     42.17832   -633.30154    1279.6301   -2575.6435    9.4461873   0.25598527 
   31600   -675.83825    39.071061   -636.76719    1185.3603    -8124.027    9.4059413   0.24769845 
   31700    -681.3362    40.430947   -640.90525    1226.6173   -8825.1093    9.4872873   0.21836608 
   31800   -679.74548    45.054452   -634.69103    1366.8879    6136.2992    9.6257217   0.21834523 
   31900   -676.72862    41.866715   -634.86191    1270.1765     10510.24    9.6468713   0.22493163 
   32000   -683.12254    41.436754   -641.68578    1257.1321    4636.9816     9.664198   0.18417536 
   32100   -677.92731    40.341133   -637.58618    1223.8925    2043.2673    9.5560013   0.20230194 
   32200   -673.79093    39.801624   -633.98931    1207.5246    824.14391    9.4756334   0.27133995 
   32300   -680.87926     41.96059   -638.91867    1273.0245    2749.2995    9.6013424   0.21719449 
   32400   -683.43646    43.004617   -640.43184    1304.6988    2648.8213     9.658157   0.20213938 
   32500   -674.97673    41.134938    -633.8418    1247.9754    2059.3334    9.4999242   0.26316571 
   32600   -675.12729     38.75441   -636.37288    1175.7536   -5301.3056    9.4332041    0.2734614 
   32700   -682.01907    41.976753   -640.04231    1273.5149   -12859.979    9.4513947   0.22025065 
   32800   -675.89349     39.89183   -636.00166    1210.2613   -5975.5802    9.4067455   0.28465979 
   32900   -674.13701     41.56222   -632.57479    1260.9385    2579.3209    9.4806389    0.2648675 
   33000   -677.43521     39.84371    -637.5915    1208.8014   -618.51756    9.5137731   0.23341006 
   33100   -678.39495    40.438504   -637.95645    1226.8466    4380.0879    9.5852645   0.24406606 
   33200    -675.0176    43.562036   -631.45556    1321.6101   -8547.5278    9.3761382   0.26272392 
   33300   -677.71197    39.254386   -638.45759    1190.9222   -1712.0787    9.4873337   0.22898601 
   33400   -677.72721    38.890689   -638.83652    1179.8881    1097.7502    9.5430857   0.21700212 
   33500   -678.68656    43.450506   -635.23605    1318.2265    2288.7679    9.5639564   0.22801243 
   33600   -680.66996      39.6338   -641.03616     1202.433   -2766.5292    9.5572612    0.2087752 
   33700   -681.74717    39.290351   -642.45682    1192.0133   -4151.4108    9.5575473   0.22604476 
   33800   -677.32477    41.250211   -636.07456    1251.4726   -814.81203     9.508047   0.24701337 
   33900   -678.85639    42.793284   -636.06311    1298.2872    4034.6822    9.5899876   0.21594707 
   34000   -684.32935    42.328339   -642.00101    1284.1815   -626.01807     9.624627   0.18116067 
   34100   -681.88969    40.423804   -641.46589    1226.4006   -1024.2287    9.5891703   0.20631946 
   34200    -677.3867    41.053301    -636.3334    1245.4987    814.39209    9.5246819    0.2691064 
   34300   -675.64596    41.345902   -634.30006    1254.3758   -3558.0789       9.4548   0.26117776 
   34400    -678.5044    37.476909   -641.02749     1136.996   -6602.6741    9.4603573   0.28475458 
   34500   -680.49457    41.993581   -638.50099    1274.0254   -11350.056    9.4226333   0.23110527 
   34600   -677.86873    43.768719   -634.10001    1327.8806    875.82595    9.5312178   0.24346236 
   34700   -680.93214    41.921801   -639.01034    1271.8477    10444.073    9.6891317   0.16815144 
   34800   -681.79559    40.497146   -641.29844    1228.6257   -4844.6947    9.5558129    0.2064858 
   34900    -676.4115    40.716239   -635.69526    1235.2727   -6551.9067    9.4355152   0.25230749 
   35000   -677.68329    45.522032   -632.16126    1381.0736    3034.6568    9.5413941   0.24555273 
   35100   -679.88131     39.96302   -639.91829    1212.4211    3117.9306    9.5994198   0.22439359 
   35200   -677.61364    39.820572   -637.79307    1208.0994   -1319.8629    9.5100951   0.27253732 
   35300   -676.39258    42.635657   -633.75693    1293.5051   -7337.1407    9.4236275   0.26419737 
   35400   -678.98503    39.406397   -639.57863    1195.5339   -71.308742    9.5480981   0.19638818 
   35500   -681.32726    39.412096   -641.91516    1195.7068    2541.4654     9.619847    0.1851103 
   35600   -678.76971    44.242767   -634.52695    1342.2625    1263.1539     9.543673   0.22183114 
   35700   -677.80043    42.652286   -635.14815    1294.0096    10497.737    9.6358244   0.24036514 
   35800   -681.14753    41.940327    -639.2072    1272.4098   -1886.2482    9.5573862   0.23437751 
   35900    -682.1761    40.464208   -641.71189    1227.6264   -14272.218    9.4683996   0.21062388 
   36000    -676.2164    42.683023   -633.53338    1294.9421   -3768.5346    9.4426269   0.26986826 
   36100   -677.67876    41.853183   -635.82558    1269.7659    774.29694    9.5423076   0.23922766 
   36200   -681.15116    40.649908   -640.50125    1233.2603     5133.823    9.6428821   0.20337583 
   36300   -679.35169    41.442347   -637.90934    1257.3018    5336.7394    9.6024302   0.21814253 
   36400   -675.15376    42.307641   -632.84612    1283.5535    4910.7358    9.5355005   0.23135392 
   36500    -680.1239     42.38056   -637.74334    1285.7658   -5550.9998    9.5042775   0.22240817 
   36600    -681.7325    42.558739   -639.17377    1291.1715   -2542.1292    9.5689958   0.20228009 
   36700   -677.52338    46.236829   -631.28655    1402.7595    7355.2583    9.6016826   0.21421422 
   36800   -675.45441    40.140265   -635.31415    1217.7985    8084.9663    9.5865952    0.2437153 
   36900   -677.30647     38.29656   -639.00991    1161.8631    3346.8786    9.5578561    0.2323865 
   37000   -674.27821    39.230893   -635.04732    1190.2094   -5763.4734    9.4218517   0.26039624 
   37100   -675.43798    44.977447   -630.46054    1364.5516   -4223.4768    9.4118998   0.27978936 
   37200   -679.39867    40.325936   -639.07273    1223.4315    4649.1432    9.6203135   0.20456236 
   37300   -677.44194    38.427105   -639.01483    1165.8236    806.41716    9.5472322   0.22774051 
   37400   -674.97265    41.723478   -633.24918    1265.8309    -2736.324    9.4428895   0.28189633 
   37500   -672.87955    42.059531   -630.82002    1276.0263     271.2806    9.4243851   0.30540633 
   37600   -679.02175    38.966585   -640.05516    1182.1907   -8621.2099    9.4658694    0.2593076 
   37700   -676.37548    38.424675    -637.9508    1165.7499   -547.73834     9.495547    0.2614431 
   37800   -676.33286    41.903956   -634.42891    1271.3063     14763.36    9.6531205   0.20271293 
   37900   -681.46779    41.414775   -640.05301    1256.4653   -3932.4988    9.5439052   0.20425913 
   38000   -681.45316    39.272831   -642.18033    1191.4817   -5690.6819     9.525569   0.20301274 
   38100   -677.62693    42.708784   -634.91814    1295.7237    3055.6372    9.5214514   0.22076369 
   38200   -677.29352    41.602819    -635.6907    1262.1702    1261.0123    9.5322611   0.25250153 
   38300   -681.49223    40.024922   -641.46731    1214.2991   -2836.4612    9.5626118   0.21891348 
   38400   -682.02024    40.412005   -641.60823    1226.0426    2687.4789    9.6385336   0.20560401 
   38500   -676.38992    41.222589   -635.16733    1250.6346   -969.58789    9.5004515   0.24162591 
   38600    -677.6492    41.781904    -635.8673    1267.6034     5201.355    9.5631131   0.21904401 
   38700   -681.15115    37.856046   -643.29511    1148.4985   -6043.0792    9.5234988   0.24034611 
   38800   -679.43758    40.747445   -638.69013    1236.2194    4143.5381    9.5906876   0.21387699 
   38900   -675.65943    41.068119   -634.59131    1245.9482   -938.30456    9.4929522   0.25289127 
   39000   -677.04439    40.277123   -636.76726    1221.9505   -6900.4772    9.4359768   0.25737046 
   39100   -681.70587    39.606975    -642.0989    1201.6192    3057.0706    9.6167881   0.21080103 
   39200   -680.12182    43.957003   -636.16481    1333.5928    17454.979    9.7543721   0.20238883 
   39300   -676.50298    42.205416   -634.29756    1280.4522    1529.3577    9.5241345    0.2237208 
   39400   -681.80762    40.166756   -641.64087    1218.6022   -8321.3404    9.5218011   0.20671708 
   39500   -677.35602    36.585948   -640.77008    1109.9655    1722.1058    9.5432659   0.23437117 
   39600   -676.78088    40.986792   -635.79408    1243.4809    1230.5974    9.5333682   0.23983924 
   39700    -680.7171    44.350874   -636.36622    1345.5423    4447.4356    9.6186423    0.2321127 
   39800   -683.39966    42.608879   -640.79078    1292.6927    8392.4374    9.7109378   0.19405977 
   39900   -682.72716     38.26509   -644.46207    1160.9083   -3006.8658    9.5889076   0.20399713 
   40000    -678.4992    39.716546   -638.78265    1204.9434   -11361.968    9.4262132   0.23596759 
   40100   -678.31284    41.858351   -636.45449    1269.9227   -1058.2703    9.5241765    0.2339006 
   40200   -678.62133    42.710926    -635.9104    1295.7886    4797.9152    9.5905855   0.22523556 
   40300   -684.33334    40.835015   -643.49832    1238.8762     7318.572    9.7206947   0.19410024 
   40400   -680.81412      41.8096   -639.00452    1268.4437    -3063.319     9.548345   0.22748858 
   40500   -680.43753    44.170149   -636.26738    1340.0594   -1785.8756    9.5549806   0.22296019 
   40600   -680.14046    40.846744   -639.29372     1239.232   -3180.9414    9.5263035   0.23347851 
   40700   -681.63931     41.13074   -640.50857     1247.848   -6868.2928    9.5287022   0.22880947 
   40800   -673.50178    41.989946   -631.51184    1273.9151    10912.408    9.5584562   0.23616511 
   40900   -677.44191    43.556772   -633.88514    1321.4504     6536.279    9.5958063   0.24828686 
   41000   -677.52106     40.49956    -637.0215    1228.6989    -281.8034    9.5236043   0.24397948 
   41100   -678.14356    36.461142   -641.68242    1106.1791    4162.3048    9.5866285   0.22880458 
   41200   -682.10438    36.930348   -645.17404    1120.4141   -2034.4991     9.583443   0.20815645 
   41300   -675.25681    38.653654   -636.60316    1172.6968    7.5034952     9.483701   0.22878404 
   41400   -675.36466    38.553504   -636.81115    1169.6584    5345.1775    9.5602751   0.25676323 
   41500   -678.05576    43.229643   -634.82612    1311.5258   -3374.3571     9.477121   0.24005623 
   41600   -679.46439    37.434399   -642.02999    1135.7063   -3003.9429    9.5238849   0.24053699 
   41700   -679.81079    39.832415   -639.97837    1208.4587    3685.2555    9.5966847   0.22825203 
   41800   -679.57127      44.3653   -635.20597      1345.98    12256.873    9.6772149    0.1922496 
   41900   -679.00316    43.244173   -635.75899    1311.9666    10027.606    9.6578874   0.21646724 
   42000    -681.2964    36.954381   -644.34202    1121.1433   -1350.7532    9.5813119   0.21497006 
   42100   -675.39476    35.051898   -640.34286    1063.4247   -1348.3661    9.4689959   0.23872286 
   42200   -677.35458    40.329405   -637.02517    1223.5367   -2434.5915    9.4887835    0.2351141 
   42300   -681.70486    42.164059    -639.5408    1279.1975    4140.6557    9.6372074   0.21140705 
   42400   -683.29629     40.04071   -643.25558    1214.7781    2269.5017    9.6512636   0.18545902 
   42500   -674.50749    38.690631   -635.81686    1173.8186   -3597.6274    9.4121662   0.26240169 
   42600    -677.3021    42.714399    -634.5877     1295.894   -8637.5182    9.4149522   0.24331323 
   42700   -680.87905    41.385913   -639.49314    1255.5896   -8320.8925    9.4748318   0.23568652 
   42800   -676.55754     41.17721   -635.38033    1249.2579    3737.8639    9.5461866   0.26531823 
   42900   -672.58349    41.767157   -630.81633     1267.156    11444.654    9.5563122   0.27453214 
   43000   -680.95205    44.868044     -636.084    1361.2325   -7361.3265     9.493379   0.24384947 
   43100   -680.94608    40.757614   -640.18847    1236.5279    1795.4871    9.6109587   0.20900266 
   43200   -677.50433    40.892826    -636.6115    1240.6301    7542.2762    9.6063467   0.21895659 
   43300   -676.23928    43.807157   -632.43212    1329.0467    533.81704    9.4950792   0.22805667 
   43400   -677.48342    38.552005   -638.93142    1169.6129    125.11113    9.5306502   0.24001759 
   43500   -680.51985    41.994117   -638.52573    1274.0417   -2296.0681    9.5456808   0.20928444 
   43600   -674.61413    44.043664   -630.57047     1336.222    3622.4884    9.4905251   0.25655822 
   43700   -680.97582    48.091262   -632.88456    1459.0204    6834.8462    9.6357047    0.1968995 
   43800   -679.13716    41.481803   -637.65535    1258.4988    3988.4607     9.601522   0.22005015 
   43900   -677.62512     40.69461   -636.93051    1234.6165   -3880.1546    9.4835304    0.2401763 
   44000   -677.36442     42.96951   -634.39491    1303.6337   -4088.3179    9.4743217   0.24513811 
   44100   -670.41954     44.47965   -625.93989    1349.4492    1808.4453    9.4146393   0.29324801 
   44200   -678.38543    43.757194   -634.62823    1327.5309    3693.0908    9.5829526   0.21425213 
   44300   -679.02867    42.958848   -636.06982    1303.3102   -751.09429     9.531317   0.22982195 
   44400   -677.93301    38.920539   -639.01248    1180.7937     -425.446    9.5294224   0.25520804 
   44500   -677.79891    37.697758   -640.10115    1143.6963   -1463.7159    9.5192738   0.23748782 
   44600     -674.568    42.892377   -631.67563    1301.2936    1689.0339      9.48534   0.26617908 
   44700   -676.39797     40.78035   -635.61762    1237.2177    11508.512    9.6262117   0.24202186 
   44800   -675.34507    37.604069     -637.741    1140.8539    5242.3683    9.5611123   0.26816983 
   44900   -674.54853    38.107607   -636.44093    1156.1305   -7171.6668    9.3928643   0.30238309 
   45000   -671.70523    42.515749   -629.18948    1289.8672   -5420.4058    9.3488361   0.25716874 
   45100   -677.58878    42.654437   -634.93434    1294.0749    1345.1581    9.5261181    0.2356325 
   45200   -677.00324    39.116367   -637.88688    1186.7348    2516.0665    9.5513161    0.2468892 
   45300   -681.00634    38.649587   -642.35675    1172.5734   -3880.6925    9.5525304   0.24506273 
   45400   -682.30707    39.471896   -642.83517    1197.5211    494.84932    9.6259301   0.23338042 
   45500   -679.57425    43.831739   -635.74251    1329.7925    2133.2337    9.5699108   0.24238665 
   45600   -678.40069    42.056398   -636.34429    1275.9312    827.83262    9.5182708   0.24264733 
   45700   -675.42771    35.904269   -639.52344    1089.2844   -4288.6577    9.4413906   0.28119009 
   45800   -679.08243    34.840581   -644.24185    1057.0136   -7341.8576    9.4789896   0.24463414 
   45900   -680.41232    40.601518    -639.8108    1231.7922   -5299.5201    9.5206367   0.21919355 
   46000   -679.21236    42.519598   -636.69276     1289.984    5220.1988    9.6085754   0.19373085 
   46100   -679.25257    41.713889   -637.53869    1265.5399   -1570.0284    9.5249882   0.19633171 
   46200   -676.67467    38.110501   -638.56417    1156.2183   -3404.2517    9.4776588   0.25728694 
   46300   -673.20353    42.079419   -631.12411    1276.6296   -7429.2145    9.3448488   0.32360791 
   46400   -674.46412     39.17801   -635.28611     1188.605   -5629.3274    9.4110954   0.28286098 
   46500   -679.46055     39.60136   -639.85919    1201.4489    9195.0771    9.6645721    0.2060998 
   46600   -678.19202    39.716783   -638.47524    1204.9506    10541.406    9.6551553   0.19125986 
   46700   -675.23957    43.315447   -631.92413    1314.1289   -3759.3022    9.4285565   0.23908787 
   46800   -676.95434    39.339795   -637.61454    1193.5133    510.64569    9.5105559   0.24923358 
   46900   -679.74796    40.952746   -638.79521     1242.448   -4464.5658    9.5136973   0.24322609 
   47000   -677.21854    46.004594   -631.21395    1395.7138   -523.80594    9.5021889   0.26032188 
   47100   -678.71214     41.10038   -637.61176     1246.927    1518.7854     9.562103   0.25381604 
   47200   -676.71846    36.096668   -640.62179    1095.1215   -9105.2346    9.4272336   0.26742496 
   47300    -678.4409     43.19146   -635.24944    1310.3674   -4074.8972    9.4929417   0.24288304 
   47400   -676.12405     40.53982   -635.58423    1229.9204    7237.2513    9.5806898   0.24035877 
   47500    -681.1621    39.356985   -641.80512    1194.0348   -2240.6463    9.5760437   0.20164164 
   47600   -675.28613    39.585378   -635.70075     1200.964    501.35461    9.4908797    0.2564081 
   47700   -674.54392    40.360714   -634.18321    1224.4866    264.47839    9.4695878   0.27250006 
   47800   -680.70662    40.737185   -639.96943    1235.9081     3321.143    9.6173621   0.22634154 
   47900   -684.21786    44.454955    -639.7629       1348.7    4056.0503    9.6727368   0.18566898 
   48000   -678.64587    45.497941   -633.14793    1380.3427    3188.4316    9.5795618   0.23297976 
   48100    -677.4195    40.335239   -637.08426    1223.7137   -5655.3701    9.4560256   0.26413709 
   48200    -678.2662    38.217781   -640.04842     1159.473   -5235.3037      9.48654   0.24013396 
   48300   -677.50017    44.852884   -632.64729    1360.7726     -710.026    9.5008889   0.23878862 
   48400   -675.18635     40.86599   -634.32036    1239.8159     7417.079    9.5628213   0.24251725 
   48500   -680.42708    40.699641   -639.72744    1234.7691   -7389.6824     9.488008   0.24991537 
   48600   -680.71561    45.371974   -635.34364    1376.5211   -4168.5437    9.5080285   0.23121224 
   48700   -672.31937    39.431636   -632.88774    1196.2996    608.89882    9.4416071   0.30209109 
   48800   -685.66206    44.817729   -640.84433     1359.706   -2784.2018    9.6237637   0.17983919 
   48900   -681.17478    41.598588   -639.57619    1262.0419    10124.025    9.6929477   0.19397386 
   49000   -675.62718    39.008021   -636.61916    1183.4478    1805.0968    9.5157749   0.24966399 
   49100   -673.69642    41.092763   -632.60366    1246.6959   -6969.8432    9.3807224   0.32011735 
   49200   -672.59558    43.098836   -629.49675    1307.5573   -966.34125     9.411697   0.31090536 
   49300   -675.71589    36.152255   -639.56363    1096.8079    12336.982    9.6465829   0.22099264 
   49400   -677.71692    39.123548   -638.59337    1186.9527   -1787.2076    9.5054667   0.23552711 
   49500   -676.93254    40.348962   -636.58358      1224.13   -4543.5897    9.4666945   0.24164049 
   49600   -671.77835    41.345377   -630.43297    1254.3598    3640.2442    9.4594283   0.28432128 
   49700   -672.00244    41.371305   -630.63113    1255.1464    3219.3987    9.4579143   0.27033381 
   49800   -676.98136    39.021038   -637.96032    1183.8427   -6420.1605    9.4273664   0.25267263 
   49900    -676.1547    38.739457   -637.41524    1175.2999   -11318.394    9.3876535   0.28336556 
   50000   -677.17343    44.329336   -632.84409    1344.8889    7649.8899    9.5990315   0.23086032 
   50100   -677.73308    42.880974    -634.8521    1300.9477    7808.7399    9.6111664   0.22447136 
   50200   -678.01372    37.966683   -640.04703    1151.8551    1717.9391    9.5597215   0.20126057 
   50300   -676.26779    39.836254   -636.43154    1208.5752   -1353.3186    9.4819874   0.27780982 
   50400   -672.33191     40.75361    -631.5783    1236.4065   -3703.8881    9.3945795   0.31657032 
   50500   -679.93926    41.225369    -638.7139     1250.719    3563.6862    9.6130738   0.21813877 
   50600   -681.28406    42.143572   -639.14048    1278.5759    9150.8767    9.6965511   0.19473465 
   50700   -678.08263    43.447254   -634.63538    1318.1278    721.01017    9.5449097   0.22852796 
   50800   -676.10893    41.342963   -634.76597    1254.2866    464.42508    9.4907917   0.25213707 
   50900   -681.12181    40.022529   -641.09929    1214.2265    2559.4668    9.6202581   0.21424291 
   51000    -677.8906    42.085543   -635.80505    1276.8154   -7030.9183     9.449456   0.26375219 
   51100    -676.9229    41.974905   -634.94799    1273.4588   -861.25119    9.4949495   0.22753638 
   51200     -683.155    41.921975   -641.23302     1271.853    8163.7852    9.7090849   0.16711677 
   51300    -681.6448    40.011321   -641.63348    1213.8865    1856.1125    9.6143791   0.22213552 
   51400   -675.19536    39.459142   -635.73621    1197.1341   -14145.036    9.3077551   0.28577671 
   51500   -677.08634    40.394807   -636.69153    1225.5209   -3425.6213    9.4749488   0.26744638 
   51600   -677.60335    40.517356     -637.086    1229.2389     7181.383    9.6177004   0.22157408 
   51700   -673.08756     43.24732   -629.84024    1312.0621   -2736.4053    9.4151514   0.30522416 
   51800   -674.08689    41.697679   -632.38922    1265.0482   -4616.6576    9.4020926   0.29586925 
   51900   -676.17362    38.506045   -637.66757    1168.2185    2205.9697    9.5360596   0.24412334 
   52000   -676.49758    39.615409   -636.88217    1201.8751     5396.267    9.5727693   0.21544061 
   52100   -676.95241    45.682008    -631.2704     1385.927    4131.3582    9.5520625   0.22618176 
   52200   -673.30766    40.776851   -632.53081    1237.1116    10659.772    9.5643117   0.27343019 
   52300   -679.12047     41.09335   -638.02712    1246.7137   -15037.019    9.3830141   0.27688991 
   52400   -677.65879    42.248602   -635.41019    1281.7624   -4303.1109     9.472128   0.27387035 
   52500   -675.80037    43.421487   -632.37888    1317.3461    660.65247    9.4934868   0.25239742 
   52600    -677.8788    38.343563   -639.53524    1163.2891    5730.4005    9.6109901   0.24904052 
   52700   -679.06126     42.45949   -636.60177    1288.1604    1356.2665    9.5712318   0.21164718 
   52800   -677.03606    39.932251   -637.10381    1211.4876    256.17515    9.5182673   0.24220104 
   52900   -671.84327    42.885153   -628.95812    1301.0744    1269.3104    9.4297652   0.28536672 
   53000   -676.27006     41.50832   -634.76174    1259.3033    -2091.384    9.4773914   0.30989471 
   53100   -676.00947     39.04894   -636.96053    1184.6892   -2511.9834    9.4732096   0.26631418 
   53200   -679.41529    39.108143   -640.30715    1186.4853   -1006.2489    9.5463791   0.24651814 
   53300   -680.13288     39.12057   -641.01231    1186.8624   -502.92885    9.5750887   0.22466877 
   53400   -675.00267    41.470865   -633.53181     1258.167   -258.07702    9.4783486   0.26188497 
   53500   -676.83411    40.545985   -636.28813    1230.1074      2764.51     9.546562   0.24982863 
   53600   -682.28836    42.556561    -639.7318    1291.1054   -3074.2656     9.557668   0.23554427 
   53700   -680.19099    37.904829   -642.28616    1149.9785   -6698.6743    9.5053444   0.22747321 
   53800   -676.31026    40.067635   -636.24263     1215.595    513.61335    9.5182955   0.23034722 
   53900   -675.68447     40.27922   -635.40525    1222.0142    7848.9974    9.5694724   0.23000543 
   54000   -677.36931    40.314781   -637.05453     1223.093   -5603.6037    9.4589237   0.24304038 
   54100   -680.20067    41.874943   -638.32573    1270.4261   -5993.0974    9.5010886   0.21886281 
   54200   -682.95602    38.744621    -644.2114    1175.4566    1476.7192    9.6422029   0.19306664 
   54300   -677.06684    40.177849   -636.88899    1218.9387    15515.303    9.6987706   0.20959198 
   54400   -678.14562     42.59804   -635.54758    1292.3638   -8996.2572    9.4360422   0.25429759 
   54500   -676.30341    37.721027   -638.58238    1144.4022   -628.71062    9.4929379    0.2701339 
   54600   -682.47833    39.177235   -643.30109    1188.5815    -1443.159    9.5937667   0.21035391 
   54700   -674.62187    38.373097   -636.24878    1164.1851    3891.4069    9.5165513   0.25251989 
   54800   -675.58941    40.183618   -635.40579    1219.1137   -4963.2036    9.4336483   0.26469167 
   54900   -677.56457    38.794428   -638.77014    1176.9677   -8046.8519     9.445756    0.2596034 
   55000   -677.94009     38.15443   -639.78566    1157.5511   -2443.7809    9.5046295   0.25685975 
   55100    -673.8573    40.700897   -633.15641    1234.8072    441.88515    9.4590168   0.32045818 
   55200   -678.73253    41.953148   -636.77938    1272.7987   -3893.0275    9.4952709    0.2398068 
   55300   -679.61304    40.882887   -638.73015    1240.3285    4377.3105    9.6125948   0.21529422 
   55400    -678.2693    44.194124   -634.07518    1340.7868   -87.026461    9.5369906   0.23383805 
   55500   -677.79278    42.715914   -635.07687      1295.94   -1870.7923    9.5039095   0.26206432 
   55600   -680.19917    37.884972    -642.3142    1149.3761   -490.89064    9.5617776   0.21344045 
   55700   -676.30583    39.064057   -637.24178    1185.1478   -425.35541    9.4915294    0.2454399 
   55800   -677.12262    40.758197   -636.36443    1236.5456    -1434.694    9.5035522    0.2445812 
   55900   -677.86592    37.757761   -640.10815    1145.5167   -8606.3124    9.4457387   0.27431886 
   56000   -679.26637    40.015548   -639.25082    1214.0147    -3923.264    9.5081647   0.24636829 
   56100   -674.32551    43.114413   -631.21109    1308.0299    242.37943    9.4556262   0.31910413 
   56200   -678.15935    43.179549    -634.9798     1310.006    4769.7576    9.5580634   0.22362754 
   56300    -675.7988    36.182742   -639.61606    1097.7328    5385.2425    9.5646209   0.24252477 
   56400    -677.2235    41.145443   -636.07806    1248.2941   -1760.1443    9.4882697   0.23664503 
   56500   -674.67586     40.85506    -633.8208    1239.4843    -551.8705    9.4613293   0.24195284 
   56600   -681.40291    39.096039   -642.30687    1186.1181   -1098.1331    9.5793319    0.2107054 
   56700   -677.60406    38.734226   -638.86984    1175.1412    4256.3273    9.5586867   0.25104824 
   56800   -675.58821    39.970859   -635.61735    1212.6589    -6364.297    9.4308497   0.26337355 
   56900    -677.4912    40.333441   -637.15776    1223.6591    -732.3826    9.5219076   0.23698724 
   57000   -683.56488    40.436248   -643.12863    1226.7782    11069.686    9.7570741   0.18127933 
   57100   -676.73847    38.909702   -637.82877    1180.4649    4300.6084     9.574768   0.26848505 
   57200   -673.97785    39.018892   -634.95896    1183.7776    2220.7294    9.5099142   0.27796931 
   57300   -680.04805     42.87015    -637.1779    1300.6193   -4941.0931    9.5030597   0.24656279 
   57400   -681.60507    37.373987   -644.23108    1133.8735   -68.938302     9.595452   0.20942282 
   57500   -680.28229    42.375582    -637.9067    1285.6148    6225.6835    9.6239943   0.22283375 
   57600   -678.89756    44.828244   -634.06931    1360.0251    1543.1727    9.5586031   0.22013209 
   57700    -677.5123    38.644216   -638.86808    1172.4105   -8782.1719    9.4419905   0.24964005 
   57800   -681.12492    37.498553   -643.62636    1137.6527    3576.1665    9.6379873   0.22630089 
   57900   -678.81793    43.532575   -635.28535    1320.7163    4934.6014    9.5773813   0.22825341 
   58000   -677.92691    41.844197   -636.08271    1269.4933   -4394.8723    9.4808664   0.23044258 
   58100   -682.09156    42.040588   -640.05097    1275.4515    5357.3724    9.6618131   0.20155822 
   58200   -683.46544    39.809279   -643.65616    1207.7568    6148.7333     9.698676   0.19433726 
   58300   -677.69644    42.131245   -635.56519    1278.2019   -5658.6268    9.4413816   0.24662187 
   58400   -676.50723    40.910769   -635.59646    1241.1744    4154.2239    9.5423475   0.24916244 
   58500   -678.76963    41.676589   -637.09304    1264.4083   -3094.0528    9.5042922   0.22740826 
   58600   -679.58075     40.80606   -638.77469    1237.9977    19382.484    9.7816414   0.19963547 
   58700   -675.80816    44.898317   -630.90985     1362.151    589.33344    9.4863772   0.29225764 
   58800   -672.42685    38.689784   -633.73707    1173.7929    1920.0393    9.4582519   0.24777124 
   58900   -678.77343    40.641756   -638.13167     1233.013   -5530.8995    9.4847738   0.23432949 
   59000   -681.77309    42.996479   -638.77662    1304.4519   -917.55594    9.5750686   0.21543561 
   59100   -672.99007    42.626961   -630.36311    1293.2412    4798.7751    9.4843393   0.25414116 
   59200   -677.84898    41.979885    -635.8691    1273.6099   -5909.9262    9.4458619   0.25158123 
   59300   -677.52911    39.308346   -638.22076    1192.5592    456.81714     9.524799   0.21812888 
   59400   -682.08557    43.427083   -638.65849    1317.5158    4101.6184    9.6531517    0.2002576 
   59500   -677.63458    47.587171   -630.04741     1443.727     1396.335    9.5203593   0.24335845 
   59600   -676.12391    42.608537   -633.51538    1292.6823   -1162.8636    9.4797821   0.25010988 
   59700   -682.25559    44.709448   -637.54614     1356.421   -7575.2479    9.5017618   0.20295978 
   59800   -678.18423      38.7142   -639.47003    1174.5337    7137.7199    9.6174411   0.22944367 
   59900   -673.06353    40.238266   -632.82526    1220.7717    2086.1918    9.4768267   0.27628762 
   60000   -677.75641    40.415888   -637.34053    1226.1605   -8504.6608    9.4359407   0.26354031 
   60100   -678.08529    38.692296   -639.39299    1173.8691    2693.8406    9.5666236   0.23953132 
   60200   -678.15011    42.851394   -635.29872    1300.0502    181.42941    9.5313526    0.2460179 
   60300   -675.31104    45.504974   -629.80606    1380.5561    3478.3602    9.5101136    0.2676972 
   60400   -672.81818    39.602729   -633.21545    1201.4904    6915.6665    9.5176192   0.28565448 
   60500   -679.44963    42.491494   -636.95814    1289.1314   -5226.2465    9.4996723   0.22453231 
   60600   -678.11335    39.065826   -639.04752    1185.2015    -1595.643    9.5105053   0.23105242 
   60700    -677.2233    40.881793   -636.34151    1240.2954   -8616.3507    9.4217108    0.2497137 
   60800   -670.73846    42.143987   -628.59447    1278.5885    3993.2012    9.4249711   0.33570024 
   60900   -676.36638    42.209803   -634.15657    1280.5853    10082.951    9.6024611   0.24968513 
   61000   -680.73125    42.267734   -638.46351    1282.3428    1005.1234    9.5953484   0.21624347 
   61100   -677.22143     39.91417   -637.30726    1210.9391   -6299.4133    9.4562406   0.21746602 
   61200   -671.23023    41.715337   -629.51489    1265.5839    -9082.138    9.2989452   0.29877369 
   61300   -673.08841    40.297095   -632.79131    1222.5564    2213.8475      9.47534   0.27904322 
   61400   -678.11509     41.95012   -636.16497    1272.7069    9552.4346    9.6392826   0.25102685 
   61500   -679.46444    39.761252   -639.70319    1206.2997   -3528.6205    9.5295374    0.2341528 
   61600   -680.53506    36.575531   -643.95953    1109.6495   -7471.9621    9.5000586   0.24158218 
   61700   -676.50577    40.719722   -635.78605    1235.3784   -5694.9679      9.43438   0.25363986 
   61800   -677.41479    41.815926   -635.59886    1268.6356   -2274.7176    9.5002311   0.21828509 
   61900   -681.64937    42.831594   -638.81778    1299.4495   -62.390398    9.5882672   0.21887725 
   62000   -679.99884    41.704484   -638.29435    1265.2546    2854.5315    9.5942058   0.24867963 
   62100   -672.11776    41.826964   -630.29079    1268.9705   -3181.1586    9.3834853   0.32680531 
   62200   -676.88064    42.548426   -634.33222    1290.8586    1085.1367    9.5242322   0.22743361 
   62300   -677.46833    38.863931   -638.60439    1179.0763    9682.1467    9.6258178   0.21221696 
   62400   -681.01113    44.594806   -636.41633    1352.9429   -8508.2589    9.4829706   0.21247248 
   62500   -674.91745    46.795489   -628.12196    1419.7085   -4260.5986    9.4093085   0.27598128 
   62600   -673.46602    40.362403   -633.10362    1224.5378    10222.468    9.5565283   0.28419023 
   62700   -676.26942    38.735227   -637.53419    1175.1716   -6978.8596    9.4183956   0.28316692 
   62800   -674.36887    37.544143   -636.82473    1139.0358   -5251.8951    9.3989525    0.2877596 
   62900   -672.63684    42.215047    -630.4218    1280.7444   -3479.7399     9.382478   0.31400121 
   63000   -674.54959    43.259439   -631.29015    1312.4297    5329.8677    9.5246132   0.27868968 
   63100   -676.00535    40.465302   -635.54005    1227.6596    9488.0213    9.6032114    0.2408717 
   63200   -677.36693    38.132561   -639.23437    1156.8876   -3401.9162    9.4872661   0.26367012 
   63300   -677.73065    40.630369   -637.10028    1232.6675    -6423.326    9.4580876   0.25045718 
   63400   -672.89606    42.326899   -630.56916    1284.1378   -2431.3244    9.4184747   0.32518136 
   63500   -677.44467    40.657055   -636.78761    1233.4771     9323.764    9.6183379   0.25387752 
   63600   -676.46712    39.700315   -636.76681     1204.451    2661.2244    9.5368055   0.22066482 
   63700   -677.35122    39.652312   -637.69891    1202.9947   -9651.8303     9.431673   0.22542376 
   63800   -684.11428     40.33499   -643.77929    1223.7061   -1680.5381    9.6065717   0.21684622 
   63900   -678.77471    41.198737   -637.57597     1249.911     1905.691    9.5658902   0.25837771 
   64000   -675.98345    40.590151    -635.3933    1231.4473   -10221.066    9.3824046   0.30950331 
   64100   -674.38633    39.862321   -634.52401     1209.366   -131.01793    9.4537433   0.29185772 
   64200   -678.91048    36.112819   -642.79766    1095.6115    7024.0806    9.6348703   0.20532117 
   64300   -679.84414    40.845436    -638.9987    1239.1923   -2774.1247    9.5341726   0.22634316 
   64400   -677.33177    40.532156   -636.79962    1229.6879   -2603.4173    9.5035733   0.25774968 
   64500   -672.26232    37.930995   -634.33133    1150.7724    2313.7308    9.4643994   0.28026949 
   64600   -671.12737    44.813556   -626.31381    1359.5794   -6242.7812     9.350112   0.33472548 
   64700   -675.79453    41.369388   -634.42514    1255.0883    30.679656     9.487839   0.25594631 
   64800   -676.03328     38.94276   -637.09052    1181.4679   -4401.6108    9.4535653   0.28164552 
   64900   -675.63323    40.162958   -635.47027    1218.4869   -1455.3881    9.4705851   0.27475753 
   65000   -674.16518    43.546469   -630.61872    1321.1378    5708.0491    9.5102127    0.2985192 
   65100   -671.14759    41.677335   -629.47026    1264.4309    3774.5543    9.4488862   0.29565415 
   65200   -676.77413     39.65369   -637.12044    1203.0365   -200.49295    9.5043035   0.23626966 
   65300   -677.39211    39.799697   -637.59242    1207.4661   -4555.2758    9.4694541   0.24795794 
   65400   -678.88728    43.315658   -635.57162    1314.1354    4206.7196    9.5832496   0.21703856 
   65500   -672.92984    46.090552   -626.83929    1398.3217    7455.3259    9.5165417   0.24544524 
   65600   -680.59175     46.16911   -634.42264     1400.705   -2959.8912    9.5353235   0.23670697 
   65700   -675.66685     39.73433   -635.93251     1205.483    1730.9421    9.5251604   0.29887635 
   65800   -677.22305    44.176551    -633.0465    1340.2536    8724.5202    9.6202621   0.25175178 
   65900   -678.61303    38.531938    -640.0811    1169.0041    9072.0608    9.6518818   0.22253677 
   66000   -683.80979    42.858417   -640.95138    1300.2633   -7949.2561    9.5577973   0.20537575 
   66100   -676.96499    42.025766   -634.93922    1275.0019    2980.3603    9.5321812   0.22429581 
   66200   -678.77953    43.713804   -635.06573    1326.2145   -2735.4636    9.5030743   0.23046187 
   66300   -683.49076    41.343745   -642.14702    1254.3103    2382.9416    9.6567168   0.21423275 
   66400   -682.53658    44.377656   -638.15893    1346.3548   -1561.0672    9.5826805   0.19907334 
   66500   -675.42322    42.056614   -633.36661    1275.9378   -2221.0768    9.4600537   0.26738194 
   66600   -678.26202    40.459613   -637.80241     1227.487   -8989.9175    9.4271193   0.26444804 
   66700   -678.33152    38.333226    -639.9983    1162.9755   -7981.6724    9.4455542    0.2555456 
   66800   -675.52545    41.140989   -634.38446     1248.159   -421.40286    9.4716289   0.26433779 
   66900   -675.18452    43.780623    -631.4039    1328.2417     14538.42    9.6458678   0.23744306 
   67000   -678.82048    40.177974    -638.6425    1218.9425    3011.7487    9.5823853   0.22420714 
   67100   -676.31613    39.208335    -637.1078     1189.525   -3200.3829    9.4915715   0.24370771 
   67200   -673.56788    41.523132   -632.04474    1259.7527    414.88807    9.4543605   0.28897868 
   67300    -672.1318    42.242652   -629.88914    1281.5819    2485.3277    9.4266117   0.29210066 
   67400   -682.33877     45.13278   -637.20599    1369.2642   -3155.5317     9.556567   0.22622023 
   67500   -677.79722    40.450618    -637.3466    1227.2141     6281.715    9.5946459   0.22435196 
   67600   -674.58638    41.013118   -633.57326    1244.2796    2389.6947    9.5021511   0.24584438 
   67700   -674.17103    42.802933    -631.3681      1298.58   -8861.2959    9.3635632   0.27607949 
   67800   -678.37372    38.570005   -639.80372     1170.159    4662.7845    9.5835985   0.21078295 
   67900    -679.1001    41.167368   -637.93273    1248.9593    2817.4219    9.5785055   0.20865418 
   68000   -679.36432    42.307232   -637.05708    1283.5411   -576.56796    9.5436329    0.2341339 
   68100   -672.23998    42.171526   -630.06845     1279.424   -1517.9182    9.4138502   0.23270979 
   68200    -674.4739    42.061527   -632.41238    1276.0868   -3580.8269    9.4134167   0.25511917 
   68300   -677.29823    40.003073   -637.29516    1213.6362    12293.925    9.6488375   0.22692412 
   68400   -678.20662    41.599527   -636.60709    1262.0704    3273.1411    9.5623468   0.24579071 
   68500   -675.16026    43.327007   -631.83325    1314.4797   -3923.2222    9.4112971   0.27755988 
   68600   -667.70513    39.399319   -628.30581    1195.3192    -9417.312    9.2655077   0.30454502 
   68700   -680.31412    43.383602   -636.93052    1316.1967   -5822.7747    9.5028373   0.23324542 
   68800   -680.35402    43.121261   -637.23276    1308.2376    4026.7639    9.6048612   0.21566159 
   68900    -675.5172    40.224337   -635.29286    1220.3491    6579.0105     9.558807   0.24473812 
   69000   -671.53889    42.472827   -629.06606    1288.5651     -6031.36    9.3502837   0.31977245 
   69100   -676.46434    42.795199   -633.66915    1298.3454   -11400.781    9.3813818   0.27158833 
   69200   -677.61608    39.174556   -638.44152    1188.5002    -262.1252     9.529319   0.21248331 
   69300   -677.56564    41.008257   -636.55739    1244.1321    5002.3976    9.5607852     0.253101 
   69400    -676.9497    43.814392   -633.13531    1329.2662   -7733.9363    9.4164874   0.25604121 
   69500   -678.34803    38.364904   -639.98312    1163.9365   -3299.2756    9.5147125   0.25971079 
   69600   -680.38176    42.156759     -638.225     1278.976    130.33527    9.5740868   0.23552774 
   69700   -676.90671    45.233231   -631.67348    1372.3118     10499.94    9.6093589   0.24135265 
   69800   -678.99962    41.612143   -637.38748    1262.4531   -4064.8541    9.5131433   0.26187559 
   69900   -681.80276    41.761323   -640.04144     1266.979   -10794.549    9.4718832   0.24413357 
   70000   -674.67972    41.293074   -633.38665     1252.773    5724.7538    9.5423555     0.270943 
   70100   -677.21874    43.116149   -634.10259    1308.0825   -1616.2939    9.4963869   0.24789329 
   70200    -678.7126    39.975656   -638.73694    1212.8045   -880.12337    9.5449834    0.2429232 
   70300   -679.38003    41.589116   -637.79091    1261.7545    7788.5668    9.6216057   0.20813925 
   70400   -675.88406    45.195697   -630.68836     1371.173    5187.7127    9.5404759   0.22359267 
   70500   -681.27326    44.201267   -637.07199    1341.0035   -4665.1333    9.5312178   0.22632904 
   70600   -678.09069    40.172338   -637.91835    1218.7715    3890.3828    9.5689782    0.2248212 
   70700   -673.64827    41.523133   -632.12514    1259.7527   -3468.7065    9.4152825   0.30327523 
   70800   -673.58144    42.256573   -631.32486    1282.0042    2964.8597     9.462651   0.30139854 
   70900    -676.8626    41.108712   -635.75388    1247.1797   -9248.3133    9.4078296   0.27469134 
   71000   -678.82533     38.24676   -640.57857    1160.3522    -9825.654    9.4431785   0.24612367 
   71100   -678.66344    37.443421   -641.22002      1135.98   -785.31244    9.5352681    0.2339457 
   71200   -678.22994    44.013321   -634.21661    1335.3014    -2969.435    9.4821029   0.26014519 
   71300   -676.89088     39.54816   -637.34272    1199.8348     11205.96    9.6336124   0.23843127 
   71400   -680.29031    36.703502   -643.58681    1113.5319   -5525.6878    9.5180209   0.23107984 
   71500   -674.66416    37.566241   -637.09792    1139.7062   -7622.9756    9.3955836   0.24811316 
   71600   -676.35596    40.713818   -635.64214    1235.1992   -2112.7356    9.4788303   0.22391298 
   71700   -681.83094    42.155333    -639.6756    1278.9328    2843.1748    9.6276027   0.20184992 
   71800   -681.96827     37.43753   -644.53074    1135.8013     3544.192    9.6348537   0.19835813 
   71900   -674.70649     38.75841   -635.94808    1175.8749   -7537.1207    9.3862941   0.27689992 
   72000   -676.14462    40.302555   -635.84206    1222.7221    1338.3782    9.5150988   0.22736927 
   72100   -679.52412    40.789518   -638.73461    1237.4958    10271.858     9.672883   0.19341537 
   72200   -682.86166    42.319734   -640.54193    1283.9204    2081.7027    9.6304471   0.21360514 
   72300   -674.31667    40.973443   -633.34323    1243.0759   -4327.1989    9.4318578   0.27340271 
   72400   -674.51144    37.439976   -637.07147    1135.8755   -5329.3084    9.4382041   0.27069977 
   72500   -680.81554    40.242259   -640.57328    1220.8928    376.72852    9.5841434   0.22356378 
   72600    -679.6707    40.008471   -639.66222       1213.8    6981.5776    9.6348064   0.22299294 
   72700   -676.54252    42.494808   -634.04771    1289.2319    -3103.948     9.465239   0.23896424 
   72800   -677.08935    39.094034   -637.99531    1186.0573    4793.4667    9.5651422   0.22854937 
   72900   -676.27156    37.418516   -638.85304    1135.2245    3223.6658    9.5556605   0.22153722 
   73000   -673.58679    42.881625   -630.70516    1300.9674   -3522.7118    9.4162267   0.25880538 
   73100   -680.76421    44.813257   -635.95095    1359.5704    957.56421    9.5741832     0.228627 
   73200   -678.14488    38.980791   -639.16409    1182.6217    5367.8281    9.5899025   0.22967882 
   73300   -679.40665    44.737919   -634.66873    1357.2847   -3390.7678    9.5168908   0.23415644 
   73400   -673.61491    39.749779   -633.86513    1205.9517    5995.0725    9.5236658   0.24328411 
   73500   -680.01922    38.846391   -641.17283    1178.5441    3316.6929    9.5985063   0.21021729 
   73600   -675.88414    38.948225   -636.93591    1181.6337   -235.02489    9.4957126   0.24110976 
   73700   -674.42311    40.472057   -633.95106    1227.8645    4797.8116    9.5234863   0.24495028 
   73800   -681.58533    41.458306   -640.12702    1257.7859    4997.5537    9.6481758   0.22306749 
   73900   -680.12294    41.863549   -638.25939    1270.0804     10176.62    9.6842796   0.23407965 
   74000   -678.01351    44.830618   -633.18289    1360.0971    -3340.917     9.485456   0.23475098 
   74100   -677.08643    39.442778   -637.64365    1196.6377   -10242.612     9.422729   0.25935132 
   74200   -679.56949    38.330367   -641.23912    1162.8887     1654.565    9.5901055   0.23297459 
   74300   -674.97299    41.069375   -633.90361    1245.9863    5056.9048    9.5276105   0.25852717 
   74400   -676.69836    46.131605   -630.56675    1399.5672   -1440.5069    9.4822456   0.27335845 
   74500   -679.13251    41.871778   -637.26073    1270.3301    2188.4977    9.5796074    0.2355692 
   74600   -679.22167    39.058138   -640.16353    1184.9682    86.891047    9.5567495   0.23397446 
   74700   -674.95319    42.311997   -632.64119    1283.6857   -1079.1408    9.4597585    0.2650457 
   74800   -677.15777    42.556029   -634.60174    1291.0893     1278.219    9.5161595   0.21567325 
   74900   -679.07236    39.820498   -639.25186    1208.0972   -5449.8911    9.4864081   0.23190893 
   75000   -678.82271    42.556243   -636.26647    1291.0958   -2056.4892    9.5135575   0.26113989 
   75100   -669.36972    40.992494   -628.37723    1243.6539    7248.4325    9.4572226    0.3192469 
   75200   -676.48144    41.788475   -634.69296    1267.8028    725.45931    9.5087759   0.25010275 
   75300   -678.18296     40.43255   -637.75041     1226.666   -2631.7771    9.5202565   0.25651968 
   75400    -677.8243    39.671069   -638.15323    1203.5637   -5139.7389    9.4869507    0.2532144 
   75500   -682.10212    37.254617    -644.8475     1130.252   -2854.1915    9.5717304   0.20399379 
   75600   -683.69158    41.991655   -641.69992     1273.967    11188.171    9.7561636   0.18228812 
   75700   -680.39725    43.738739   -636.65851     1326.971    2577.5432     9.592503   0.23944739 
   75800   -676.67012    40.738874   -635.93125    1235.9594    2306.8443    9.5266511   0.26530494 
   75900   -673.26221     41.00867   -632.25354    1244.1446   -4352.1713    9.3886838   0.28998525 
   76000   -670.48236    41.961795   -628.52056    1273.0611   -7262.5486    9.3015074   0.33080796 
   76100   -680.36103    44.535229    -635.8258    1351.1354   -5131.7102    9.5058028   0.23961143 
   76200    -681.8453    43.289155   -638.55615    1313.3313    1105.8876    9.5973556   0.22560808 
   76300   -679.05568    43.020518   -636.03516    1305.1812    2413.1787    9.5825792   0.20862132 
   76400   -675.66076    46.315004   -629.34576    1405.1312    677.66099    9.4941106   0.24970738 
   76500   -679.74106    41.926154    -637.8149    1271.9798     9396.275    9.6491921   0.19705135 
   76600    -677.8917    40.030574   -637.86113    1214.4706   -1728.6852    9.5137436   0.21548292 
   76700   -678.60012    42.431175   -636.16895    1287.3014   -6305.4756    9.4826741   0.24484142 
   76800   -669.96075    41.707832   -628.25291    1265.3562      350.901    9.3705949   0.33999146 
   76900   -672.23752    44.712557   -627.52496    1356.5153   -822.50894    9.4138064   0.28397744 
   77000   -677.50408    43.265771   -634.23831    1312.6219   -7752.0557    9.4273844   0.26813411 
   77100   -676.73863     41.26995   -635.46868    1252.0715   -250.25759    9.5036733   0.30059364 
   77200   -676.61723    41.739112   -634.87812    1266.3052    4684.2922    9.5443283   0.29717948 
   77300   -673.24157    45.382023   -627.85955    1376.8259   -2400.3222    9.4075931   0.29539266 
   77400    -671.9884    41.759296   -630.22911    1266.9176    5867.4269    9.4876703   0.28928714 
   77500   -676.44238    40.695422   -635.74696    1234.6411   -660.07759    9.5067689    0.2706184 
   77600   -680.28013    44.878377   -635.40175     1361.546   -20382.245    9.3505012   0.24473085 
   77700   -678.11567    38.605182   -639.51049    1171.2262    2655.2514    9.5644878    0.2460947 
   77800   -677.27529    44.391966   -632.88333     1346.789    7292.2753    9.5879842   0.22170162 
   77900   -676.83856    42.690046   -634.14852    1295.1552    5940.8319     9.568369   0.23011497 
   78000   -681.10687    42.184879   -638.92199    1279.8291   -3393.1953    9.5415656   0.23412392 
[...]
  481400   -679.29471    40.945065   -638.34964    1242.2149   -4983.6151    9.4927714   0.24968735 
  481500    -681.0191    41.144347   -639.87475    1248.2609    3790.1407    9.6162736   0.20091874 
  481600   -676.45161    42.988158   -633.46345    1304.1995    -654.9413    9.4926863    0.2792843 
  481700   -674.52631     41.02279   -633.50352     1244.573   -2021.8715    9.4518101   0.28155513 
  481800   -680.77085    39.431463   -641.33939    1196.2944   -2540.8732    9.5595678   0.23409543 
  481900   -678.73521    40.742962   -637.99225    1236.0834   -4172.0945    9.5096028   0.23432645 
  482000   -675.04907    42.434644   -632.61443    1287.4066    1432.6916    9.4802594   0.24498119 
  482100   -676.86966     38.38489   -638.48477    1164.5429    4433.5638    9.5601172   0.23081241 
  482200   -681.99025    40.538966   -641.45129    1229.8945   -11991.247     9.468865   0.22829008 
  482300   -674.65953    38.017692   -636.64184    1153.4026    1527.2407    9.4968715   0.24984226 
  482400   -675.54583     41.93744   -633.60839    1272.3222    1020.1556    9.5033886   0.26101562 
  482500   -680.89149    39.588284   -641.30321    1201.0521    10450.778    9.6996364    0.2154588 
  482600   -677.13624    37.148441    -639.9878    1127.0308    2625.1906    9.5539586    0.2494748 
  482700   -676.25769    41.043977   -635.21371    1245.2158   -8707.0821    9.3979104   0.28061604 
  482800   -676.43777    40.005079   -636.43269    1213.6971   -4295.2639    9.4675686   0.25877869 
  482900   -681.93438    39.686509   -642.24787    1204.0321    902.38396    9.6123564   0.18958226 
  483000   -682.25775    40.267108   -641.99065    1221.6467   -1360.8676    9.5848877   0.20443445 
  483100   -678.70278     42.97754   -635.72524    1303.8773   -372.69328    9.5301111   0.23484692 
  483200   -678.81708    40.370109   -638.44697    1224.7716    2751.7401    9.5694229   0.22756806 
  483300   -682.41895    43.648672   -638.77028    1324.2385    38.521191     9.598812   0.21686656 
  483400   -675.03909    44.681484    -630.3576    1355.5726    4452.8218    9.5217325   0.27127258 
  483500   -674.08963    40.573915   -633.51572    1230.9548   -3485.0481    9.4252804   0.30147962 
  483600   -675.57633    39.369815   -636.20651    1194.4241   -7099.3551    9.4087596   0.27069394 
  483700      -680.67     38.52801   -642.14199    1168.8849   -4403.5627    9.5278494   0.22072103 
  483800   -680.21389    42.575249   -637.63864    1291.6724    3758.9174    9.6089472   0.18672054 
  483900   -678.09811    43.430163   -634.66795    1317.6093    3022.9448    9.5607238   0.24754216 
  484000   -680.99452    40.531125    -640.4634    1229.6566   -1722.0657    9.5660486    0.2160758 
  484100   -682.03068    39.773054   -642.25762    1206.6578   -6333.8889    9.5185439    0.2315468 
  484200   -678.87348    42.821166   -636.05231    1299.1332   -4084.0096    9.4949364   0.23578643 
  484300   -679.02447    42.150468   -636.87401    1278.7851    5186.7071    9.6035736   0.23083579 
  484400   -677.89919     38.80385   -639.09534    1177.2535    1580.6968    9.5661241   0.24648894 
  484500   -685.49549    38.165739   -647.32975    1157.8941   -11362.325    9.5381719   0.20978022 
  484600   -680.02599    39.035649   -640.99034     1184.286   -6912.7442    9.4942889   0.23602088 
  484700   -679.68922     42.65615   -637.03307    1294.1268     7266.896    9.6230906   0.20596918 
  484800   -678.10149     42.72852   -635.37297    1296.3224    5585.4708    9.6181846   0.24338889 
  484900   -670.61022     38.98954   -631.62068    1182.8871    3485.7862    9.4499088   0.33559957 
  485000   -669.98321    43.569751   -626.41346    1321.8442    -2568.922    9.3539441   0.31329622 
  485100   -673.23125    40.677613   -632.55364    1234.1008   -3711.7454    9.3988253   0.26283547 
  485200   -676.12955    38.763932   -637.36562    1176.0425   -1032.8696    9.4864177   0.25928754 
  485300   -677.65428    38.961669   -638.69261    1182.0415    -1867.186    9.5030287   0.23510684 
  485400   -681.56453     42.00717   -639.55736    1274.4377   -4378.9331    9.5469298   0.21407826 
  485500   -671.98993    41.842098   -630.14784    1269.4296   -481.19098    9.3931558   0.28596908 
  485600   -675.73897    43.202078   -632.53689    1310.6895    4982.9024    9.5395888   0.24849606 
  485700   -677.69759     39.70149    -637.9961    1204.4866     5301.772    9.5920813   0.23408018 
  485800   -677.98665    39.709278   -638.27737    1204.7229   -2719.3209    9.5141716   0.23428311 
  485900   -673.34304    42.636773   -630.70627    1293.5389   -856.13588    9.4265607   0.25778822 
  486000   -678.46254      44.2322   -634.23034    1341.9419    -6129.276    9.4582031   0.25329047 
  486100   -680.04439    42.120185    -637.9242    1277.8664    5971.5866    9.6393937   0.21208992 
  486200   -678.68158    36.433594   -642.24799    1105.3433    5860.9456    9.6253641   0.24979769 
  486300   -674.61206    39.496838   -635.11522    1198.2778   -9614.2101    9.3635814   0.28198742 
  486400   -676.66432    41.634465   -635.02985    1263.1303   -8613.2153    9.4184962   0.26632648 
  486500    -679.7407    40.536657   -639.20405    1229.8244    3223.6346    9.5823443   0.23353093 
  486600   -680.90277    36.647431   -644.25534    1111.8308    3878.2178    9.6410834   0.20528586 
  486700   -677.31789    40.396938   -636.92095    1225.5855    6036.2263    9.5883112   0.22904727 
  486800   -679.90302    42.832197   -637.07083    1299.4678    2610.2972    9.5929052    0.2104197 
  486900   -680.72821    40.772901   -639.95531    1236.9917    5432.1999    9.6379774   0.19956228 
  487000   -676.75055    41.902681   -634.84787    1271.2676   -3321.4124     9.462478   0.25046968 
  487100   -677.74844    45.836284   -631.91216    1390.6076    -12274.59    9.3665426   0.25197783 
  487200   -677.94724    40.296232   -637.65101    1222.5303    2838.7016     9.582379   0.24301975 
  487300   -681.78447    44.063112   -637.72135     1336.812   -616.46517    9.5745072   0.22519327 
  487400   -676.65145    44.905775   -631.74567    1362.3772    3327.0321    9.5323769   0.26524709 
  487500   -675.49562    40.765362   -634.73026     1236.763    352.66673    9.4865372   0.27326122 
  487600   -677.42909    36.612086   -640.81701    1110.7585   -6220.8969    9.4695086   0.23280804 
  487700   -674.82639    38.326246   -636.50014    1162.7637    3056.9844    9.5258724   0.25664509 
  487800   -676.93017    45.308998   -631.62117    1374.6105    2578.7469     9.534484   0.22558141 
  487900   -680.11805    42.268623   -637.84943    1282.3698    11312.453    9.6941555   0.18714568 
  488000    -681.2149    39.970614   -641.24429    1212.6515    1588.3754    9.6128354   0.20239118 
  488100   -674.20746     39.13868   -635.06878    1187.4118   -3210.7532    9.4242235    0.2720443 
  488200   -676.46519    41.331222   -635.13397    1253.9304   -6325.9812    9.4333194   0.26072426 
  488300   -680.18454    39.840628   -640.34391    1208.7079   -6184.6571    9.5254799    0.2315263 
  488400   -679.44149    43.599824   -635.84167    1322.7565    3423.4464    9.5848882   0.23407418 
  488500   -677.83361    42.958421   -634.87518    1303.2973    1636.9443    9.5470283   0.23850904 
  488600   -681.43242    41.600971   -639.83145    1262.1142   -2277.1853    9.5417937   0.22708283 
  488700   -677.20434    40.946176   -636.25816    1242.2486   -10455.364    9.4036517   0.27257482 
  488800   -674.76828    42.363784   -632.40449    1285.2568   -5069.4203    9.4026857   0.27045414 
  488900   -679.85266    42.007635   -637.84503    1274.4518    2221.4645    9.5818867   0.20631277 
  489000    -678.4833    39.250506    -639.2328    1190.8044    2322.6549    9.5721391   0.23793887 
  489100   -673.19586    40.958414   -632.23744    1242.6199   -1288.4819    9.4531763    0.2699055 
  489200   -676.35125    40.739302   -635.61194    1235.9724   -2264.7151    9.4863599   0.28343006 
  489300   -681.26577     39.00932   -642.25645    1183.4872   -5100.4727    9.5479754   0.21606941 
  489400   -677.74805    38.824942   -638.92311    1177.8934   -1731.4705    9.5244946   0.25532825 
  489500   -675.82182    40.826861   -634.99496    1238.6288    6063.0119    9.5615607   0.25116397 
  489600   -678.40234    39.853848   -638.54849     1209.109    4058.6604    9.5916378   0.22223351 
  489700   -679.38339    35.984112   -643.39928    1091.7067   -105.45986    9.5804546   0.24169808 
  489800   -675.42411    40.051477   -635.37263    1215.1047   -5912.1127    9.4229455    0.2958344 
  489900   -680.36941    44.829793   -635.53962     1360.072   -6998.0924    9.4837973   0.23155996 
  490000   -678.40708    38.856307   -639.55077     1178.845    5914.9467    9.6072439   0.24545557 
  490100   -676.26891    41.559764   -634.70915     1260.864   -341.06965    9.4944114   0.22920022 
  490200   -670.76661    38.200421   -632.56619    1158.9464   -7017.0097    9.3202477   0.31021595 
  490300   -681.62379    40.799237   -640.82456    1237.7907   -1938.3222    9.5749655   0.20661304 
  490400   -681.01644    43.873203   -637.14324    1331.0505    9429.2265    9.6769828   0.20385696 
  490500   -676.74821    44.051497   -632.69671    1336.4597    3089.0797     9.536122   0.26575495 
  490600   -678.24712    40.455513   -637.79161    1227.3626   -1173.4399     9.515561   0.25574783 
  490700   -680.11049    38.494968   -641.61553    1167.8825   -2559.9034    9.5466803   0.21320902 
  490800   -677.83542    42.666644   -635.16878    1294.4452    909.97286    9.5348789   0.22985734 
  490900   -679.51624    43.328002   -636.18824    1314.5098   -1765.7066    9.5323439   0.24072678 
  491000   -682.18211    39.333446   -642.84866    1193.3207     5337.021    9.6785632   0.18736233 
  491100   -678.76391    41.649176   -637.11473    1263.5767    4925.0327    9.6136781   0.21073074 
  491200    -676.2481    39.846112   -636.40198    1208.8742    2836.9518    9.5259961   0.23354783 
  491300   -676.94905    38.282301   -638.66675    1161.4305    -10617.41    9.3984431   0.26593067 
  491400   -683.28163    38.144597   -645.13703    1157.2527    1799.5555    9.6451451   0.19383373 
  491500   -677.65036    39.509611   -638.14075    1198.6653    8058.0494    9.6128612   0.23084712 
  491600   -676.78575    39.627358   -637.15839    1202.2376   -2296.6539    9.4936179   0.29161391 
  491700   -674.55546    38.534937   -636.02053    1169.0951   -4103.6341     9.427896    0.2878468 
  491800   -674.64951    42.524203   -632.12531    1290.1237   -4805.7101    9.4027323   0.27391198 
  491900   -669.58279    41.125114   -628.45768    1247.6774   -4578.7634     9.331964   0.36548868 
  492000   -680.50484    42.978724   -637.52611    1303.9133     2910.499    9.6061744   0.22415367 
  492100   -679.88236    42.170862    -637.7115    1279.4039    5603.2913    9.6192252   0.22367764 
  492200   -679.39764    40.639083   -638.75856    1232.9319    2635.3524    9.5808216   0.21189253 
  492300    -681.8395    38.120842   -643.71866     1156.532   -4096.6542    9.5510747   0.21070916 
  492400   -674.43937    39.239688   -635.19968    1190.4762    -6107.561    9.3981734   0.26814251 
  492500   -675.80162    40.301214    -635.5004    1222.6814    7677.0937    9.5872386   0.21806081 
  492600   -679.98922    42.705616    -637.2836    1295.6275    3888.6102    9.6006523   0.24044888 
  492700   -679.63871       46.796   -632.84271     1419.724   -4864.3638     9.498485   0.22935447 
  492800   -671.90065     41.95855    -629.9421    1272.9626   -9720.7805    9.3164464   0.31704452 
  492900   -676.95059    38.088569   -638.86202    1155.5529    246.18518    9.5277288   0.25598252 
  493000   -678.29543    40.240922   -638.05451    1220.8522   -4332.4177    9.4942127   0.24969416 
  493100   -672.60253    39.485972   -633.11656    1197.9481    398.96195    9.4471371   0.30080791 
  493200   -673.68504    40.804539    -632.8805    1237.9516    -6530.608    9.3821424   0.29707058 
  493300   -680.91098    42.282136   -638.62884    1282.7798    3642.2217    9.6269491   0.21537743 
  493400   -681.76562     44.25593   -637.50969    1342.6619    14779.409    9.7476988   0.18952375 
  493500   -675.34854    43.924244    -631.4243     1332.599    1284.4685    9.4932207   0.26292081 
  493600   -673.97502    39.175224   -634.79979    1188.5205    -2917.386    9.4304361    0.3060251 
  493700   -677.13234    37.764749   -639.36759    1145.7287   -3290.9133    9.4935423   0.24680922 
  493800   -681.46864    41.566163   -639.90248    1261.0582   -64.035492    9.5788363   0.20983161 
  493900   -674.30902    41.974461   -632.33456    1273.4453    925.87375    9.4661005    0.2489524 
  494000   -676.65996    40.827249   -635.83272    1238.6406   -2523.2155    9.4853792   0.23358866 
  494100    -680.4965    40.219857   -640.27664    1220.2132   -2539.7813    9.5569429   0.20792297 
  494200   -679.72892    43.239938   -636.48898    1311.8381    11316.925    9.6932308   0.23997657 
  494300     -675.431    44.166126   -631.26487    1339.9373    10909.758    9.6138846    0.2497712 
  494400   -677.24334    39.907893   -637.33545    1210.7486   -2809.3982    9.4740031   0.26497155 
  494500   -679.62862    41.330445   -638.29818    1253.9068   -10524.613    9.4377766   0.28893486 
  494600   -672.55652     41.07154   -631.48498     1246.052   -6366.5884    9.3663508   0.32758505 
  494700   -674.89879    42.159799   -632.73899    1279.0682    10371.348    9.5953606   0.25082833 
  494800   -680.11165    42.093149   -638.01851    1277.0462   -37.418324    9.5580865   0.21209531 
  494900   -677.19943    39.595822   -637.60361    1201.2808   -3994.5632    9.4754787   0.25810577 
  495000   -671.55081    39.874301   -631.67651    1209.7295   -284.19171    9.4246034   0.30029783 
  495100   -674.10968    40.138538   -633.97114    1217.7461   -1785.7949     9.426371   0.31555598 
  495200    -678.7476    40.459917   -638.28768    1227.4962   -1784.1921    9.5190303   0.24487311 
  495300   -677.69414     40.03843   -637.65571    1214.7089    3010.1349    9.5565142   0.22883723 
  495400   -672.78444    42.442611   -630.34183    1287.6484   -3251.3102    9.3807819   0.28101609 
  495500   -671.27596    38.862306   -632.41366     1179.027   -8806.0948     9.317513   0.33651586 
  495600   -677.88036    40.690679   -637.18969    1234.4972   -4487.0381    9.4655725    0.2745691 
  495700    -678.9687    40.120893   -638.84781    1217.2107    6195.2198    9.6094192   0.22810237 
  495800   -680.61739    37.216967   -643.40042    1129.1098    747.94089    9.5989953   0.21876028 
  495900    -682.2863    38.416796    -643.8695    1165.5109   -1274.0705    9.6019486   0.20488168 
  496000   -679.43706    41.225995   -638.21107     1250.738     3608.903    9.6021401   0.19967827 
  496100   -678.72339    42.748303   -635.97508    1296.9226    8875.0585    9.6385825   0.20892954 
  496200   -678.88082    41.068914    -637.8119    1245.9723    3596.7484    9.5892084   0.25657902 
  496300   -681.65365    36.511537   -645.14211     1107.708   -10655.291    9.4915275   0.23871666 
  496400   -680.02249    38.634118   -641.38838    1172.1041   -5687.0781     9.507572   0.22586257 
  496500   -675.32868    38.656375    -636.6723    1172.7793    13307.668    9.6432984   0.21033277 
  496600   -679.87585    41.812789   -638.06306    1268.5405    3150.7907    9.5976151   0.20674387 
  496700   -683.23895    41.438427   -641.80052    1257.1828   -3118.7782    9.5854394   0.18459782 
  496800   -675.23923    41.526592   -633.71264    1259.8576   -1132.8904    9.4660783   0.25243902 
  496900   -674.52997    38.517175   -636.01279    1168.5562    2466.8743     9.513736   0.27106914 
  497000   -679.86857    41.066098   -638.80247    1245.8869     5460.203    9.6289682   0.22377795 
  497100   -680.29822    38.786902   -641.51132    1176.7394   -4999.8427    9.5151549   0.22258862 
  497200   -672.77841    39.111587   -633.66683    1186.5898   -7849.3933    9.3479766   0.31271383 
  497300    -675.8265    40.752527   -635.07397    1236.3736   -9988.4324    9.3776506   0.27236355 
  497400   -678.52885    37.438488   -641.09037    1135.8304    2988.9491    9.5859593   0.23330946 
  497500   -677.95884    41.291637    -636.6672    1252.7294    514.70849    9.5298904   0.22782661 
  497600     -678.135    44.496335   -633.63866    1349.9554    1154.1891    9.5289401   0.21446857 
  497700   -680.52595    41.785286   -638.74067    1267.7061   -2635.6243    9.5309545   0.20998748 
  497800   -679.70241    38.470361   -641.23205     1167.136    2191.1042     9.604416   0.20815638 
  497900   -675.73468    43.811877    -631.9228    1329.1899    3049.8738    9.5141426   0.25215476 
  498000   -678.74504    44.442856   -634.30219    1348.3329    4444.2532    9.5784396   0.22552766 
  498100   -680.29716    40.144593   -640.15256    1217.9297    2061.0197    9.6146324   0.22112832 
  498200   -677.94767    40.357957   -637.58971    1224.4029    274.74998    9.5375691     0.237264 
  498300   -671.72003    41.383567   -630.33647    1255.5185    3340.9845    9.4412079   0.29704497 
  498400   -675.04816    40.126536   -634.92162    1217.3819   -1202.5852    9.4665778   0.28456438 
  498500   -679.56363    39.932656   -639.63098    1211.4999    597.54301    9.5759805   0.23606297 
  498600   -678.67309    43.084369   -635.58872    1307.1184    4748.6731    9.5833592   0.24646289 
  498700   -675.86994    42.915336   -632.95461    1301.9902   -3580.8687     9.450927    0.2864806 
  498800   -680.26165    39.858699   -640.40295    1209.2561   -1638.0637    9.5530698   0.22607996 
  498900   -679.22283    42.173705   -637.04913    1279.4901    -2720.744     9.521114   0.22707687 
  499000   -676.64462    43.960917    -632.6837    1333.7116    4033.3311    9.5350295   0.24500873 
  499100    -676.9842     38.72859   -638.25561    1174.9703   -471.95199    9.5172478   0.26436211 
  499200   -680.57502    40.688003   -639.88702     1234.416   -8535.6798    9.4810189   0.22882584 
  499300   -678.62372    45.024705   -633.59901    1365.9854   -241.04762    9.5208869   0.23858776 
  499400   -677.39095    43.499471   -633.89148     1319.712    11081.397    9.6448549   0.24570234 
  499500   -681.02441    39.794465   -641.22994    1207.3074     1596.182    9.6025619   0.22284698 
  499600    -677.5596    39.952978   -637.60662    1212.1164     -6265.74    9.4552075   0.25783837 
  499700   -674.88415    43.239758    -631.6444    1311.8326    -5583.195    9.4059238   0.28838178 
  499800   -679.38145    42.203297   -637.17815    1280.3879    10899.325    9.6710147   0.20657693 
  499900   -680.96912    39.972246   -640.99687     1212.701    308.11832     9.582599    0.2253925 
  500000   -675.63438    40.124821   -635.50956    1217.3299   -8657.5355    9.3990441   0.27912573 
Loop time of 349.876 on 1 procs for 500000 steps with 256 atoms

Performance: 617.361 ns/day, 0.039 hours/ns, 1429.076 timesteps/s
100.0% CPU use with 1 MPI tasks x no OpenMP threads

MPI task timing breakdown:
Section |  min time  |  avg time  |  max time  |%varavg| %total
---------------------------------------------------------------
Pair    | 209.86     | 209.86     | 209.86     |   0.0 | 59.98
Neigh   | 13.758     | 13.758     | 13.758     |   0.0 |  3.93
Comm    | 3.8453     | 3.8453     | 3.8453     |   0.0 |  1.10
Output  | 0.14726    | 0.14726    | 0.14726    |   0.0 |  0.04
Modify  | 121.45     | 121.45     | 121.45     |   0.0 | 34.71
Other   |            | 0.8139     |            |       |  0.23

Nlocal:    256 ave 256 max 256 min
Histogram: 1 0 0 0 0 0 0 0 0 0
Nghost:    1431 ave 1431 max 1431 min
Histogram: 1 0 0 0 0 0 0 0 0 0
Neighs:    11453 ave 11453 max 11453 min
Histogram: 1 0 0 0 0 0 0 0 0 0

Total # of neighbors = 11453
Ave neighs/atom = 44.7383
Neighbor list builds = 25102
Dangerous builds = 0
Total wall time: 0:05:49
