LAMMPS (3 Mar 2020)

    # ---------- Initialize simulation ---------------------
    units metal
    atom_style atomic
    dimension  3
    boundary   p p p
    read_data /home/modeler/RemLabs/Lab4/Problem2A_size_7/temp_1300/lammps.data
  orthogonal box = (0 0 0) to (28.63 28.63 28.63)
  1 by 1 by 1 MPI processor grid
  reading atoms ...
  1372 atoms
  read_data CPU = 0.00184565 secs

    pair_style eam
    pair_coeff * * /usr/share/lammps-stable/potentials/Ag_u3.eam
Reading potential file /usr/share/lammps-stable/potentials/Ag_u3.eam with DATE: 2007-06-11

    velocity  all create 1300 87287 dist gaussian

    # ---------- Describe computed properties------------------
    compute msdall all msd
    thermo_style custom step pe ke etotal temp press density c_msdall[4]
    thermo 100

    # ---------- Specify ensemble  ---------------------
    #fix  1 all nve
    fix  1 all nvt temp 1300 1300 0.05

    # --------- Compute RDF ---------------
    compute rdfall all rdf 100 1 1
    fix 2 all ave/time 1 2500 2500 c_rdfall[*] file /home/modeler/RemLabs/Lab4/Problem2A_size_7/temp_1300/lammps.rdf mode vector

    # --------- Run -------------
    timestep 0.001
    run 10000
Neighbor list info ...
  update every 1 steps, delay 10 steps, check yes
  max neighbors/atom: 2000, page size: 100000
  master list distance cutoff = 7.55
  ghost atom cutoff = 7.55
  binsize = 3.775, bins = 8 8 8
  2 neighbor lists, perpetual/occasional/extra = 1 1 0
  (1) pair eam, perpetual
      attributes: half, newton on
      pair build: half/bin/atomonly/newton
      stencil: half/bin/3d/newton
      bin: standard
  (2) compute rdf, occasional, copy from (1)
      attributes: half, newton on
      pair build: copy
      stencil: none
      bin: none
Per MPI rank memory allocation (min/avg/max) = 3.83 | 3.83 | 3.83 Mbytes
Step PotEng KinEng TotEng Temp Press Density c_msdall[4] 
       0      -3910.2    230.38036   -3679.8196         1300    10485.716    10.472245            0 
     100   -3771.3804     128.3815   -3642.9989    724.43653    43026.221    10.472245  0.075174012 
     200    -3749.911    192.32273   -3557.5882    1085.2468    51709.436    10.472245  0.088455711 
     300   -3697.4726    229.88557    -3467.587     1297.208    67379.767    10.472245   0.11581506 
     400   -3663.8992    245.62625   -3418.2729    1386.0302    76856.898    10.472245   0.13553439 
     500   -3674.4898    232.68339   -3441.8064    1312.9957    73548.535    10.472245   0.13521008 
     600   -3692.1257    225.40521   -3466.7205    1271.9261    68712.466    10.472245   0.12159467 
     700   -3689.5497    238.32621   -3451.2235    1344.8372    70068.715    10.472245   0.11340641 
     800   -3678.3856    236.69874   -3441.6869    1335.6536    72828.965    10.472245   0.11222964 
     900   -3684.6393    225.83883   -3458.8005    1274.3729    70924.744    10.472245   0.11297786 
    1000   -3677.6179    227.50235   -3450.1155    1283.7599    72237.536    10.472245   0.11351079 
    1100    -3673.165    235.47108   -3437.6939    1328.7261    74249.597    10.472245   0.11189804 
    1200   -3684.1931    223.55322   -3460.6399    1261.4756    70975.411    10.472245   0.11396137 
    1300   -3676.9445    223.22705   -3453.7175     1259.635    72681.351    10.472245   0.11915674 
    1400   -3672.9285    229.67199   -3443.2565    1296.0028    73726.092    10.472245   0.12228845 
    1500   -3679.7975    226.40322   -3453.3943    1277.5576    72050.011    10.472245   0.12267123 
    1600    -3678.057    233.21925   -3444.8377    1316.0195    72961.816    10.472245   0.12060322 
    1700   -3675.4531    225.72352   -3449.7296    1273.7222    72972.013    10.472245   0.12070631 
    1800   -3681.5311    231.32428   -3450.2068    1305.3264    72217.015    10.472245   0.11293376 
    1900    -3681.691    231.48073   -3450.2102    1306.2093    72021.276    10.472245   0.10888517 
    2000    -3677.414    226.54621   -3450.8678    1278.3645    72474.393    10.472245   0.10974577 
    2100   -3683.7738    232.74124   -3451.0326    1313.3221    71158.114    10.472245   0.10974679 
    2200   -3682.1662    227.08282   -3455.0834    1281.3925    71520.899    10.472245   0.11627759 
    2300   -3675.7754    230.28106   -3445.4944    1299.4397    73587.196    10.472245    0.1203271 
    2400   -3675.9438    221.33777   -3454.6061    1248.9741    72863.296    10.472245   0.12304166 
    2500   -3677.7653    232.01903   -3445.7462    1309.2468    73092.873    10.472245   0.11677444 
    2600   -3674.8434    227.77441   -3447.0689    1285.2951    73593.829    10.472245   0.11415529 
    2700   -3687.5414    228.85359   -3458.6878    1291.3847    70289.602    10.472245   0.10434611 
    2800   -3681.6327     234.1491   -3447.4836    1321.2664    72184.527    10.472245   0.10421956 
    2900   -3668.6414    230.97382   -3437.6676    1303.3488    75136.172    10.472245    0.1160464 
    3000   -3684.2547    229.91989   -3454.3348    1297.4017    71553.689    10.472245   0.11485568 
    3100     -3679.14    227.69446   -3451.4456    1284.8439    72308.511    10.472245   0.11461946 
    3200   -3676.6271    221.60753   -3455.0196    1250.4963    72521.637    10.472245   0.11746462 
    3300   -3688.0766    242.05305   -3446.0236    1365.8672    70819.165    10.472245    0.1110884 
    3400   -3673.3111    221.97415    -3451.337    1252.5651    73336.887    10.472245   0.11598866 
    3500   -3679.6582    234.79589   -3444.8623    1324.9162    72627.717    10.472245   0.10831978 
    3600   -3686.7206    228.61571   -3458.1049    1290.0424    70037.388    10.472245   0.10626404 
    3700   -3683.4176    231.62121   -3451.7964    1307.0019    71690.378    10.472245   0.11076127 
    3800   -3677.6857    229.25233   -3448.4333    1293.6347    72772.203    10.472245    0.1149846 
    3900   -3683.5013    226.58724    -3456.914     1278.596     71189.12    10.472245   0.11597125 
    4000   -3683.3351    237.20084   -3446.1342    1338.4869    71391.686    10.472245   0.11346586 
    4100   -3675.8381    225.24301   -3450.5951    1271.0108     73134.75    10.472245    0.1143558 
    4200   -3676.3688    227.81161   -3448.5572     1285.505     73221.67    10.472245   0.11124081 
    4300   -3682.5985    225.74621   -3456.8522    1273.8502    71345.529    10.472245   0.10988506 
    4400   -3682.0454    230.62535     -3451.42    1301.3825    72058.763    10.472245   0.11183335 
    4500   -3671.5899    236.93365   -3434.6563    1336.9792    74921.735    10.472245   0.11584654 
    4600   -3681.5729    235.53244   -3446.0404    1329.0724    72170.967    10.472245   0.10749382 
    4700   -3681.2077    225.45321   -3455.7545    1272.1969    71353.278    10.472245   0.10879401 
    4800   -3680.0363    237.65627   -3442.3801    1341.0569    72775.547    10.472245   0.11140435 
    4900   -3685.1805    230.09871   -3455.0818    1298.4107    70606.332    10.472245   0.11589721 
    5000   -3692.7196     231.9796     -3460.74    1309.0243    69439.633    10.472245   0.11040217 
    5100   -3674.8006    234.58816   -3440.2124     1323.744    73931.217    10.472245   0.11472006 
    5200   -3680.8784    228.45065   -3452.4277     1289.111    72099.286    10.472245   0.11181822 
    5300   -3685.8028    231.33511   -3454.4677    1305.3875    70768.809    10.472245     0.107292 
    5400   -3676.8566    238.07648   -3438.7801     1343.428    73509.849    10.472245   0.10824568 
    5500   -3677.5464    226.39279   -3451.1536    1277.4988    73226.463    10.472245   0.11204163 
    5600   -3682.3462    232.32283   -3450.0234    1310.9611    71745.343    10.472245   0.10682329 
    5700   -3684.1555    225.44435   -3458.7112    1272.1469    71428.396    10.472245   0.11236056 
    5800   -3675.6989     229.5559    -3446.143    1295.3477    73290.062    10.472245   0.11737021 
    5900   -3674.2992    226.21152   -3448.0877    1276.4759    73309.611    10.472245   0.11685378 
    6000   -3689.0841    234.63298   -3454.4511    1323.9969    69856.784    10.472245   0.10403168 
    6100   -3691.8836    224.64446   -3467.2392    1267.6332    69009.191    10.472245   0.10083328 
    6200   -3683.6289    230.99702   -3452.6319    1303.4797    71464.699    10.472245   0.10777707 
    6300   -3672.6788    228.21778   -3444.4611    1287.7969    74081.351    10.472245   0.11637926 
    6400   -3677.5932    227.71146   -3449.8818    1284.9398    72992.722    10.472245   0.11540012 
    6500   -3685.2955    234.99492   -3450.3006    1326.0393    71137.494    10.472245   0.11193071 
    6600   -3678.5194    226.22178   -3452.2976    1276.5338    72336.902    10.472245   0.11709761 
    6700   -3679.2206    236.11667   -3443.1039    1332.3691    72675.111    10.472245    0.1136024 
    6800   -3681.0126    229.77575   -3451.2368    1296.5883    71964.039    10.472245   0.11449514 
    6900   -3680.8626    235.41034   -3445.4523    1328.3834    71979.553    10.472245   0.11668352 
    7000   -3671.3996    238.49648   -3432.9031     1345.798    74586.658    10.472245   0.12051237 
    7100   -3682.6002    232.26918    -3450.331    1310.6583    71538.421    10.472245   0.11668757 
    7200    -3686.609    230.60168   -3456.0073    1301.2489     70681.58    10.472245   0.11224818 
    7300   -3677.5516    238.73669   -3438.8149    1347.1535     73091.28    10.472245   0.10914533 
    7400   -3680.3918    232.73428   -3447.6575    1313.2828    72394.846    10.472245   0.11117452 
    7500   -3691.0202    234.43598   -3456.5842    1322.8852    69358.173    10.472245   0.11324906 
    7600   -3688.2723    229.38412   -3458.8882    1294.3784    69614.786    10.472245   0.12047496 
    7700   -3674.5726    227.35128   -3447.2214    1282.9074    73666.139    10.472245   0.12661774 
    7800   -3669.9449    230.33506   -3439.6099    1299.7444     74699.93    10.472245   0.12583732 
    7900   -3681.6996    232.08384   -3449.6158    1309.6125    72003.807    10.472245   0.11538764 
    8000   -3686.9458    227.49936   -3459.4465     1283.743    69979.184    10.472245   0.10748813 
    8100   -3679.0711      225.629   -3453.4421    1273.1889    71714.362    10.472245   0.11027153 
    8200   -3676.8523    232.39751   -3444.4547    1311.3825    73072.154    10.472245   0.11046878 
    8300    -3683.765    228.89245   -3454.8726     1291.604    70986.117    10.472245    0.1100219 
    8400   -3683.8393    229.53511   -3454.3042    1295.2304    71300.821    10.472245    0.1107646 
    8500   -3678.4581     228.4569   -3450.0012    1289.1462    72381.185    10.472245   0.11554149 
    8600   -3675.3819    234.01708   -3441.3649    1320.5215    73486.545    10.472245   0.12341378 
    8700   -3667.3502    224.89634   -3442.4538    1269.0546     75099.71    10.472245   0.12861378 
    8800   -3682.1755    229.00044    -3453.175    1292.2134    71171.507    10.472245   0.11686682 
    8900    -3688.754     226.7182   -3462.0358     1279.335    69773.994    10.472245   0.11300329 
    9000   -3679.5999    227.63547   -3451.9645    1284.5111    71680.318    10.472245   0.11753563 
    9100   -3677.0281    230.11246   -3446.9156    1298.4883     72869.02    10.472245    0.1185427 
    9200   -3678.4542    229.54523   -3448.9089    1295.2875    72655.175    10.472245   0.11370694 
    9300   -3681.7836    225.12656   -3456.6571    1270.3536     71535.64    10.472245   0.10725078 
    9400   -3690.6734    237.57713   -3453.0963    1340.6102    69844.081    10.472245   0.10257776 
    9500   -3675.4718    237.59062   -3437.8812    1340.6864    73595.424    10.472245   0.10945209 
    9600   -3679.8675    228.12987   -3451.7376    1287.3009    72551.142    10.472245   0.11484951 
    9700   -3680.0329    234.70266   -3445.3302    1324.3901    72542.596    10.472245   0.11309447 
    9800   -3679.0389    220.05085   -3458.9881    1241.7122    71988.504    10.472245   0.10899071 
    9900   -3687.1448     222.3229   -3464.8219    1254.5331    70320.293    10.472245   0.10224258 
   10000   -3681.5543     213.9461   -3467.6082    1207.2641    70800.813    10.472245   0.10924993 
Loop time of 37.7763 on 1 procs for 10000 steps with 1372 atoms

Performance: 22.871 ns/day, 1.049 hours/ns, 264.716 timesteps/s
100.0% CPU use with 1 MPI tasks x no OpenMP threads

MPI task timing breakdown:
Section |  min time  |  avg time  |  max time  |%varavg| %total
---------------------------------------------------------------
Pair    | 23.686     | 23.686     | 23.686     |   0.0 | 62.70
Neigh   | 0.3226     | 0.3226     | 0.3226     |   0.0 |  0.85
Comm    | 0.18062    | 0.18062    | 0.18062    |   0.0 |  0.48
Output  | 0.0049492  | 0.0049492  | 0.0049492  |   0.0 |  0.01
Modify  | 13.506     | 13.506     | 13.506     |   0.0 | 35.75
Other   |            | 0.07545    |            |       |  0.20

Nlocal:    1372 ave 1372 max 1372 min
Histogram: 1 0 0 0 0 0 0 0 0 0
Nghost:    3258 ave 3258 max 3258 min
Histogram: 1 0 0 0 0 0 0 0 0 0
Neighs:    69778 ave 69778 max 69778 min
Histogram: 1 0 0 0 0 0 0 0 0 0

Total # of neighbors = 69778
Ave neighs/atom = 50.8586
Neighbor list builds = 105
Dangerous builds = 0
    
Total wall time: 0:00:37
