LAMMPS (3 Mar 2020)

# ---------- 1. Initialize simulation ----------
units metal
atom_style atomic
dimension 3
boundary p p p
read_data /home/modeler/RemLabs/Project/Si_3x3x3_supercell_MD/1800/20201204-035736/lammps.data
  orthogonal box = (0 0 0) to (17.469 17.469 17.469)
  1 by 1 by 1 MPI processor grid
  reading atoms ...
  217 atoms
  read_data CPU = 0.00107965 secs

pair_style meam/c
pair_coeff * * library.meam Li Si LiSi.meam Li Si
Reading potential file library.meam with DATE: 2012-06-29
Reading potential file LiSi.meam with DATE: 2020-11-07

group Li type 1
1 atoms in group Li

velocity all create 1800 3320 dist gaussian

# ---------- 2. Describe computed properties----------
compute msdli Li msd
thermo_style custom step pe ke etotal temp press density c_msdli[4]
thermo 100

# ---------- 3. Specify ensemble  ----------
#fix 1 all nve
fix 1 all nvt temp 1800 1800 0.024999999999999994
#fix 1 all npt temp 1800 1800 0.024999999999999994 tchain 2 iso 1.0 1.0 1.0 pchain 2

# ---------- 4. Run -------------
timestep 0.0004999999999999999
run 10001
Neighbor list info ...
  update every 1 steps, delay 10 steps, check yes
  max neighbors/atom: 2000, page size: 100000
  master list distance cutoff = 6
  ghost atom cutoff = 6
  binsize = 3, bins = 6 6 6
  2 neighbor lists, perpetual/occasional/extra = 2 0 0
  (1) pair meam/c, perpetual
      attributes: full, newton on
      pair build: full/bin/atomonly
      stencil: full/bin/3d
      bin: standard
  (2) pair meam/c, perpetual, half/full from (1)
      attributes: half, newton on
      pair build: halffull/newton
      stencil: none
      bin: none
Per MPI rank memory allocation (min/avg/max) = 9.266 | 9.266 | 9.266 Mbytes
Step PotEng KinEng TotEng Temp Press Density c_msdli[4] 
       0   -951.06911    50.256344   -900.81276         1800    -114182.3    1.8918427            0 
     100    -914.4565    27.022325   -887.43417    967.84168   -82423.869    1.8918427   0.13684878 
     200   -912.77345    51.286623   -861.48683    1836.9008   -70394.684    1.8918427  0.089895256 
     300   -897.64358    50.415956   -847.22762    1805.7167   -58782.012    1.8918427   0.50375986 
     400   -904.23226    52.534384   -851.69787    1881.5911   -64744.447    1.8918427   0.45521412 
     500   -909.62932    51.581329   -858.04799    1847.4561   -70309.466    1.8918427   0.19197894 
     600   -903.04318    48.772259   -854.27092    1746.8454   -62598.712    1.8918427   0.50812641 
     700   -902.46963    47.733942   -854.73569    1709.6567   -61852.385    1.8918427   0.33980304 
     800   -901.00606    54.495487   -846.51057    1951.8307   -60684.075    1.8918427   0.23603783 
     900   -906.13462    47.896979   -858.23764    1715.4961   -64933.843    1.8918427   0.11248362 
    1000   -902.99054    50.365312   -852.62523    1803.9028   -63719.258    1.8918427   0.24530573 
    1100   -904.42976    52.447646   -851.98211    1878.4845   -61837.131    1.8918427   0.26959801 
    1200   -907.33973    49.614092   -857.72564    1776.9968    -66344.21    1.8918427  0.016642311 
    1300   -904.58557    53.750973   -850.83459    1925.1649   -65320.717    1.8918427   0.32340406 
    1400   -901.18257    48.299658   -852.88291    1729.9186   -60076.692    1.8918427   0.32592256 
    1500   -904.97261    43.619538   -861.35307    1562.2937   -67499.903    1.8918427  0.069174222 
    1600   -913.50516    52.747062   -860.75809    1889.2085   -72913.921    1.8918427   0.19142934 
    1700   -902.45533    50.193201   -852.26212    1797.7384   -65238.808    1.8918427   0.13929836 
    1800   -906.19843     53.08127   -853.11715    1901.1786   -64913.306    1.8918427   0.13708288 
    1900   -904.72632    51.511024   -853.21529    1844.9381   -65356.601    1.8918427   0.44675551 
    2000   -903.85066    48.340785   -855.50987    1731.3916   -63408.817    1.8918427   0.30432895 
    2100   -907.08464     49.48577   -857.59886    1772.4008   -66512.819    1.8918427   0.21999238 
    2200   -903.03722    49.329076   -853.70814    1766.7886   -63945.307    1.8918427      0.20679 
    2300   -904.11761    52.339534   -851.77808    1874.6123   -64408.951    1.8918427   0.14232812 
    2400   -904.66348    46.951757   -857.71173    1681.6417    -64637.98    1.8918427   0.23760511 
    2500   -904.04708    49.014192   -855.03288    1755.5106   -64148.595    1.8918427   0.38207457 
    2600   -902.18369    51.964079   -850.21961    1861.1648   -61524.501    1.8918427   0.21289385 
    2700   -904.61167    47.213815   -857.39785    1691.0276   -66095.704    1.8918427  0.028839166 
    2800   -907.29084    51.080911   -856.20993     1829.533   -67474.449    1.8918427  0.083500108 
    2900   -898.60839    47.000526   -851.60787    1683.3884   -60540.434    1.8918427  0.021428921 
    3000   -902.66606    45.603164    -857.0629      1633.34   -65969.968    1.8918427   0.23832636 
    3100   -905.22413     54.61703    -850.6071    1956.1839   -65071.331    1.8918427   0.08471408 
    3200   -903.49633    46.011217   -857.48511    1647.9549   -67368.611    1.8918427   0.20010952 
    3300   -901.63138    52.382887   -849.24849    1876.1651   -63115.499    1.8918427   0.25145511 
    3400   -903.67617    53.414118   -850.26205       1913.1   -65235.791    1.8918427   0.14693812 
    3500   -905.64506    49.803592   -855.84147     1783.784   -66534.558    1.8918427  0.059651665 
    3600   -903.30557    49.673326   -853.63224    1779.1184   -65464.892    1.8918427   0.23848087 
    3700   -901.13683    51.533941   -849.60289    1845.7589   -61743.283    1.8918427  0.037154107 
    3800   -904.80816    48.761998   -856.04616    1746.4779   -69249.041    1.8918427  0.039589285 
    3900   -905.56892    50.627701   -854.94122    1813.3006   -68406.267    1.8918427  0.083918245 
    4000   -903.54964    51.467205   -852.08243    1843.3687   -67195.851    1.8918427   0.17795423 
    4100   -902.72499    51.706645   -851.01835    1851.9445   -67144.077    1.8918427  0.082429277 
    4200    -905.7862    57.129281   -848.65692    2046.1637   -64367.358    1.8918427  0.043616093 
    4300   -901.81435    42.998889   -858.81546    1540.0643   -66503.005    1.8918427   0.21865103 
    4400   -902.90066    50.243117   -852.65754    1799.5263   -64227.855    1.8918427   0.16206224 
    4500   -901.63974    48.636858   -853.00289    1741.9959   -63088.224    1.8918427  0.028578797 
    4600   -905.83906    52.097165    -853.7419    1865.9315   -69336.267    1.8918427  0.040607488 
    4700   -903.48575    50.135586   -853.35017    1795.6749   -64788.399    1.8918427     0.106168 
    4800   -903.17678     47.39006   -855.78672    1697.3401   -67120.435    1.8918427   0.15538303 
    4900    -907.8479    51.146544   -856.70136    1831.8837   -69481.902    1.8918427  0.037361457 
    5000   -900.33904    53.883334   -846.45571    1929.9056   -64759.264    1.8918427   0.20325918 
    5100   -902.20012    49.894379   -852.30574    1787.0357   -63366.971    1.8918427  0.079693655 
    5200   -905.70895    50.582331   -855.12662    1811.6756    -66242.88    1.8918427  0.079544221 
    5300   -902.95095     47.76436   -855.18659    1710.7461   -67643.933    1.8918427   0.10305667 
    5400   -902.35959    51.841725   -850.51787    1856.7826   -60812.786    1.8918427   0.26215103 
    5500   -903.57271    48.811661   -854.76105    1748.2567   -66258.794    1.8918427    0.2726364 
    5600   -903.42401    57.068268   -846.35575    2043.9784   -63242.493    1.8918427   0.14489585 
    5700   -900.90706    46.166021   -854.74104    1653.4995   -63736.829    1.8918427  0.045710155 
    5800   -905.16087    47.963911   -857.19696    1717.8934   -65458.797    1.8918427   0.32332619 
    5900   -901.04929    51.669495   -849.37979    1850.6139   -64656.601    1.8918427   0.05530742 
    6000   -902.79679    50.060888    -852.7359    1792.9995   -63926.379    1.8918427  0.029171826 
    6100   -902.79529    47.008601   -855.78669    1683.6776   -66401.247    1.8918427  0.055333069 
    6200   -900.65607    49.000005   -851.65606    1755.0025   -62543.945    1.8918427  0.021678333 
    6300   -902.57906    46.751792   -855.82727    1674.4797   -66639.386    1.8918427   0.36080635 
    6400   -898.11156    50.705333   -847.40623    1816.0812   -57544.462    1.8918427   0.28876181 
    6500   -906.70605    54.868399   -851.83765    1965.1871   -70512.526    1.8918427  0.076667141 
    6600   -904.86514    51.797086   -853.06806    1855.1838   -65411.543    1.8918427  0.080511501 
    6700   -905.64287    44.837306   -860.80556    1605.9097   -68469.794    1.8918427  0.029162618 
    6800   -903.86086    51.292782   -852.56808    1837.1214   -62416.261    1.8918427  0.092558642 
    6900   -903.46334    49.353973   -854.10937    1767.6803   -67933.851    1.8918427   0.17867635 
    7000   -904.87677    56.714608   -848.16216    2031.3116     -63182.5    1.8918427   0.08672726 
    7100   -904.43826    49.521839   -854.91642    1773.6927   -66284.214    1.8918427   0.12804682 
    7200   -906.82181    52.481434   -854.34038    1879.6946   -67156.627    1.8918427   0.15297736 
    7300   -900.59174    53.782819   -846.80892    1926.3055   -63575.009    1.8918427   0.36999866 
    7400   -905.68365    48.641626   -857.04202    1742.1666   -67047.613    1.8918427   0.21012543 
    7500   -902.43309    45.501224   -856.93187    1629.6888    -65606.69    1.8918427   0.66148116 
    7600   -900.49256    50.908064   -849.58449    1823.3422   -61748.608    1.8918427   0.78032416 
    7700   -901.60173     44.32484   -857.27689     1587.555   -66703.481    1.8918427   0.14565844 
    7800   -904.53009    55.239683   -849.29041    1978.4851   -66395.563    1.8918427  0.054054883 
    7900   -903.46401    52.380368   -851.08364    1876.0748    -65226.67    1.8918427    1.0238937 
    8000   -903.54188    49.271277    -854.2706    1764.7184   -65992.641    1.8918427    1.2778701 
    8100   -899.57531      50.4234   -849.15191    1805.9833   -62270.568    1.8918427    1.0420538 
    8200   -901.21557    48.937975   -852.27759    1752.7808   -62901.805    1.8918427   0.53132115 
    8300   -904.18801    45.035348   -859.15266    1613.0029   -67445.235    1.8918427    2.4157617 
    8400   -906.36587    54.252834   -852.11304    1943.1398    -68443.23    1.8918427    5.2132767 
    8500   -900.92353    48.793623   -852.12991    1747.6106   -68310.909    1.8918427    7.7880917 
    8600   -899.94561    53.707007    -846.2386    1923.5902   -61990.055    1.8918427    6.4870162 
    8700   -903.90893    49.718235   -854.19069    1780.7269   -68214.595    1.8918427    4.9399598 
    8800   -902.37397    49.542717   -852.83125    1774.4404   -66469.695    1.8918427    4.8701285 
    8900   -898.98489    55.338999   -843.64589    1982.0423   -60763.508    1.8918427    4.8660261 
    9000   -901.87708    49.459352   -852.41773    1771.4546   -65535.326    1.8918427     3.762515 
    9100   -898.92457    48.931473   -849.99309    1752.5479   -61923.364    1.8918427    4.8756285 
    9200   -899.68981    52.272444   -847.41736    1872.2094   -62891.968    1.8918427    2.3123898 
    9300   -905.23168    53.950472   -851.28121    1932.3102    -68658.55    1.8918427    2.9910791 
    9400   -901.37799     46.08471   -855.29328    1650.5872   -67102.457    1.8918427    7.6633572 
    9500   -900.14072    53.106162   -847.03456    1902.0701   -63308.871    1.8918427    5.8314783 
    9600   -902.43332    49.661899   -852.77142    1778.7091   -65360.015    1.8918427    6.5981318 
    9700   -905.58806    46.386644   -859.20142    1661.4014   -68231.509    1.8918427    5.9906603 
    9800   -897.35775    46.412246   -850.94551    1662.3183   -58605.736    1.8918427    5.4071531 
    9900   -899.27594    52.817208   -846.45873    1891.7208   -60279.525    1.8918427    4.2594541 
   10000   -903.11301    49.175843   -853.93716    1761.3003   -64882.903    1.8918427    5.5576719 
   10001   -903.38029    49.353153   -854.02713     1767.651   -65092.625    1.8918427    5.5655701 
Loop time of 5.46475 on 1 procs for 10001 steps with 217 atoms

Performance: 79.060 ns/day, 0.304 hours/ns, 1830.094 timesteps/s
100.0% CPU use with 1 MPI tasks x no OpenMP threads

MPI task timing breakdown:
Section |  min time  |  avg time  |  max time  |%varavg| %total
---------------------------------------------------------------
Pair    | 5.3228     | 5.3228     | 5.3228     |   0.0 | 97.40
Neigh   | 0.04002    | 0.04002    | 0.04002    |   0.0 |  0.73
Comm    | 0.042685   | 0.042685   | 0.042685   |   0.0 |  0.78
Output  | 0.0031127  | 0.0031127  | 0.0031127  |   0.0 |  0.06
Modify  | 0.042684   | 0.042684   | 0.042684   |   0.0 |  0.78
Other   |            | 0.01342    |            |       |  0.25

Nlocal:    217 ave 217 max 217 min
Histogram: 1 0 0 0 0 0 0 0 0 0
Nghost:    919 ave 919 max 919 min
Histogram: 1 0 0 0 0 0 0 0 0 0
Neighs:    3613 ave 3613 max 3613 min
Histogram: 1 0 0 0 0 0 0 0 0 0
FullNghs:  7226 ave 7226 max 7226 min
Histogram: 1 0 0 0 0 0 0 0 0 0

Total # of neighbors = 7226
Ave neighs/atom = 33.2995
Neighbor list builds = 73
Dangerous builds = 0
Total wall time: 0:00:05
