LAMMPS (3 Mar 2020)
Reading data file ...
  orthogonal box = (0 0 0) to (12.27 12.27 12.27)
  1 by 1 by 1 MPI processor grid
  reading atoms ...
  108 atoms
  read_data CPU = 0.000962511 secs
Reading potential file /usr/share/lammps-stable/potentials/Ag_u3.eam with DATE: 2007-06-11
Neighbor list info ...
  update every 1 steps, delay 10 steps, check yes
  max neighbors/atom: 2000, page size: 100000
  master list distance cutoff = 7.55
  ghost atom cutoff = 7.55
  binsize = 3.775, bins = 4 4 4
  2 neighbor lists, perpetual/occasional/extra = 1 1 0
  (1) pair eam, perpetual
      attributes: half, newton on
      pair build: half/bin/atomonly/newton
      stencil: half/bin/3d/newton
      bin: standard
  (2) compute rdf, occasional, copy from (1)
      attributes: half, newton on
      pair build: copy
      stencil: none
      bin: none
Setting up Verlet run ...
  Unit style    : metal
  Current step  : 0
  Time step     : 0.001
Per MPI rank memory allocation (min/avg/max) = 3.723 | 3.723 | 3.723 Mbytes
Step PotEng KinEng TotEng Temp Press Density c_msdall[4] 
       0       -307.8    18.809936   -288.99006         1360     10876.03    10.472245            0 
     100   -295.65359    11.440234   -284.21336    827.15426     47680.75    10.472245  0.074361829 
     200   -291.97631    19.056903   -272.91941    1377.8562    64642.706    10.472245  0.087522394 
     300   -287.40995    22.561127   -264.84883    1631.2194    82219.329    10.472245   0.10480723 
     400   -288.47006    17.330914   -271.13915    1253.0634    75202.661    10.472245   0.11281941 
     500   -291.15053    20.965856   -270.18467    1515.8778    70225.345    10.472245  0.083031002 
     600   -290.72934    17.991307   -272.73803    1300.8113    67269.646    10.472245  0.094488418 
     700   -288.52071    18.923931   -269.59678    1368.2421    76806.875    10.472245   0.11011917 
     800   -289.04512    19.339463   -269.70565    1398.2859    74482.667    10.472245   0.10124162 
     900   -289.11643    17.859344   -271.25709    1291.2701    72368.012    10.472245   0.10353022 
    1000   -288.56763    21.202786   -267.36485    1533.0083    78065.509    10.472245  0.098174359 
    1100   -286.98443    19.728836    -267.2556    1426.4385    82861.795    10.472245   0.12418998 
    1200   -288.02462    18.047083   -269.97754     1304.844    78265.272    10.472245    0.1255393 
    1300   -287.84926    19.714469   -268.13479    1425.3997    79532.201    10.472245   0.10668644 
    1400   -289.03877    18.685787   -270.35299    1351.0237    74854.052    10.472245  0.088304644 
    1500   -289.34343    17.528325   -271.81511    1267.3367    73343.879    10.472245   0.10584298 
    1600   -287.17148    20.414474   -266.75701    1476.0116    81080.989    10.472245   0.11771887 
    1700   -287.82814    19.444962   -268.38318    1405.9137    78828.741    10.472245   0.10956477 
    1800   -291.14408    19.194033   -271.95004    1387.7711    68284.952    10.472245  0.096081832 
    1900    -289.5092     18.79782   -270.71138     1359.124    73863.878    10.472245   0.10962019 
    2000   -289.39573    20.929414   -268.46632    1513.2429    74458.236    10.472245   0.10422155 
    2100   -289.80023    18.438661   -271.36157     1333.156    71519.807    10.472245   0.10512263 
    2200   -287.78715    20.155188   -267.63196    1457.2647    79356.111    10.472245   0.10416237 
    2300   -288.11467    16.501423   -271.61325    1193.0894    76503.741    10.472245   0.10690632 
    2400   -289.78472     17.01291   -272.77181     1230.071    72872.219    10.472245  0.089230054 
    2500   -286.64314    19.156341    -267.4868    1385.0458    82826.324    10.472245  0.094609509 
    2600   -288.80924    18.631612   -270.17763    1347.1068    76388.487    10.472245   0.10189987 
    2700   -287.97138    17.990518   -269.98086    1300.7543    79538.778    10.472245   0.10577056 
    2800   -286.67122    17.465073   -269.20614    1262.7634    82663.439    10.472245   0.10852484 
    2900    -290.7523     17.56728   -273.18502    1270.1532    67810.653    10.472245  0.085813999 
    3000   -288.68187    19.464695   -269.21717    1407.3405    76938.143    10.472245  0.098022211 
    3100   -288.69404    20.552394   -268.14164    1485.9836    76871.349    10.472245   0.10528599 
    3200   -287.99702    17.548679   -270.44834    1268.8083    77448.053    10.472245   0.11281751 
    3300   -288.55713    17.678848   -270.87828    1278.2198    75288.892    10.472245   0.10557415 
    3400   -290.04983    18.127535    -271.9223    1310.6609    72249.002    10.472245   0.10311455 
    3500   -287.73869    18.310065   -269.42863    1323.8582    78913.641    10.472245   0.11235892 
    3600   -288.07491    18.773282   -269.30163    1357.3498    77864.329    10.472245   0.11190615 
    3700   -289.29043    19.876067   -269.41437    1437.0836    74432.324    10.472245   0.10071272 
    3800   -290.14606    16.553755   -273.59231    1196.8731    68943.911    10.472245   0.10446965 
    3900   -289.18116    20.613218   -268.56794    1490.3813    75942.113    10.472245   0.10383053 
    4000    -288.7524     19.58903   -269.16337    1416.3302    75941.758    10.472245   0.10107619 
    4100   -291.09877    17.289252   -273.80951    1250.0512    66623.044    10.472245  0.092648909 
    4200   -291.10351    19.107719   -271.99579    1381.5304    67439.694    10.472245  0.088614661 
    4300   -289.92015    19.596783   -270.32337    1416.8908    71938.592    10.472245   0.10126183 
    4400   -288.61173    22.921948   -265.68978    1657.3075    78118.246    10.472245   0.11158684 
    4500   -288.36074    19.018562   -269.34218    1375.0841    76543.727    10.472245    0.1160746 
    4600   -288.15292    17.712545   -270.44037    1280.6562    77063.611    10.472245   0.11224611 
    4700   -288.60946    17.719434   -270.89003    1281.1542    74945.555    10.472245    0.1027154 
    4800   -290.48456    21.433495   -269.05106    1549.6891    70377.231    10.472245  0.096784901 
    4900   -288.60044    20.948029   -267.65241    1514.5888    78293.435    10.472245    0.1029208 
    5000   -290.50419    19.017663   -271.48653    1375.0191    69330.231    10.472245  0.087741175 
    5100   -292.25205    15.623051     -276.629    1129.5811    62812.209    10.472245  0.077684142 
    5200   -291.09888    19.450389   -271.64849    1406.3061    67857.023    10.472245  0.082700115 
    5300   -288.94818    20.224454   -268.72373    1462.2728    75973.547    10.472245   0.10796551 
    5400   -287.44165    20.433483   -267.00817     1477.386    80948.178    10.472245    0.1117122 
    5500   -289.45516    16.939345   -272.51582    1224.7521    71680.057    10.472245   0.10571574 
    5600    -289.0751    17.784401    -271.2907    1285.8515    73821.838    10.472245   0.10679006 
    5700   -285.48842     19.98575   -265.50267    1445.0139     84678.57    10.472245   0.13079773 
    5800   -287.75525    19.416921   -268.33833    1403.8863    77496.851    10.472245   0.11714999 
    5900   -290.60609    18.885512   -271.72058    1365.4643    68491.967    10.472245  0.096859802 
    6000   -290.76692      20.1762   -270.59071    1458.7839    69100.329    10.472245   0.10832163 
    6100   -285.75104    21.406575   -264.34446    1547.7427    87442.564    10.472245    0.1669036 
    6200   -285.65899    19.543436   -266.11556    1413.0337    86519.556    10.472245   0.17000746 
    6300    -290.5759    18.845594   -271.73031    1362.5781    69876.112    10.472245   0.10622038 
    6400   -290.74658    17.214613   -273.53197    1244.6546     68178.47    10.472245  0.083930891 
    6500   -287.23817    18.644849   -268.59332    1348.0638    79084.316    10.472245  0.097077524 
    6600   -289.48705    18.422658   -271.06439    1331.9989    73251.349    10.472245   0.10513677 
    6700   -291.19016    19.919989   -271.27017    1440.2593    67382.596    10.472245  0.092235326 
    6800   -289.43051    18.496204   -270.93431    1337.3164    74165.157    10.472245   0.10022753 
    6900   -287.32668    17.619014   -269.70767    1273.8937    79903.864    10.472245   0.13652206 
    7000   -287.21397    21.931443   -265.28252    1585.6919    82429.225    10.472245   0.11969696 
    7100   -291.32969    20.299186    -271.0305    1467.6761    68543.734    10.472245  0.076568596 
    7200   -290.94562    18.271233   -272.67438    1321.0505    67091.047    10.472245  0.086935707 
    7300   -288.71246    19.162604   -269.54986    1385.4987    74543.047    10.472245   0.11320745 
    7400   -288.02175    19.590909   -268.43084    1416.4661    79470.673    10.472245   0.11902669 
    7500   -289.92589    19.917117   -270.00877    1440.0516    72509.609    10.472245   0.10226249 
    7600   -291.58734    17.911977   -273.67536    1295.0755    66948.141    10.472245  0.083857547 
    7700   -287.47167     19.91002   -267.56165    1439.5385    79274.705    10.472245  0.099638441 
    7800   -287.22476    17.961209   -269.26355    1298.6351    80463.992    10.472245   0.11194083 
    7900   -291.12727    17.535091   -273.59218    1267.8259    66913.078    10.472245  0.082654163 
    8000   -291.74294     19.39388   -272.34906    1402.2204    65669.016    10.472245  0.079131678 
    8100   -287.33711    17.529543   -269.80756    1267.4247    78835.008    10.472245   0.11920592 
    8200   -286.06025    19.686487   -266.37377    1423.3766    85457.898    10.472245    0.1299952 
    8300   -287.92498    17.438604   -270.48637    1260.8496    76401.473    10.472245   0.11587322 
    8400   -290.06732    17.688494   -272.37882    1278.9172     71347.39    10.472245  0.089324591 
    8500   -289.97282    15.895226   -274.07759      1149.26    69334.376    10.472245  0.086017303 
    8600   -288.08324    17.082122   -271.00112    1235.0752    77332.083    10.472245   0.10953654 
    8700   -286.69354    19.583212   -267.11032    1415.9096    83198.833    10.472245   0.11767771 
    8800   -290.11316    20.005477   -270.10768    1446.4402    72435.635    10.472245  0.081937127 
    8900   -291.02138    18.484909   -272.53647    1336.4998    67971.137    10.472245  0.083809172 
    9000   -287.15869     18.83497   -268.32372      1361.81    81457.066    10.472245   0.11218116 
    9100   -285.74626    18.754498   -266.99176    1355.9917      85047.5    10.472245   0.12426424 
    9200   -291.13797    21.594099   -269.54387    1561.3011    68712.205    10.472245  0.087727968 
    9300   -289.56262    17.750405   -271.81222    1283.3936    72720.813    10.472245   0.09228262 
    9400   -290.03331    20.944622   -269.08869    1514.3425    72216.469    10.472245  0.083905193 
    9500   -290.55723    20.438891   -270.11834     1477.777    70541.292    10.472245  0.091240465 
    9600   -289.90177    18.659072   -271.24269    1349.0922    71092.863    10.472245  0.093721868 
    9700   -288.78535     18.09791   -270.68744    1308.5189      75150.3    10.472245  0.094500291 
    9800   -288.43109    20.029693    -268.4014    1448.1911    77477.384    10.472245  0.097728564 
    9900   -289.89653    16.861608   -273.03492    1219.1316    69974.592    10.472245   0.10080476 
   10000   -289.28144    18.871309   -270.41013    1364.4374    71328.815    10.472245  0.092467191 
Loop time of 2.52825 on 1 procs for 10000 steps with 108 atoms

Performance: 341.739 ns/day, 0.070 hours/ns, 3955.310 timesteps/s
100.0% CPU use with 1 MPI tasks x no OpenMP threads

MPI task timing breakdown:
Section |  min time  |  avg time  |  max time  |%varavg| %total
---------------------------------------------------------------
Pair    | 1.6167     | 1.6167     | 1.6167     |   0.0 | 63.95
Neigh   | 0.0075645  | 0.0075645  | 0.0075645  |   0.0 |  0.30
Comm    | 0.042653   | 0.042653   | 0.042653   |   0.0 |  1.69
Output  | 0.0016366  | 0.0016366  | 0.0016366  |   0.0 |  0.06
Modify  | 0.85005    | 0.85005    | 0.85005    |   0.0 | 33.62
Other   |            | 0.00962    |            |       |  0.38

Nlocal:    108 ave 108 max 108 min
Histogram: 1 0 0 0 0 0 0 0 0 0
Nghost:    990 ave 990 max 990 min
Histogram: 1 0 0 0 0 0 0 0 0 0
Neighs:    5477 ave 5477 max 5477 min
Histogram: 1 0 0 0 0 0 0 0 0 0

Total # of neighbors = 5477
Ave neighs/atom = 50.713
Neighbor list builds = 32
Dangerous builds = 0
Total wall time: 0:00:02
