LAMMPS (3 Mar 2020)

# ---------- 1. Initialize simulation ----------
units metal
atom_style atomic
dimension 3
boundary p p p
read_data /home/modeler/RemLabs/Project/arrhenius_3/T1675.0/n3_T1675.0_timestep3.000000e-03_eqsteps3200_time600_rseed3322/20201205-092941/lammps.data
  orthogonal box = (0 0 0) to (17.469 17.469 17.469)
  1 by 1 by 1 MPI processor grid
  reading atoms ...
  217 atoms
  read_data CPU = 0.0010037 secs

pair_style meam/c
pair_coeff * * library.meam Li Si LiSi.meam Li Si
Reading potential file library.meam with DATE: 2012-06-29
Reading potential file LiSi.meam with DATE: 2020-11-07

group Li type 1
1 atoms in group Li
group Si type 2
216 atoms in group Si

velocity all create 1675.0 3322 dist gaussian

# ---------- 2. Specify equilibration ensemble  ----------
fix 1 all npt temp 1675.0 1675.0 0.15 tchain 2 iso 1.0 1.0 1.0 pchain 2
# fix 1 all nvt temp 1675.0 1675.0 0.15

# ---------- 3. Run equilibration -------------
timestep 0.003
run 3200
Neighbor list info ...
  update every 1 steps, delay 10 steps, check yes
  max neighbors/atom: 2000, page size: 100000
  master list distance cutoff = 6
  ghost atom cutoff = 6
  binsize = 3, bins = 6 6 6
  2 neighbor lists, perpetual/occasional/extra = 2 0 0
  (1) pair meam/c, perpetual
      attributes: full, newton on
      pair build: full/bin/atomonly
      stencil: full/bin/3d
      bin: standard
  (2) pair meam/c, perpetual, half/full from (1)
      attributes: half, newton on
      pair build: halffull/newton
      stencil: none
      bin: none
Per MPI rank memory allocation (min/avg/max) = 8.895 | 8.895 | 8.895 Mbytes
Step Temp E_pair E_mol TotEng Press Volume 
       0         1675   -951.04357            0   -904.27725   -114861.02    5330.9442 
    3200    1615.1192   -943.97795            0   -898.88351   -6933.1542    4684.5151 
Loop time of 2.26518 on 1 procs for 3200 steps with 217 atoms

Performance: 366.170 ns/day, 0.066 hours/ns, 1412.693 timesteps/s
100.0% CPU use with 1 MPI tasks x no OpenMP threads

MPI task timing breakdown:
Section |  min time  |  avg time  |  max time  |%varavg| %total
---------------------------------------------------------------
Pair    | 2.176      | 2.176      | 2.176      |   0.0 | 96.06
Neigh   | 0.039966   | 0.039966   | 0.039966   |   0.0 |  1.76
Comm    | 0.015076   | 0.015076   | 0.015076   |   0.0 |  0.67
Output  | 2.6214e-05 | 2.6214e-05 | 2.6214e-05 |   0.0 |  0.00
Modify  | 0.029139   | 0.029139   | 0.029139   |   0.0 |  1.29
Other   |            | 0.004958   |            |       |  0.22

Nlocal:    217 ave 217 max 217 min
Histogram: 1 0 0 0 0 0 0 0 0 0
Nghost:    957 ave 957 max 957 min
Histogram: 1 0 0 0 0 0 0 0 0 0
Neighs:    4163 ave 4163 max 4163 min
Histogram: 1 0 0 0 0 0 0 0 0 0
FullNghs:  8326 ave 8326 max 8326 min
Histogram: 1 0 0 0 0 0 0 0 0 0

Total # of neighbors = 8326
Ave neighs/atom = 38.3687
Neighbor list builds = 68
Dangerous builds = 1

# ---------- 4. Describe computed properties----------
compute msdli Li msd
compute msdsi Si msd
thermo_style custom step pe ke etotal temp press density c_msdli[4] c_msdsi[4]
thermo 100

# ---------- 3. Run production -------------
timestep 0.003
run 200000
Per MPI rank memory allocation (min/avg/max) = 9.664 | 9.664 | 9.664 Mbytes
Step PotEng KinEng TotEng Temp Press Density c_msdli[4] c_msdsi[4] 
    3200   -943.97795    45.094438   -898.88351    1615.1192   -6933.1542    2.1529033            0 1.6562998e-32 
    3300   -946.11951    43.243236   -902.87627    1548.8159   -4415.0854    2.1640045  0.024946615   0.12910247 
    3400   -945.08293    44.858001   -900.22493    1606.6509    12119.897    2.2041518  0.087099631   0.11200433 
    3500   -943.00605    48.549432   -894.45662    1738.8646   -1490.8705    2.1654933  0.023463503   0.12170487 
    3600   -943.96874    44.941798   -899.02694    1609.6522   -12900.472    2.1410879   0.10719638   0.14813074 
    3700   -945.68275    47.505689   -898.17706    1701.4815    2829.0676    2.1793722   0.15140205   0.12360702 
    3800   -940.08909    52.410225   -887.67887    1877.1442     9315.775    2.1808385    0.2400537   0.11435321 
    3900   -943.65764    47.886341    -895.7713    1715.1151   -3107.3946    2.1610119  0.059142115   0.13446544 
    4000   -949.07491    49.039097   -900.03581    1756.4026   -11410.949    2.1495161   0.10699946  0.091348113 
    4100   -945.24982    49.564301   -895.68552    1775.2135    4534.6416    2.1812033   0.38487274   0.08599488 
    4200   -940.17139    51.609884   -888.56151    1848.4789    7716.5405    2.1769375  0.072419731    0.1160053 
    4300   -948.50126    49.719261     -898.782    1780.7636   -4383.9649    2.1625758   0.17668867   0.10014576 
    4400    -947.1347    48.023986   -899.11072     1720.045   -9710.0843    2.1549524   0.12158294   0.14895438 
    4500   -945.50017    51.165793   -894.33438    1832.5732    2569.3946      2.17816   0.21963322   0.14538601 
    4600   -942.66315    51.514996   -891.14816    1845.0804     2410.918    2.1725302   0.20397344   0.13926721 
    4700   -945.38304    43.998105   -901.38494    1575.8526   -1436.2728    2.1716312   0.11914603     0.120452 
    4800   -942.56387    43.334596   -899.22928    1552.0881   -2842.3848    2.1644949   0.10031685   0.13325095 
    4900   -940.08701    44.123775   -895.96323    1580.3536    4624.8329    2.1783347  0.072834287   0.11534957 
    5000   -946.69855    46.583871   -900.11468    1668.4653   -705.24572    2.1785846   0.13627472   0.13523312 
    5100   -949.95282    45.596981   -904.35584    1633.1185   -4574.4694     2.175138   0.04440854   0.10715811 
    5200   -942.58177     44.46534   -898.11643    1592.5872    2654.9786    2.1756491  0.071179407   0.13009577 
    5300   -942.90483    46.616103   -896.28873    1669.6197     1680.698    2.1734217  0.022337585   0.14694444 
    5400   -949.90771     45.25621    -904.6515    1620.9133   -3866.2278    2.1738471   0.10171972   0.12095586 
    5500   -943.41946    41.384124   -902.03534    1482.2292    -480.1335    2.1739202   0.16002035   0.14728099 
    5600   -944.08507    47.773223   -896.31185    1711.0636     4167.735    2.1818493  0.033910331    0.1431724 
    5700   -947.08593    48.032865   -899.05306     1720.363   -599.95082    2.1756573   0.14904816   0.12882782 
    5800   -949.84275    42.710228   -907.13252    1529.7255   -5830.1249    2.1735784  0.041198784    0.1153462 
    5900   -944.94766    46.735631   -898.21203    1673.9008   -1663.8263    2.1698579   0.16240209   0.13519153 
    6000   -940.71229    44.242552   -896.46974    1584.6078    8796.3899    2.1872886    0.1350001   0.10925015 
    6100   -947.55914    45.080593   -902.47854    1614.6234   -2173.3987    2.1728684   0.10470935   0.13253498 
    6200   -946.91682    45.638392   -901.27842    1634.6017   -4776.2807    2.1634481  0.016327252   0.11613091 
    6300   -944.30374    49.377684   -894.92606    1768.5296    2859.4084    2.1739336 0.0058969943   0.11846689 
    6400   -947.47448    49.128684    -898.3458    1759.6113    2169.0424    2.1823083  0.049162927   0.13284323 
    6500   -949.15624    46.933404   -902.22283    1680.9843   -5662.7485    2.1687132  0.034595866   0.11187803 
    6600   -941.79227    48.753801   -893.03846    1746.1843   -1390.6663    2.1573822  0.044902433   0.13572634 
    6700   -943.91717    49.605208   -894.31196    1776.6786    9228.3021    2.1889231  0.031330612   0.13313337 
    6800   -943.73124    44.660632    -899.0706    1599.5819    -2857.609    2.1667177   0.19061099   0.12045499 
    6900   -945.38319    46.073351   -899.30983    1650.1804   -11192.511    2.1480731  0.063464388   0.13105163 
    7000   -940.99282    51.680403   -889.31241    1851.0046    5714.5519    2.1740908   0.02529307   0.12886077 
    7100   -944.94054     49.34755   -895.59299    1767.4503    10973.968    2.2014854    0.1142533   0.11706607 
    7200   -946.65126    46.540125   -900.11113    1666.8985   -12656.637    2.1412257  0.075047748   0.12953104 
    7300   -940.36284    44.060471   -896.30237    1578.0863   -4967.8796    2.1497299  0.056356841   0.11355888 
    7400   -941.35519    51.292422   -890.06277    1837.1086    11825.777    2.1899462  0.068647656   0.14148795 
    7500   -944.78264     48.67113   -896.11151    1743.2234   -2271.7772    2.1642206   0.33378817   0.13078295 
    7600   -945.63151    45.877462   -899.75405    1643.1643   -8483.9154    2.1512463    0.1721259   0.11725887 
    7700    -945.4422    47.790786   -897.65142    1711.6927    6044.4055    2.1839331   0.10960666   0.13391049 
    7800   -945.40158     48.35163   -897.04995    1731.7801    4557.3271    2.1831739   0.11672748    0.1198332 
    7900   -941.05593    55.532552   -885.52338    1988.9746   -7027.2001    2.1386508   0.15572862   0.12393809 
    8000   -940.51273    47.196198   -893.31653    1690.3967    2915.6732    2.1691154  0.098601491   0.12962207 
    8100   -943.70104    46.495896   -897.20514    1665.3144     3082.535    2.1765534 0.0080471333   0.12541401 
    8200   -946.47102    46.554389   -899.91663    1667.4094   -2164.9306    2.1674154  0.038024172    0.1171362 
    8300   -943.60807    46.853926   -896.75414    1678.1377    90.665404    2.1694212   0.18202562   0.13720253 
    8400   -938.95328    47.833806   -891.11947    1713.2335    267.22478    2.1615695   0.41648034   0.14092441 
    8500   -945.95423    47.382462   -898.57177     1697.068   -2764.2779    2.1667296  0.064149276   0.13311698 
    8600   -945.11041    46.024656   -899.08575    1648.4363    2288.1366    2.1790155   0.18596446   0.13119856 
    8700   -938.07512    47.603536   -890.47158     1704.986    2431.6595    2.1648084  0.038845197   0.14231508 
    8800   -938.68114    43.861378   -894.81976    1570.9555    374.09022    2.1625294   0.32638012   0.14232718 
    8900   -944.64506    44.818982   -899.82608    1605.2534   -4703.3693    2.1637938  0.083586797   0.13683353 
    9000   -940.69831    44.177509    -896.5208    1582.2781    7538.8267    2.1845637  0.092751715   0.12641803 
    9100   -940.44809    52.062455   -888.38563    1864.6883    302.24299    2.1623861   0.14195836   0.14036694 
    9200   -945.13752    47.338305   -897.79921    1695.4864   -5889.7288      2.15415  0.061081225    0.1262382 
    9300   -946.07957    47.071045   -899.00852    1685.9141   -3484.5122     2.163561   0.11640705   0.13955634 
    9400   -942.76562    46.915707   -895.84991    1680.3505    10101.046    2.1888936   0.19668578   0.14238707 
    9500   -942.24608    49.479697   -892.76638    1772.1833   -2093.0623    2.1613967   0.16652267   0.14410344 
    9600   -936.35934    52.154501   -884.20484    1867.9851   -12405.523    2.1154576   0.21297946   0.14828625 
    9700   -943.10077    47.145592   -895.95517    1688.5841    12684.638    2.1947902  0.070330119   0.11931078 
    9800   -945.61453    48.443192   -897.17134    1735.0594    6987.5995     2.189913  0.060629257   0.12728626 
    9900   -945.50956    45.025856   -900.48371    1612.6629   -9861.6927    2.1464136  0.034784193   0.12686052 
   10000   -945.99292    52.402734   -893.59018    1876.8759   -2901.1841    2.1617799  0.038080805   0.12574357 
   10100   -944.20194    51.438194   -892.76375    1842.3296    4527.4171    2.1782575    0.1356732   0.12690287 
   10200   -946.97692      47.6786   -899.29832    1707.6746   -2549.8732    2.1692181    0.1344891   0.12781174 
   10300   -945.31679    46.627845   -898.68895    1670.0403   -4123.8376    2.1629015  0.094998732   0.12586471 
   10400   -942.04657    52.706084   -889.34049    1887.7408    1502.8706    2.1617531  0.057394967   0.12907544 
   10500    -944.4905    46.972837   -897.51766    1682.3967    5937.9985    2.1823471   0.28249266   0.11745216 
   10600   -945.98897     46.09095   -899.89802    1650.8107   -4542.1483    2.1595594 0.0079186903   0.11912998 
   10700   -942.43689    47.183186    -895.2537    1689.9306   -543.72988     2.161624   0.21206496   0.11669011 
   10800   -938.57293    48.267779   -890.30515    1728.7768    6970.4358     2.173708  0.065435569   0.13074843 
   10900   -945.41246    44.367776   -901.04469    1589.0928    5209.4914    2.1871481   0.11576176   0.12225175 
   11000   -944.18811    44.626216   -899.56189    1598.3492   -8279.0045     2.151289    0.0823803   0.12288802 
   11100   -943.41655     46.55327   -896.86328    1667.3693    763.95164     2.167589  0.077980283   0.13433718 
   11200   -947.38565    45.467516   -901.91814    1628.4815    10278.018    2.2029839   0.28639845   0.11556891 
   11300   -947.77997    42.916054   -904.86392    1537.0974   -342.80677     2.177434  0.013588941   0.10996835 
   11400   -943.42352    44.765434   -898.65809    1603.3355   -7965.0515    2.1470552  0.029257789   0.12328503 
   11500   -941.80518    45.359647   -896.44554    1624.6181    6768.5728    2.1840417  0.013608236   0.12214027 
   11600   -950.71587    48.041733   -902.67414    1720.6807    15492.145    2.2236683   0.15946539   0.12997937 
   11700   -947.40638    42.090567   -905.31582    1507.5315   -11639.613    2.1491224   0.12110591   0.12223593 
   11800   -945.41664    46.527011   -898.88963    1666.4288   -13996.462    2.1375292   0.11251159   0.11673023 
   11900   -942.73885    46.041197   -896.69766    1649.0287    13313.867    2.2016656   0.16800672   0.13801483 
   12000   -948.93441    47.492441   -901.44197     1701.007    3899.2294    2.1905139   0.18870595   0.12118705 
   12100   -951.57706     42.46081   -909.11625    1520.7922   -11950.266    2.1595627  0.081884293    0.1196089 
   12200   -946.66216    46.070794   -900.59137    1650.0888   -3290.0308    2.1700602   0.28886824    0.1237122 
   12300   -945.54761    47.966368   -897.58124    1717.9813    11255.843    2.1981938   0.21704726   0.11024494 
   12400   -945.92476    48.003303   -897.92146    1719.3042   -2138.0148    2.1680593   0.52733477   0.11942166 
   12500   -940.41475    48.733795   -891.68095    1745.4678   -6938.6776    2.1407787    0.0376394   0.13052027 
   12600   -940.16098    50.325729   -889.83525    1802.4851    1397.4283    2.1631013   0.04936122   0.14212985 
   12700   -945.33241    48.909996   -896.42241    1751.7787    4581.0968     2.180429   0.23487982   0.13090018 
   12800   -941.17392     42.34384   -898.83008    1516.6028    616.27645    2.1659049  0.020515868   0.12480172 
   12900   -943.87706    45.513062     -898.364    1630.1128   -4551.7299     2.160373  0.021566765   0.12359222 
   13000   -936.13644    48.297729   -887.83871    1729.8495    3360.2802    2.1636463   0.14628574   0.12352399 
   13100   -944.27172    48.686357   -895.58537    1743.7687    9069.5042    2.1915922  0.097128484   0.13513963 
   13200   -947.37518    47.912975   -899.46221     1716.069   -9769.5874    2.1581064   0.11906573    0.1257594 
   13300   -942.28792    45.777733   -896.51019    1639.5924   -7357.9506    2.1511308   0.15344977   0.12658838 
   13400   -937.68448    49.481289   -888.20319    1772.2403    10615.253    2.1846662   0.24652339   0.16190879 
   13500    -942.7521    45.795416   -896.95668    1640.2257    10257.028    2.1946321 0.0013108684   0.13141249 
   13600   -943.69806    43.992107   -899.70595    1575.6378   -12373.725    2.1379683   0.24556978   0.13353583 
   13700    -942.8268    48.262196    -894.5646    1728.5768   -4787.8127    2.1586197   0.18724129   0.15246423 
   13800   -937.79687    48.158498   -889.63837    1724.8627    16018.687    2.1996048  0.057928893   0.12995932 
   13900   -948.76986    48.148273   -900.62158    1724.4965   -2207.1571    2.1797398  0.080641354   0.13518295 
   14000   -943.66272     44.26868   -899.39404    1585.5436   -6513.9984    2.1547917  0.067491098   0.12761631 
   14100   -944.38992    48.467852   -895.92207    1735.9427    2999.2544    2.1748307   0.38714641   0.11703831 
   14200   -944.45123    47.503133   -896.94809      1701.39    5272.8496    2.1815497   0.46821014   0.12972295 
   14300   -945.44041    41.028799   -904.41161    1469.5028    3587.5706    2.1864564   0.16781459   0.13221781 
   14400   -945.42556     46.63713   -898.78843    1670.3729   -4219.4823    2.1644305   0.28827684   0.14249429 
   14500   -943.13069    47.154009   -895.97668    1688.8856   -190.37812    2.1690527   0.11621137   0.13331691 
   14600   -947.09125    42.763128   -904.32812    1531.6201    5620.4079    2.1902386 0.0010664045   0.11753743 
   14700   -949.82805    48.692912   -901.13514    1744.0035   -3531.0482    2.1733248   0.23797398   0.11973159 
   14800   -944.77412    48.245604   -896.52851    1727.9826    -3403.784    2.1638323  0.054247585   0.12716256 
   14900   -947.71573     48.07587   -899.63986    1721.9033    82.399881    2.1807112    0.2104577   0.11880437 
   15000   -949.85563    44.535406   -905.32022    1595.0967    3260.4465    2.1958443   0.11866054   0.11754944 
   15100    -946.3699     50.68777   -895.68213    1815.4521   -8523.5036    2.1530549  0.035994099   0.11971688 
   15200   -944.78255    46.711756    -898.0708    1673.0457   -2845.1341     2.168207   0.27855893   0.12103252 
   15300   -947.19202    45.705108   -901.48691    1636.9912    9803.2163    2.2037046  0.021738307   0.14184409 
   15400   -942.04071    49.264204    -892.7765    1764.4651    1670.1368    2.1650599  0.047771877    0.1238737 
   15500   -942.41259     47.66887   -894.74371    1707.3261   -9062.0847    2.1443186  0.090458656   0.12851333 
   15600   -944.97045    45.411071   -899.55938    1626.4599    1089.1931    2.1776724  0.084521772   0.13480118 
   15700   -944.00627    45.132123   -898.87415     1616.469    11181.962    2.2017722  0.036404451   0.13909705 
   15800   -936.93476    46.973713   -889.96105     1682.428   -5747.2124    2.1405569   0.13793232   0.13102479 
   15900   -944.15343    45.063767   -899.08967    1614.0207   -7452.9451    2.1513506   0.19782272   0.11969053 
   16000   -944.88951    47.222857   -897.66666    1691.3515    6166.9626    2.1905292    7.3529113   0.15300324 
   16100   -941.12143    47.594961   -893.52647    1704.6789    6381.4429    2.1810527     4.325012   0.15232707 
   16200    -944.0579    52.063247   -891.99465    1864.7167   -11979.214    2.1353736    8.0753334   0.15001119 
   16300   -946.84982    45.748106   -901.10171    1638.5313   -1794.3786    2.1721532    6.3324465   0.14728823 
   16400   -946.43383    50.559302   -895.87453    1810.8508    7606.0114    2.1933962    6.4995153   0.18110191 
   16500   -942.25747    47.046094   -895.21138    1685.0205   -919.74374     2.162503    11.543866    0.1381997 
   16600    -950.9667    46.039879   -904.92683    1648.9815   -6045.0224    2.1728061    8.9580942   0.13261887 
   16700   -947.92283    49.352862   -898.56997    1767.6405   -751.66258     2.172515    4.8213766   0.12722208 
   16800   -943.90202    49.023882   -894.87814    1755.8577   -149.97561    2.1725921    4.6995037   0.13855966 
   16900   -945.85785    43.774712   -902.08314    1567.8514    1053.4194    2.1714457    4.1758174   0.15455654 
   17000    -942.5154    41.435651   -901.07975    1484.0748    1387.7544    2.1715222    5.5251621   0.14309914 
   17100   -943.67429    49.389778   -894.28452    1768.9627    362.53753    2.1674665    5.4786607   0.14837607 
   17200   -946.75512    47.620423    -899.1347    1705.5909   -307.72038    2.1748496    5.7518131   0.14716308 
   17300   -947.24485    44.627745   -902.61711     1598.404   -1101.3497    2.1752432    2.5766828   0.15828303 
   17400   -941.85634    49.666427   -892.18992    1778.8713   -4594.2616    2.1572585    5.7858093   0.15156351 
   17500   -946.87809    48.870599   -898.00749    1750.3676     4183.668    2.1810238    6.1838827   0.13776374 
   17600    -952.1811    51.626323   -900.55478    1849.0677    1344.8788    2.1885284    3.8481574   0.11636323 
   17700   -941.22914    49.967304   -891.26183    1789.6476   -8112.0112     2.145132    4.9602206   0.13550634 
   17800   -944.29618    47.086499   -897.20968    1686.4676   -1632.0841    2.1686172    5.5123691   0.13838089 
   17900   -944.70473    45.246231    -899.4585    1620.5559    8108.2642    2.1965763    6.2007478   0.13509778 
   18000   -941.80226    46.672233   -895.13003    1671.6301    1653.0347    2.1694763    5.3355076   0.15512767 
   18100   -944.08578    50.656052   -893.42973    1814.3161   -12634.826    2.1355299    5.3379386   0.14793759 
   18200   -947.30745    45.442725   -901.86472    1627.5936    5070.2218    2.1937296    5.4060831   0.14191618 
   18300   -943.51216     47.25081   -896.26135    1692.3527    8962.7176    2.1958574     6.276156   0.15381279 
   18400    -944.5932    47.951649   -896.64156    1717.4542   -9852.6972    2.1484647    4.9723373   0.14540205 
   18500   -947.87013    42.324055   -905.54607    1515.8942   -5320.5665    2.1711104    5.8981868   0.13718063 
   18600   -946.05185     48.01364   -898.03822    1719.6745    7871.7122     2.192592    7.2160466   0.14001651 
   18700   -943.26588    47.298265   -895.96761    1694.0523    2771.2352    2.1797973    6.2304755   0.13155492 
   18800   -947.57833    43.834967   -903.74336    1570.0095   -6290.6009    2.1661588    4.8574637   0.13695704 
   18900   -948.98733     48.66399   -900.32334    1742.9676   -1094.3619    2.1762964    4.7435115    0.1249655 
   19000   -943.75423    49.095417   -894.65881    1758.4198    6890.8374    2.1855271    7.0346996   0.13923934 
   19100   -947.93971    47.013509    -900.9262    1683.8534   -2943.8775    2.1745434    3.8493728   0.13321175 
   19200   -943.51763    43.132148   -900.38548    1544.8371    -2029.426    2.1696006    5.6401838    0.1371847 
   19300   -943.37396    50.484544   -892.88942    1808.1733    -2266.619    2.1672319    4.9273201   0.12312504 
   19400    -950.0052    51.050488   -898.95471    1828.4433    1572.6386    2.1818587    6.2655451   0.12209462 
   19500   -946.59134    45.651301   -900.94004    1635.0641    594.23679    2.1795522    5.5639809     0.125954 
   19600   -941.44168    49.855159   -891.58652     1785.631   -3165.9024    2.1590871    6.9353891   0.14504381 
   19700   -944.67601    45.961735   -898.71427    1646.1827    4775.9824    2.1836043    5.7074891    0.1385509 
   19800   -946.44174    45.919872   -900.52187    1644.6833    530.27694    2.1786701    5.3185456   0.13447962 
   19900   -944.45522    51.987834   -892.46738    1862.0157    -6294.474    2.1575644    4.7098872   0.13717361 
   20000    -945.9271    47.400331   -898.52677     1697.708    1353.6279    2.1784147    5.3878671   0.13892666 
   20100   -945.86053    45.012086   -900.84845    1612.1697    1909.7028    2.1819619    5.6201616   0.14918211 
   20200   -939.84462    45.099116   -894.74551    1615.2868    270.08931    2.1641151    6.2328655   0.14363717 
   20300   -942.19255    45.769517   -896.42303    1639.2981   -2587.7577    2.1653466    7.8706442   0.15898716 
   20400   -949.28066    46.713518   -902.56714    1673.1088    2172.2915    2.1845612    7.5089685   0.11840365 
   20500   -944.42675    48.790634   -895.63612    1747.5036    2547.6581    2.1773412    5.7052548   0.14378826 
   20600   -943.05513    45.329554   -897.72558    1623.5402   -9777.1903    2.1505387    7.4838688   0.16172243 
   20700   -945.92527    40.716097   -905.20918    1458.3029   -1554.6628    2.1784668    6.1128955   0.13666635 
   20800   -945.41339    49.025168   -896.38822    1755.9037    9914.6659    2.1987418    6.9925412    0.1380574 
   20900   -942.95064     46.06531   -896.88533    1649.8923   -357.96964    2.1688436     6.414419   0.14251573 
   21000   -945.95179    42.431542   -903.52025     1519.744   -10120.901    2.1492765    5.8965578   0.13299225 
   21100   -944.50131    45.359894   -899.14142    1624.6269    5368.8505    2.1839307    4.7109621   0.13157922 
   21200   -947.72505     53.85038   -893.87467    1928.7253    6539.0999    2.1909887    8.8546652   0.14777426 
   21300   -948.79178    47.945901   -900.84588    1717.2483   -8964.6932    2.1551935    4.4131526    0.1268048 
   21400   -944.36433    46.591232    -897.7731     1668.729   -5882.9876    2.1559752     6.161499   0.12275621 
   21500   -941.33572    50.317901   -891.01782    1802.2047    6569.8692    2.1748151     6.104734   0.13079836 
   21600   -948.38492    49.296819    -899.0881    1765.6333    2385.0877    2.1839102    4.7968429   0.12161105 
   21700   -945.41784    45.610202   -899.80764     1633.592   -6107.8147      2.16078    6.1040306   0.12487989 
   21800   -939.76901    48.765497   -891.00352    1746.6032   -3232.4946    2.1517925     4.361621   0.13903003 
   21900    -945.8283    46.538442   -899.28986    1666.8382    8844.1776     2.193105     6.726191   0.12897875 
   22000   -945.51581    45.464897   -900.05091    1628.3877    -764.1188    2.1684757    5.7802317   0.12533914 
   22100   -943.78573    48.698332   -895.08739    1744.1977   -9231.3369    2.1472317    5.3231845   0.14960054 
   22200   -941.80809    44.450255   -897.35783    1592.0469    6372.7711     2.179907     5.760625   0.13239329 
   22300   -943.27357     41.14823   -902.12534    1473.7804    11300.059    2.1980495     4.833414   0.12524688 
   22400   -943.62745    46.671794   -896.95566    1671.6144   -5210.8411      2.15366    6.2156486   0.12934457 
   22500   -944.17805    47.020743   -897.15731    1684.1125   -11371.596    2.1368568    5.1136608   0.13205748 
   22600   -949.97963    45.849044   -904.13058    1642.1465    16534.236    2.2197292    5.2152885   0.11963781 
   22700    -944.3374    46.710683   -897.62672    1673.0073    12494.199    2.1976623    5.4150864   0.13822572 
   22800   -942.83148    46.033998   -896.79748    1648.7709   -13468.952    2.1325168    5.5438966   0.14245855 
   22900   -947.91635    48.775575   -899.14078    1746.9642   -4937.7689    2.1650596    5.9291634   0.11878241 
   23000   -946.93646    43.768475   -903.16798    1567.6281    11512.698     2.209578    5.7022287   0.14440467 
   23100   -942.96048    50.171681    -892.7888    1796.9677   -4032.6266    2.1580381    5.5767642   0.13404614 
   23200   -942.36603    45.447377   -896.91866    1627.7602   -3890.5402    2.1566129    5.2053649   0.12547647 
   23300   -946.73757    46.982485   -899.75508    1682.7422    4016.8917    2.1838931    5.2127292   0.13512458 
   23400   -944.24768    42.091841   -902.15584    1507.5771    6996.5747    2.1887572    5.6720747   0.12522016 
   23500   -938.97262    47.635616     -891.337     1706.135   -5200.3098    2.1406404      5.38367   0.12779385 
   23600   -940.91119    44.253392    -896.6578     1584.996    4445.0256    2.1702371    7.0249745   0.12604332 
   23700   -946.77864    47.793025   -898.98561    1711.7728    7614.6385    2.1921015    6.3701028   0.11192811 
   23800   -946.52884    46.904704   -899.62413    1679.9564   -1760.2734    2.1671492    7.3612526   0.12535106 
   23900   -939.92971    50.283803   -889.64591    1800.9835   -9390.2436     2.128973    7.1074601    0.1239939 
   24000   -944.57283    46.939759   -897.63307    1681.2119    8857.6246    2.1925982    5.5709571   0.13055566 
   24100   -945.00081    46.234681   -898.76613    1655.9586    8115.6898     2.190544     6.990429   0.12861982 
   24200   -940.43166    45.050273   -895.38139    1613.5374   -7735.2809    2.1419817    7.3351062   0.13205472 
   24300   -937.75214    47.931279   -889.82086    1716.7246   -2098.3811    2.1498088    6.4553229   0.14160956 
   24400   -943.75316    45.333883   -898.41928    1623.6953    10634.188    2.1945049    7.3059117   0.12388625 
   24500   -943.92414    45.104618   -898.81952    1615.4838    1283.5617    2.1716709    5.2659068   0.13725929 
   24600   -941.60931    50.887624   -890.72169    1822.6102   -5904.5164    2.1462508    4.8183484   0.12382105 
   24700    -944.1411    47.081517   -897.05958    1686.2892    -752.5451    2.1730478    4.8122257    0.1452136 
   24800   -945.63385    46.593423   -899.04043    1668.8074   -115.94742    2.1699608    4.6692631   0.12392509 
   24900   -943.27544    49.020074   -894.25537    1755.7213   -2036.6104    2.1621475    5.8120017   0.13644488 
   25000    -942.3441    48.118621   -894.22548    1723.4345    687.47269    2.1664963    6.2052354   0.14218599 
   25100    -946.8976    45.475853   -901.42175    1628.7801    3968.7994    2.1836854    6.9529072   0.12623638 
   25200   -943.85675    46.675944    -897.1808     1671.763    1543.8426    2.1709765    4.9968192   0.12509289 
   25300   -941.60775    46.372681   -895.23507    1660.9013   -1953.8662    2.1598122    5.4046848   0.13112624 
   25400   -948.00819    42.792162   -905.21602      1532.66    3002.8876    2.1867448    3.8559789   0.11931835 
   25500   -947.21613    48.306054   -898.91007    1730.1477   -233.96306    2.1737754    4.9407243   0.12285776 
   25600   -945.25767    48.959459   -896.29822    1753.5503   -1329.0229    2.1619388    6.5320999   0.12253975 
   25700   -949.94949     47.29517   -902.65432    1693.9415   -4248.8391    2.1733282    6.6196016   0.11658481 
   25800   -950.78744    47.388934   -903.39851    1697.2998    1398.0114    2.1878685    5.2822481   0.11989299 
   25900   -946.89704    50.751168   -896.14587    1817.7228    368.05796    2.1731233    5.0544978   0.12880185 
   26000   -940.82506    41.408853   -899.41621    1483.1149   -4080.9179    2.1543577    5.7587194   0.13067087 
   26100   -947.86707    42.887407   -904.97967    1536.0714   -868.20613    2.1803042    5.3197713   0.12856901 
   26200   -945.27948    48.267631   -897.01185    1728.7715    9719.2506    2.1957836    6.0666046   0.13899356 
   26300   -942.49752    46.336519     -896.161    1659.6061    157.38163    2.1690545    3.9971597   0.12560034 
   26400   -945.76929    45.471791    -900.2975    1628.6346   -12179.275    2.1449982    6.1307351   0.11829469 
   26500   -940.83253    42.982716   -897.84982     1539.485     4656.584    2.1789558    4.0867152   0.13640884 
   26600   -939.29224    49.349614   -889.94262    1767.5242    9546.7489    2.1767135    5.5266077    0.1220781 
   26700   -945.75432    47.631931   -898.12239     1706.003   -5168.1419    2.1587342    5.9433981   0.14382604 
   26800   -945.10787    45.215344   -899.89253    1619.4497   -4939.9819    2.1597451    6.3716921    0.1224108 
   26900   -938.38872    45.505005   -892.88371    1629.8243    10154.213    2.1831884    5.3988912   0.11891072 
   27000   -942.21789    48.531598   -893.68629    1738.2258     1283.575    2.1688832    5.2050241   0.13140058 
   27100   -946.20524    45.640821   -900.56442    1634.6887   -9894.8893    2.1495232    5.4363464   0.10875053 
   27200   -942.18707    45.012836   -897.17424    1612.1966    3558.2182    2.1729334    6.0166788   0.12477709 
   27300   -941.20177    51.097425   -890.10435    1830.1244    10630.368    2.1836946    7.5184051   0.13448874 
   27400   -941.45251    43.562144   -897.89036     1560.238   -3683.2653    2.1517357    5.7176006   0.10778832 
   27500    -944.6374    44.275815   -900.36158    1585.7991   -12268.907    2.1401032    6.5154125   0.12980456 
   27600   -940.58256    45.806896   -894.77566    1640.6369    14956.773    2.1971948    5.4396651   0.13104701 
   27700   -946.17356    45.337285   -900.83627    1623.8171     5418.793    2.1902368    5.5539948   0.13243858 
   27800   -950.84606    45.740888   -905.10518    1638.2727   -9257.6808    2.1617634    6.5235398   0.12626113 
   27900   -944.71932    47.139688   -897.57964    1688.3727   -649.13793    2.1675143    6.5466683   0.10750338 
   28000   -945.46367    47.943704   -897.51997    1717.1696    2973.0373    2.1810964    5.1049968   0.12130203 
   28100   -950.85499    45.645364   -905.20962    1634.8514   -1444.4587    2.1804875    5.5338822   0.14446871 
   28200   -943.12723    46.083666   -897.04357    1650.5498   -4637.5157     2.156474    11.320123   0.17352872 
   28300   -941.19327    45.740121   -895.45315    1638.2452    6146.1083    2.1785412    18.402071   0.14474852 
   28400   -941.10117    42.607202   -898.49397    1526.0355    2504.5067    2.1704308     9.904131   0.16154322 
   28500   -948.51559    44.269285    -904.2463    1585.5653   -3473.0864    2.1680547    13.840997   0.13649013 
   28600   -949.19585    45.541949    -903.6539    1631.1474   0.22970998    2.1831259    13.140906   0.14070695 
   28700   -942.29434    46.613139    -895.6812    1669.5136    5582.7977    2.1762466    15.289138   0.14770089 
   28800   -944.91786    47.522554    -897.3953    1702.0855   -6694.1754    2.1501188    13.918296   0.14743453 
   28900   -944.70767    46.649082   -898.05859     1670.801   -3410.2288    2.1615323    11.684018   0.14602254 
   29000   -952.67183     44.77829   -907.89354     1603.796    9902.6793    2.2096959    12.520281   0.14073705 
   29100   -942.93427    43.168893   -899.76538    1546.1532   -1038.7897    2.1614703    15.894057   0.15326816 
   29200   -944.39709    46.645951   -897.75114    1670.6888   -8876.7596    2.1534824    13.481082   0.16174869 
   29300   -943.45692     48.65934   -894.79758    1742.8011    4718.4807    2.1852338    15.760839   0.16880933 
   29400   -948.52455    44.046058   -904.47849    1577.5701    4486.3382    2.1969374    13.169464   0.15147833 
   29500   -944.03182    43.918707   -900.11311    1573.0088    -6757.422    2.1510177    14.080392    0.1538621 
   29600    -940.9503    45.143685   -895.80661    1616.8831    1370.5579    2.1692793    13.498979   0.17283069 
   29700   -947.03419    49.862238   -897.17195    1785.8845     6767.809     2.191408     13.22689   0.15989121 
   29800   -949.05868      44.1707   -904.88798    1582.0343   -2621.3443    2.1760658    13.672787   0.14588965 
   29900   -941.78896    46.367734   -895.42123    1660.7241   -11299.238    2.1370806    13.295052   0.14997844 
   30000   -948.66557    53.418012   -895.24756    1913.2395    795.86316    2.1838237    16.611178    0.1493247 
   30100   -947.26005    47.611712   -899.64834    1705.2788    10013.582    2.2017567    31.705458   0.13074479 
   30200   -946.24651    43.605717   -902.64079    1561.7986   -18226.677    2.1330513    25.189924   0.14432006 
   30300   -939.75478    45.461037   -894.29374    1628.2495   -11029.644    2.1330724     25.23844   0.15052975 
   30400   -943.41356      48.7153   -894.69826    1744.8054    23158.624    2.2279928    28.474319   0.15197442 
   30500   -947.53364    47.167537    -900.3661    1689.3701    612.00067    2.1765264    32.125981    0.1243408 
   30600   -942.26022    46.794663   -895.46555    1676.0151   -8697.4363    2.1433871    29.435545   0.13790738 
   30700   -941.86653    52.095835   -889.77069    1865.8839    -1345.282    2.1583331    31.241046   0.13987815 
   30800   -948.04881    48.761916    -899.2869     1746.475    11885.559    2.2018949    33.579202   0.12796039 
   30900   -948.73605    49.854284   -898.88177    1785.5997   -5620.6348    2.1635339    32.042861   0.14128792 
   31000    -942.2336    49.201281   -893.03232    1762.2114   -9354.8295    2.1399481    33.447139   0.13407743 
   31100   -948.07995    45.156478   -902.92347    1617.3413    7000.3702    2.1968555     30.75045   0.14464546 
   31200   -947.06876    46.420412   -900.64835    1662.6108    4422.7826    2.1870803    31.680872   0.14043058 
   31300   -944.74459    48.052926   -896.69167    1721.0815     -7704.17    2.1525792    31.293255   0.12789945 
   31400   -945.59935    50.764335   -894.83501    1818.1944   -6192.5833    2.1599177    32.165115   0.13926718 
   31500    -946.9764    43.083613   -903.89278    1543.0988    13472.691    2.2096422    31.342157   0.12620604 
   31600   -944.34215    46.998815   -897.34333    1683.3271     250.5767    2.1727299    30.275252   0.13170805 
   31700   -941.68849    44.608657   -897.07984    1597.7203   -10558.363    2.1482538    29.708849   0.14882459 
   31800   -946.64716    42.285374   -904.36179    1514.5088    4592.7818    2.1919077    32.694433   0.13520556 
   31900   -948.11485    47.947083   -900.16777    1717.2906    8366.9741    2.1999773    30.671092   0.12169305 
   32000    -942.1788     45.84755   -896.33125     1642.093   -4582.1226    2.1606446    32.230261   0.14190791 
   32100   -945.46859    44.773631   -900.69495    1603.6291   -8329.9115    2.1562455    32.681569   0.12468062 
   32200   -946.51483    43.995298   -902.51953     1575.752    7715.0856    2.1985197    35.121739   0.13200529 
   32300   -941.46321    48.511941   -892.95127    1737.5218    2890.9162    2.1712744    30.518648    0.1564538 
   32400   -942.88525    44.266956   -898.61829    1585.4818   -7986.0257     2.152737    31.542558   0.13196695 
   32500   -944.40424    43.939299   -900.46494    1573.7463    1569.1621    2.1766347    30.435047   0.13614819 
   32600   -943.89277    52.348581   -891.54419    1874.9363    8088.2651    2.1868582    30.269814   0.12859969 
   32700   -943.02868    48.227064   -894.80161    1727.3185   -733.55989    2.1634965    33.133399      0.12272 
   32800   -948.41679    47.513438   -900.90335     1701.759    -8399.206    2.1569512    34.145726   0.12323718 
   32900   -943.54927    47.755226   -895.79404     1710.419    3052.8648    2.1772354    30.921175   0.14177725 
   33000   -943.41084    51.406591   -892.00425    1841.1976   -874.51784     2.164527    30.924736   0.13843565 
   33100   -948.10903    46.773905   -901.33512    1675.2716    887.09998    2.1769356    33.922419   0.12830688 
   33200   -945.92188    47.884452   -898.03743    1715.0474   -1927.5485    2.1694049    30.477941   0.13233496 
   33300   -941.75824     48.64723   -893.11101    1742.3674    1094.5156    2.1662562    28.703915   0.13441552 
   33400    -947.6104    44.715259   -902.89514    1601.5384    385.36685    2.1835769    30.930755   0.15998118 
   33500   -945.33971    45.110347   -900.22936     1615.689   -4195.8419    2.1630554    32.268581   0.13948508 
   33600   -943.62278    48.206338   -895.41645    1726.5762    285.88654    2.1687162    32.562679   0.14463053 
   33700   -947.97861    45.538248   -902.44037    1631.0149    2522.2195     2.187432    31.123159   0.13385772 
   33800   -945.47171    42.683192   -902.78852    1528.7571   -355.68894     2.176619    31.146412   0.12375076 
   33900   -942.38873    46.094596   -896.29413    1650.9413   -1807.1689    2.1612693    32.915141   0.14007931 
   34000   -944.84599    45.440502   -899.40549     1627.514    308.54749    2.1734507    33.010267   0.16122474 
   34100    -952.1473    47.103992    -905.0433    1687.0942    4240.0902    2.1987957    31.169371    0.1477187 
   34200   -942.80955    48.055218   -894.75434    1721.1636   -4766.8173    2.1531576    30.274448   0.15157799 
   34300   -945.75734    47.834011   -897.92333    1713.2408   -6402.1016    2.1598277    28.628411   0.14481382 
   34400   -945.56723    44.885922   -900.68131     1607.651    8719.9985    2.2002476    32.181683     0.143564 
   34500   -942.48994    44.306156   -898.18378    1586.8858    4718.1367    2.1831272    33.212072   0.15724876 
   34600   -938.20116    45.232631   -892.96853    1620.0688   -10887.347    2.1293431    34.186854   0.14484713 
   34700   -944.73407    45.456715   -899.27736    1628.0947   -2141.0157    2.1677838    33.976912   0.14507563 
   34800   -948.98096    50.926346   -898.05461     1823.997     12089.66    2.2091992    31.930694   0.12960384 
   34900   -939.08106    48.767491   -890.31357    1746.6747   -1842.3816    2.1532466     32.02435   0.13783151 
   35000   -944.10028     48.07339   -896.02689    1721.8145   -11176.257    2.1403643    31.827112     0.148071 
   35100   -944.71566    45.415395   -899.30026    1626.6147    3596.3637     2.180135    28.754795   0.14879514 
   35200   -946.33394    49.658193   -896.67574    1778.5764    6728.7482    2.1863598    29.893071   0.13605049 
   35300   -940.07594    50.000371   -890.07556    1790.8319   -3039.9184    2.1467612    32.342878   0.14087185 
   35400   -947.65262    46.938098   -900.71452    1681.1524   -1532.2044    2.1743958    36.507257   0.11885176 
   35500   -944.59738    45.262838   -899.33454    1621.1507    1232.3737    2.1761042    32.368904   0.12890737 
   35600    -942.9454    46.623413   -896.32198    1669.8816    268.74458    2.1720125     31.30476   0.14526359 
   35700   -944.40046    53.581903   -890.81856    1919.1095   -2498.2466    2.1625434     31.85731   0.13153191 
   35800   -942.12986    54.542603   -887.58725    1953.5183   -4908.3987    2.1510627    32.501229   0.13965872 
   35900   -943.90429    46.581306   -897.32298    1668.3735    2518.6563    2.1810401    29.984031    0.1568471 
   36000   -945.04368    47.455127   -897.58855    1699.6706    4407.3956    2.1826131    27.577906   0.14660969 
   36100   -946.14508    46.653478    -899.4916    1670.9584   -5833.2154    2.1600873    29.946449   0.14563911 
   36200   -944.26126    46.726611   -897.53465    1673.5778   -4103.2254    2.1621895    33.505743    0.1404186 
   36300   -941.63775    51.636282   -890.00147    1849.4244    4780.4835    2.1732033    32.727333   0.13176854 
   36400    -943.0492    46.706656   -896.34255     1672.863   -1707.3966     2.166768    34.757785   0.13111183 
   36500   -947.27572    47.446866   -899.82886    1699.3747   -8900.4524    2.1540695    32.534324   0.12932073 
   36600   -946.35202    50.219199   -896.13282    1798.6696    4563.9566    2.1834806    31.366143   0.12993383 
   36700   -940.11728    50.894725   -889.22256    1822.8645    4642.6531    2.1740239    30.384769   0.15848851 
   36800   -943.42111    45.028559   -898.39256    1612.7597   -6300.7646    2.1571588    27.999162   0.15027121 
   36900    -942.0926    43.200001    -898.8926    1547.2674   -1753.1775    2.1672057    28.024193   0.13979009 
   37000   -942.13691    48.468113    -893.6688     1735.952    9339.3849    2.1913844    29.810797   0.14020499 
   37100   -941.96905    51.180036   -890.78901    1833.0833   -2341.1841    2.1598891    27.661315   0.12554641 
   37200   -946.03615    45.984236   -900.05192    1646.9886   -7301.1224    2.1585125    35.481769   0.12086796 
   37300   -945.50507    47.514611   -897.99046     1701.801    6925.3387    2.1878143    32.275805   0.13503811 
   37400   -942.20706    47.570493   -894.63657    1703.8025    6837.4744    2.1808009    31.797812   0.13745664 
   37500   -937.29239    47.138635   -890.15375    1688.3349    -10947.52    2.1298933    31.141398   0.15116493 
   37600   -948.53427    47.997608   -900.53666    1719.1003    1582.0805    2.1829003    30.713942   0.12430802 
   37700   -945.36182    48.036033   -897.32579    1720.4765    11914.924    2.2005609    31.830042   0.14238512 
   37800   -944.00525    47.233478   -896.77177    1691.7319   -3946.0452    2.1623999    34.365822   0.13617247 
   37900   -946.26417      42.0276   -904.23657    1505.2762   -7489.4853    2.1606502    34.407218   0.13628203 
   38000   -948.34804    45.049231   -903.29881    1613.5001    3678.0673    2.1920977    31.796679   0.12604228 
   38100   -947.55883    50.071175   -897.48766    1793.3679    2893.4692    2.1856961    33.016444   0.14216683 
   38200   -942.64314    45.328567   -897.31457    1623.5049   -1983.9213    2.1613735     30.53914    0.1359243 
   38300   -951.58964    45.096858   -906.49278    1615.2059   -2873.5149    2.1822424    33.385377   0.12729336 
   38400   -946.65162    45.533115   -901.11851     1630.831    63.393209    2.1793891    33.547607   0.13384203 
   38500   -944.00327    47.166561   -896.83671    1689.3352    3828.2623    2.1769091    31.399819   0.12535334 
   38600   -941.87063    42.051442   -899.81918    1506.1301    553.00208    2.1693111     30.98425   0.13919858 
   38700   -947.91249    41.086513   -906.82598    1471.5699    1906.7137    2.1843277    31.441087   0.13108349 
   38800    -947.1462    49.820375   -897.32583    1784.3852     -3536.09    2.1687596    30.932135    0.1399885 
   38900   -948.30357     50.94054   -897.36303    1824.5054    908.91378    2.1806761    32.691609    0.1347221 
   39000   -947.31837    45.375828   -901.94254    1625.1976     41.38933    2.1784579    26.969181   0.12627932 
   39100   -949.11262    42.758937   -906.35368      1531.47   -4401.6959    2.1737602    31.334454   0.12330101 
   39200   -945.74391    49.691159   -896.05275    1779.7571   -4641.4166    2.1578138    31.647268   0.12420163 
   39300   -944.63958    47.674862   -896.96472    1707.5407     9704.642    2.1937573     33.11301   0.12340251 
   39400   -946.34242    47.067552   -899.27487     1685.789   -34.753654    2.1750805    31.181796   0.13592261 
   39500   -943.00195    49.926575   -893.07537    1788.1889   -13165.145    2.1331234    27.923743   0.14270818 
   39600   -939.81373    48.559888   -891.25384    1739.2391    3687.9844    2.1680105    29.971184   0.12787898 
   39700   -944.08028    47.192041   -896.88824    1690.2478    9777.4465    2.1965405    29.370852   0.14740262 
   39800   -942.28353    42.682127    -899.6014     1528.719   -3296.4535    2.1604046    28.220593   0.14301088 
   39900   -941.55895     48.66499   -892.89396    1743.0035   -7197.6411    2.1443593    27.643252   0.14566025 
   40000   -940.85197    49.376581   -891.47538    1768.4901    7036.9266    2.1769619    29.323349   0.14485395 
   40100   -946.68036    48.270213   -898.41015     1728.864    3262.6743    2.1828833    29.387106   0.12727505 
   40200   -942.23916    43.536958    -898.7022    1559.3359   -4957.2592    2.1555426    31.841837   0.12436308 
   40300   -943.54708    50.812572    -892.7345    1819.9221   -2678.0704    2.1573989    31.116465   0.13638905 
   40400   -937.64181    48.153936   -889.48787    1724.6994    9404.6115    2.1779073    32.159735   0.13914807 
   40500   -949.26748    51.276944   -897.99053    1836.5542   -2669.9813    2.1696556    32.777177   0.13029506 
   40600   -945.77588    46.823692   -898.95218    1677.0548   -9042.5408    2.1526639    32.569075    0.1484765 
   40700   -945.33429    50.273574   -895.06072    1800.6171    5234.2528     2.181795    31.437783   0.13803199 
   40800   -943.28999    57.304178   -885.98582    2052.4278    6904.1252    2.1799816    33.097641   0.12239738 
   40900   -943.53093    47.102416   -896.42852    1687.0377   -6096.5437    2.1515582    31.038755      0.14314 
   41000   -945.56414    46.720461   -898.84368    1673.3575   -9202.2219    2.1524839    30.345255   0.13196274 
   41100   -944.78114    48.373454   -896.40768    1732.5617    12350.353    2.1965907    32.546713   0.13265828 
   41200   -941.80901    51.186544   -890.62247    1833.3164    4853.4532    2.1752641    35.981414      0.12803 
   41300   -937.29311    45.934157   -891.35895    1645.1949    -10821.65    2.1280607    33.882065   0.14184337 
   41400   -942.96888    44.338968   -898.62992    1588.0611   -2436.8111    2.1655505    33.721091   0.13833166 
   41500   -944.45695    46.718091   -897.73886    1673.2726    11544.752     2.199731      32.7154   0.13973475 
   41600   -944.70063    45.141663   -899.55897    1616.8107   -1351.5075    2.1696787    32.456687    0.1296133 
   41700   -946.77003    37.561138   -909.20889    1345.3037   -3576.4075    2.1727863    42.271169   0.13434292 
   41800   -944.99895    43.124199   -901.87475    1544.5524     676.6477    2.1796292    57.012061   0.15224839 
   41900   -947.57386     50.11962   -897.45424     1795.103   -685.91954    2.1776333    62.269807   0.15830212 
   42000   -940.93307    44.942189   -895.99088    1609.6662    -1101.678    2.1616945    63.050999   0.16939518 
   42100   -942.26722     43.73337   -898.53385    1566.3707   -4545.5646     2.158355    59.617895   0.16095303 
   42200   -951.11855    48.027498   -903.09105    1720.1708    2335.9126    2.1889225    62.147246   0.14509705 
   42300   -945.96976    49.213534   -896.75623    1762.6503    4790.1137    2.1811617    62.164337   0.15051375 
   42400   -940.07735     44.04732   -896.03003    1577.6153   -6080.7337    2.1479474    55.067182   0.14518353 
   42500   -948.93335    43.621837   -905.31152     1562.376   -2430.3516    2.1739521    52.120444   0.14978086 
   42600   -946.98023    47.349429    -899.6308    1695.8848    6471.4888    2.1875138    48.529543   0.15576756 
   42700   -945.17858    49.934357   -895.24422    1788.4676    2986.0695     2.173218     72.28583   0.13738337 
   42800   -943.95778    44.712653   -899.24513    1601.4451   -11916.216    2.1349581    60.104159   0.14280606 
   42900   -948.11827    43.352619   -904.76565    1552.7336   -3652.4941    2.1727844    89.611453   0.11556628 
   43000   -943.72212    48.423908   -895.29822    1734.3688    15037.439    2.2051196    91.891291   0.13259367 
   43100   -943.43673    47.753688   -895.68304    1710.3639   -1947.6592    2.1649832    108.03797   0.12677357 
   43200   -944.09102    43.085255   -901.00576    1543.1576   -11959.981    2.1422188    98.593967    0.1298622 
   43300   -947.57298    50.009153   -897.56383    1791.1465    2761.5242    2.1827057      99.9237   0.12526063 
   43400    -940.4974    49.642572   -890.85483    1778.0169    5228.4699    2.1757996    98.200856   0.13721274 
   43500   -946.81555    47.094958   -899.72059    1686.7706   -4742.2434    2.1630229    97.192786   0.12924007 
   43600   -944.07104    45.181151   -898.88989     1618.225    -1600.098    2.1610291    99.648809   0.12263848 
   43700   -941.78308    51.236187   -890.54689    1835.0944    6241.6402    2.1764048    96.931019   0.14234123 
   43800   -944.26042    45.038424     -899.222     1613.113    3036.9147    2.1835764    102.12252    0.1370438 
   43900    -942.6576    42.177786   -900.47981    1510.6553   -6053.1864    2.1547494     97.46242   0.14218413 
   44000   -941.02814    47.066577   -893.96156    1685.7541   -159.22236    2.1651925    97.238155   0.14417565 
   44100   -947.57711      46.4611   -901.11601    1664.0681    6628.6649    2.1955417    99.351904   0.13846699 
   44200   -946.77239    44.933783    -901.8386    1609.3651   -1745.8923    2.1752783    100.88398   0.14437454 
   44300   -944.21339    48.078633   -896.13476    1722.0023   -6832.3156    2.1576485    99.209544   0.12902906 
   44400   -945.40171     47.16593   -898.23578    1689.3126    128.62538    2.1744078    97.562167   0.14518215 
   44500   -947.38635    43.307583   -904.07877    1551.1206    6723.4492    2.1947667    96.450161   0.13167438 
   44600   -943.91625    47.865233   -896.05102    1714.3591   -2690.7489    2.1627356    109.13026   0.11979092 
   44700   -941.15305    43.317835   -897.83522    1551.4878   -1383.3645    2.1651652    106.43106   0.13893453 
   44800   -946.84216    42.545493   -904.29667    1523.8253    4174.8739    2.1890508    104.82772   0.13715629 
   44900   -946.06412    51.057927    -895.0062    1828.7098   -1396.8083    2.1665804    100.14173   0.12765686 
   45000   -940.17828    43.338187    -896.8401    1552.2167    3430.7449     2.172152    100.48089   0.15010249 
   45100   -949.47469    47.244536   -902.23015    1692.1279    -417.3565    2.1806277    99.808532   0.12673773 
   45200   -942.35547    48.047949   -894.30752    1720.9033    959.86944    2.1679197    92.095173   0.13502084 
   45300   -944.75578    49.616626   -895.13916    1777.0876    1820.1159    2.1707223    100.27005   0.13329766 
   45400   -950.51513    49.400715   -901.11442    1769.3545   -4619.6799    2.1721717    98.631716   0.12182207 
   45500   -942.80476    46.733996   -896.07077    1673.8422   -489.38773    2.1707115     99.84307   0.13594333 
   45600   -940.40698    47.787236   -892.61975    1711.5655    2971.3259    2.1705808    101.26809   0.14538373 
   45700    -949.9829    49.220331   -900.76257    1762.8938   -2983.4178    2.1734127     105.6983   0.12824028 
   45800   -944.39753    47.361454   -897.03608    1696.3155   -2928.2109    2.1624933    108.01831   0.12978854 
   45900   -942.72482    51.595828   -891.12899    1847.9754    770.74983    2.1692674    121.59559   0.15024553 
   46000   -943.66465    43.883986   -899.78066    1571.7652    1843.9211    2.1784413    119.99961   0.13155073 
   46100    -944.2311    46.617464   -897.61364    1669.6685   -3471.8583    2.1537432    122.44835   0.13495112 
   46200   -939.24075    48.279167   -890.96158    1729.1847    1466.5052    2.1591125    127.86675   0.16236555 
   46300   -945.04018    44.918292   -900.12189    1608.8103    10371.105    2.1983012    112.66821   0.15286429 
   46400   -941.93085    43.387408   -898.54344    1553.9796   -3846.8247    2.1567552    129.34571   0.15655369 
   46500   -941.35598    47.520587   -893.83539    1702.0151   -11056.987    2.1377218    126.54813   0.15418971 
   46600   -945.54786    42.925916   -902.62195    1537.4506    6372.7538    2.1926261    121.94675   0.14175928 
   46700   -945.29866    46.167698   -899.13097    1653.5595    7761.9516    2.1822506    118.05376   0.15651362 
   46800   -938.67433    43.706989   -894.96734    1565.4259   -6588.0179    2.1448078    136.89346   0.15427916 
   46900   -945.14959    45.392583     -899.757    1625.7977   -3505.8075    2.1579582    159.45351   0.14026572 
   47000   -947.13134     46.23169   -900.89965    1655.8515    9932.0614    2.2002289    163.68333   0.14378037 
   47100   -940.30498    46.419878    -893.8851    1662.5917    4360.2202    2.1699462    185.14729   0.11694081 
   47200   -948.49345    47.938471   -900.55498    1716.9822   -12623.158    2.1443943     183.9942   0.11978059 
   47300   -947.14659    46.548958   -900.59764    1667.2149   -41.184216    2.1754307    176.94207   0.13507868 
   47400   -940.58971    49.225785   -891.36393    1763.0891    9306.9318     2.180357    181.04065    0.1275427 
   47500   -943.91331    45.663971   -898.24934    1635.5179   -2447.7713     2.163633    188.07909   0.14494204 
   47600   -945.67556    45.140431   -900.53513    1616.7665   -4159.9531    2.1658107    176.70334   0.12198529 
   47700    -944.6775    53.764703    -890.9128    1925.6567    44.052371    2.1677023     184.2122    0.1355878 
   47800   -943.31885     47.20831   -896.11054    1690.8305    4749.4522    2.1769061    178.35633    0.1417838 
   47900   -947.20798    46.504068   -900.70391    1665.6071   -4907.9971    2.1663571    178.17455      0.12586 
   48000   -939.29789    44.875457   -894.42243    1607.2761    2381.5845    2.1634729    178.98518   0.13177915 
   48100   -942.34694    49.458778   -892.88817    1771.4341    774.54788    2.1681558    171.27055    0.1325864 
   48200   -945.93556    44.977666   -900.95789    1610.9369    2793.6266    2.1848044     171.2598   0.13398359 
   48300   -947.31165    49.814144    -897.4975     1784.162   -701.11888    2.1725828    178.35367   0.13830866 
   48400    -942.3481     49.27167   -893.07643    1764.7325   -4754.9984    2.1582375    177.76428   0.13284726 
   48500   -947.98785    44.535237   -903.45261    1595.0907    3951.7709     2.190983    183.05879   0.13532665 
   48600   -943.62196    44.160661   -899.46129    1581.6747    1229.5699    2.1755809    181.27064   0.12353809 
   48700   -942.55258    46.941936   -895.61064    1681.2899   -4840.0257    2.1547657    184.97714   0.13183083 
   48800   -945.93389    45.396549   -900.53734    1625.9398    1318.0079    2.1781459    174.46623   0.13176599 
   48900   -950.01511    47.086883   -902.92823    1686.4814    5903.0605    2.1978646    172.90304   0.12446236 
   49000   -945.83116    49.559016   -896.27215    1775.0242   -5294.5801    2.1611568    177.87526    0.1240577 
   49100   -945.32572    47.016987   -898.30873     1683.978   -10307.064    2.1461581    174.05654   0.12635144 
   49200   -945.59823    41.334289   -904.26394    1480.4443     9086.014    2.1984358    177.18445   0.12630434 
   49300   -944.50951    49.734231   -894.77527    1781.2998    5046.3304    2.1817349    182.11595   0.12722372 
   49400   -945.34793    48.529537    -896.8184     1738.152   -7575.9411    2.1511975    175.32989   0.13268918 
   49500   -946.69772    45.402394   -901.29533    1626.1491   -3677.3844    2.1642162    174.52936   0.12167252 
   49600   -948.31033    48.083863   -900.22647    1722.1896    9033.5617    2.2006302    184.39124   0.12731634 
   49700   -942.45333    49.531541   -892.92179    1774.0402    -349.1746     2.164005    175.88356   0.14407307 
   49800    -941.0936    41.173334   -899.92026    1474.6795   -6344.3086    2.1513594    180.85388   0.12427816 
   49900   -944.99296    46.417744   -898.57521    1662.5153     3879.873    2.1814692    173.47728    0.1257515 
   50000   -941.45821     52.41517   -889.04304    1877.3213    5006.0118    2.1703804     175.9528   0.13087099 
   50100   -943.58716    45.898609   -897.68855    1643.9217   -3225.1018    2.1613065    183.11738   0.13998088 
   50200   -943.69032     43.65097   -900.03935    1563.4194   -4285.2921    2.1547254    180.85208   0.12532456 
   50300   -942.95886    49.857108   -893.10175    1785.7008    8889.5658     2.184714    181.36168   0.13081562 
   50400   -947.33255    51.518548     -895.814    1845.2076    4968.4859    2.1825716    180.49218   0.13301338 
   50500    -947.1455    45.322824   -901.82267    1623.2992   -14586.272    2.1454515    177.00877   0.13471817 
   50600    -941.3953    43.655997    -897.7393    1563.5995    1028.0387    2.1689299    165.22806   0.14605702 
   50700   -943.64289     53.72509    -889.9178    1924.2379    22475.729    2.2202876     163.5886   0.15140092 
   50800    -946.5328     48.76731   -897.76549    1746.6682   -7657.7117    2.1575531    171.37788   0.12963692 
   50900   -945.13541    43.051648   -902.08376    1541.9539    -17460.48    2.1295649     146.0569   0.15077547 
   51000   -940.91778    47.638309   -893.27947    1706.2315     5529.856    2.1774695     161.5438   0.16161028 
   51100   -940.06049    44.459448   -895.60104    1592.3762    12556.431    2.1917406    157.76309   0.15505547 
   51200   -947.86038    46.214755   -901.64563    1655.2449   -5154.6997    2.1613566    150.90921   0.14339776 
   51300   -943.76206    49.424582   -894.33748    1770.2093   -7976.2775    2.1527342    162.85113   0.16132226 
   51400   -947.67875    53.978055   -893.70069    1933.2982    716.60677    2.1779399    169.21137   0.13116886 
   51500   -944.70628    43.604502   -901.10177    1561.7551     7153.643    2.1899044    159.89648   0.14089152 
   51600   -942.64174    47.755715   -894.88602    1710.4365   -5426.3115    2.1529141    164.64168   0.14949447 
   51700   -941.07422    46.760127   -894.31409    1674.7782   -3237.4803    2.1635554    166.78242   0.14883217 
   51800   -945.19842     43.55234   -901.64608    1559.8869    7666.1369    2.1943201    169.06867   0.14403176 
   51900   -943.64142    49.879502   -893.76191    1786.5029   -910.48943    2.1662427    163.80404   0.14343105 
   52000   -940.19752    45.100129    -895.0974    1615.3231   -3283.4316    2.1575533    149.02499   0.17141628 
   52100   -947.84911    46.122516    -901.7266    1651.9413    1574.4743    2.1856985    152.33172   0.16317888 
   52200   -941.31151    47.052693   -894.25882    1685.2568    3816.3636    2.1772092    154.97055   0.18162532 
   52300   -944.68367    49.744811   -894.93886    1781.6787   -6501.5136     2.159125    154.11636   0.15179353 
   52400   -948.51493    46.585802   -901.92913    1668.5345   -4398.6136    2.1685422    156.45814   0.14466603 
   52500   -945.12974    50.103095   -895.02665    1794.5112    6249.9694    2.1867802    159.27452   0.15889814 
   52600   -939.92908    47.032463   -892.89662    1684.5323    4610.4096    2.1738509    156.85417   0.16253263 
   52700   -946.06153    44.889424   -901.17211    1607.7764    -7268.659    2.1540661    155.24486   0.15505023 
   52800   -940.74942    44.643445   -896.10597    1598.9663    491.72601    2.1668104    162.99542   0.17140969 
   52900   -939.63343    49.493064   -890.14037    1772.6621    12761.825    2.1897525    153.42076   0.16963005 
   53000   -946.29829    46.377844   -899.92044    1661.0862   -2489.1445    2.1692364    148.09608   0.15158697 
   53100   -946.30329    47.501637   -898.80166    1701.3364   -14625.433    2.1376635    156.08529   0.14029754 
   53200   -947.18725    54.937873   -892.24938    1967.6754     1126.119    2.1748896    148.49326   0.15091429 
   53300   -946.07556    45.886203   -900.18935    1643.4774    10589.679    2.2010037    162.34414    0.1416462 
   53400   -947.27227    47.130825   -900.14145    1688.0552   -8732.8125    2.1550824    163.14527   0.14788406 
   53500   -944.48443    50.468845   -894.01558     1807.611   -5950.4149    2.1485015    151.37613   0.14948792 
   53600   -947.84034    47.350405   -900.48993    1695.9198      5694.63    2.1884079     151.9526   0.14827879 
   53700   -948.16867    47.043575    -901.1251    1684.9303    840.83739    2.1796638    159.09041   0.15286366 
   53800   -941.73122    47.929286   -893.80193    1716.6532   -6043.7218    2.1490236    141.74142   0.15143038 
   53900   -947.65831    48.270256   -899.38805    1728.8655   -3981.2791      2.16882    151.69416   0.14576483 
   54000   -947.57506    46.599106   -900.97596     1669.011     2402.551    2.1797686    154.64125   0.14560342 
   54100   -942.03963    49.660279   -892.37935    1778.6511   -1590.0192    2.1569769    153.79788   0.15277065 
   54200   -945.47994    45.906121   -899.57382    1644.1908   -3161.1838    2.1652552    150.28587   0.14399272 
   54300   -945.30864    45.365857   -899.94278    1624.8405     1560.485    2.1739768    139.94747    0.1549809 
   54400   -944.44972    52.866211    -891.5835     1893.476   -834.25491    2.1672792    152.89269     0.149802 
   54500    -944.0917    45.037833   -899.05387    1613.0918    2465.0676    2.1702946    159.64649   0.15116079 
   54600   -945.44303    45.241965   -900.20106    1620.4031   -4225.6667    2.1615756    153.04727   0.14889078 
   54700   -943.19111    51.496658   -891.69445    1844.4235    849.43942     2.166164    151.56114   0.15257045 
   54800   -941.34494    43.464774   -897.88017    1556.7506    9035.4273    2.1918771    146.00393   0.16265369 
   54900   -941.98488    41.608279    -900.3766    1490.2576   -2955.8483    2.1645259    157.80164   0.15465784 
   55000   -937.69916    45.483049   -892.21611    1629.0379    -5130.775    2.1453609    164.94263    0.1779963 
   55100   -944.68744    45.834224   -898.85322    1641.6157    5977.7848    2.1912869    152.41156   0.16682647 
   55200   -942.45876    42.567404   -899.89136    1524.6101    5652.9437    2.1887147    152.36334   0.14701474 
   55300   -942.79807    49.039961   -893.75811    1756.4336   -8657.5844    2.1459553    161.18504   0.15507183 
   55400   -943.70327    47.940042   -895.76322    1717.0384   -4362.9322     2.157245    146.94898    0.1681795 
   55500   -948.29606    47.520605   -900.77545    1702.0157    7947.8989    2.2008823    159.10198   0.15577581 
   55600   -938.77131    44.854671   -893.91664    1606.5317    7327.4442    2.1780998    156.94748   0.16946471 
   55700   -942.12379    45.889971   -896.23382    1643.6123   -9026.9974    2.1407243    153.11561   0.16715513 
   55800   -947.77577      44.5315   -903.24427    1594.9568   -727.14139    2.1794621    145.99419   0.14011779 
   55900   -942.33674    47.486983   -894.84976    1700.8115    9509.7733     2.195681    152.69875   0.16028018 
   56000   -940.46241    44.682192   -895.78021    1600.3541   -1449.4362    2.1632202     150.8064   0.16751012 
   56100   -946.03708    42.850804   -903.18627    1534.7604    -8892.921    2.1570261     148.5054   0.15319672 
   56200   -942.52324    45.685821   -896.83742    1636.3004    6536.5131     2.182822    148.02626   0.15535931 
   56300   -941.78126    48.416428   -893.36483    1734.1009    5782.3401    2.1820978    192.19062    0.1653225 
   56400   -944.75425    43.854677   -900.89958    1570.7155   -1645.7038     2.167753     160.5145   0.15963607 
   56500   -944.21337    47.258078   -896.95529     1692.613     132.8802    2.1699519    155.74539   0.15661773 
   56600   -942.52525    50.106566   -892.41868    1794.6355    1305.2878    2.1708619    154.36393   0.16140431 
   56700    -945.5109    45.131972   -900.37893    1616.4636    1289.9413    2.1848097    143.34458   0.15712392 
   56800   -942.97365    46.113977   -896.85967    1651.6354   -1053.9563    2.1713747    141.69484   0.14743102 
   56900   -939.20773    46.327929    -892.8798    1659.2984    -2638.801    2.1563104    142.73092   0.13758222 
   57000   -947.02809    45.493091   -901.53499    1629.3976    3207.9476    2.1877094    132.82438   0.13687556 
   57100    -941.5636    44.353226   -897.21038    1588.5717    7005.0052    2.1843328    140.27749   0.14393955 
   57200   -941.71399    47.723295    -893.9907    1709.2754   -4274.5451    2.1557804    132.10348   0.15927949 
   57300   -945.71646    42.130184   -903.58627    1508.9504    777.32602    2.1804823    140.45936   0.15147647 
   57400    -942.3487    44.097009   -898.25169    1579.3949    5294.1222    2.1820007    139.27083   0.14555844 
   57500   -943.08097    48.153301   -894.92767    1724.6766    608.26201    2.1694873    147.49303   0.14236748 
   57600   -949.11272    45.136569   -903.97615    1616.6282    -7573.076    2.1697552    142.86265   0.13698326 
   57700   -947.09896     47.03521   -900.06375    1684.6307   -1845.0156    2.1717491    144.75972   0.13451148 
   57800   -945.39483    50.976254   -894.41858    1825.7846    8645.6391    2.1920078    132.30664   0.12748851 
   57900   -943.41583    41.775455   -901.64038    1496.2453    1066.4155    2.1745058    141.68845   0.14111483 
   58000   -947.03766    46.143096   -900.89456    1652.6784   -10802.576    2.1479495    143.72071   0.13371226 
   58100   -941.27128    47.182139   -894.08914    1689.8931     4848.541    2.1749947    142.23022   0.14288596 
   58200   -943.30955    45.036722   -898.27283    1613.0521    10031.577    2.1959179    138.19259   0.15438649 
   58300   -945.24489    42.753694    -902.4912    1531.2823   -3943.3496    2.1634312     142.0642    0.1393159 
   58400   -940.02603    47.438435   -892.58759    1699.0727   -8849.7037    2.1398669    141.83807   0.14061317 
   58500   -945.48548    48.291283   -897.19419    1729.6186    10465.478    2.1963295    135.33491   0.13568695 
   58600    -945.8736    45.528658   -900.34494    1630.6714    4517.3517    2.1847789    148.05944   0.13206016 
   58700   -943.42626    48.542557   -894.88371    1738.6183    -9226.784     2.142804    136.90597   0.12561439 
   58800     -943.311    50.569469   -892.74153     1811.215   -2856.9211    2.1602311    136.33137   0.13085624 
   58900   -946.93759    46.563489    -900.3741    1667.7353    8769.3518    2.1966091    145.60167   0.13057483 
   59000   -945.46953    48.838267   -896.63126    1749.2096   -2608.2508     2.163234    134.12714   0.13376365 
   59100   -944.64684    50.439621   -894.20722    1806.5643   -6177.7447    2.1540156    138.88727   0.13528536 
   59200   -949.76729    47.277019   -902.49027    1693.2914    1450.7376     2.191097    137.56531   0.14113749 
   59300   -944.96615    48.732946    -896.2332    1745.4374    2924.2686    2.1791124    137.56189   0.13600187 
   59400     -942.563    47.333168   -895.22983    1695.3024   -1174.6236    2.1652643    142.24225   0.13257027 
   59500   -945.24224    41.956106   -903.28613    1502.7156    300.53099    2.1773461    141.56707   0.13533805 
   59600   -941.85123    45.683345   -896.16789    1636.2117    2305.7152    2.1740923    141.57587   0.13198999 
   59700    -945.1299    49.975873   -895.15403    1789.9545    140.66388    2.1702464    141.85893   0.13896325 
   59800   -950.71937    47.202198   -903.51717    1690.6116   -1797.4838    2.1790526    139.26739   0.11335668 
   59900   -942.00896    45.519191   -896.48977    1630.3324   -933.27253    2.1658128    136.97369    0.1386355 
   60000   -945.23031    49.634883   -895.59542    1777.7415   -561.99649    2.1674429    129.37311   0.13117584 
   60100   -946.28688    43.021732   -903.26515    1540.8824    4456.8077    2.1842472    143.21139   0.12779827 
   60200   -939.92004    44.277837    -895.6422    1585.8716    1196.8151    2.1621802    136.53275    0.1445174 
   60300   -941.56955    45.468294   -896.10126    1628.5094    1317.2359    2.1675295    141.09354   0.14046314 
   60400     -948.714    46.109596    -902.6044    1651.4785     3282.073    2.1858433    135.72789   0.11670443 
   60500   -940.24372    45.680426    -894.5633    1636.1072    60.670139    2.1666696    135.47587   0.13467688 
   60600   -941.07059    44.738642   -896.33195    1602.3759     324.6163    2.1632035    141.37707   0.13619601 
   60700   -947.33689    44.852862   -902.48403    1606.4669   -1780.8401      2.17544    138.34072   0.11379534 
   60800    -944.1714    49.998721   -894.17268    1790.7729    2875.8271    2.1726428    138.93123   0.13281418 
   60900   -943.25115    47.029412   -896.22174     1684.423    887.78386    2.1691711    141.77374   0.12406966 
   61000   -943.87062    41.242338   -902.62828     1477.151   -2158.9894    2.1670048    130.75244   0.11798478 
   61100    -942.1034    47.325301    -894.7781    1695.0207    938.22691    2.1659327    148.28556    0.1376965 
   61200   -942.50791     46.29045   -896.21746    1657.9561    5073.7601    2.1792623     148.0865   0.12349735 
   61300   -946.07544    43.246647   -902.82879    1548.9381    197.17261    2.1748599    141.26991   0.12477595 
   61400    -942.4885    46.480113   -896.00838    1664.7491    -2217.444    2.1579856    139.18867   0.12835199 
   61500   -945.33389    49.520167   -895.81372    1773.6328    1625.5181    2.1736915    137.68606   0.12289898 
   61600   -948.86706    45.907004   -902.96005    1644.2224    5071.0404    2.1908038    133.80035   0.12010255 
   61700    -942.5133    46.952429   -895.56088    1681.6657   -6358.7177    2.1512593    141.33587   0.12944318 
   61800   -940.79634    44.043727   -896.75261    1577.4866   -2568.0127    2.1553488    139.19168   0.13784123 
   61900   -944.62495    42.592183   -902.03277    1525.4975    13541.337    2.2057073    134.74637   0.13256963 
   62000   -940.46401    46.971866   -893.49214    1682.3619     5279.004      2.17283    146.41919   0.13484313 
   62100   -942.00282    45.725872   -896.27695    1637.7349   -10329.645    2.1422949    143.41956   0.14430545 
   62200   -946.29984    44.460756   -901.83908    1592.4231   -1445.6709    2.1749056    147.38066   0.14259475 
   62300   -948.47834    51.345563   -897.13277    1839.0119    11698.989    2.2071388    141.85914   0.12940198 
   62400    -943.3152    49.578654   -893.73655    1775.7276   -5402.7541    2.1568232    140.65755   0.13837708 
   62500   -941.76522    39.619422    -902.1458     1419.024   -8387.7697     2.150242    139.79121   0.12442421 
   62600   -947.35849    49.308951   -898.04954    1766.0678    4228.9898    2.1857282    135.59028   0.12628627 
   62700   -935.95371    44.105961   -891.84775    1579.7156    11339.558    2.1816022    143.33525   0.14315023 
   62800   -944.64955    43.907785   -900.74176    1572.6176   -3485.1942    2.1610814    151.64249   0.13623314 
   62900   -946.95684    46.703292   -900.25355    1672.7426    -4567.566    2.1629406    136.88385   0.12580461 
   63000   -941.10363    47.830382   -893.27325    1713.1108     7033.478    2.1759898    139.42948   0.13445075 
   63100   -947.30028    46.182213   -901.11807    1654.0794     952.0177    2.1802568    138.17942   0.13060039 
   63200   -943.41088    41.975957   -901.43493    1503.4265   -1257.2508    2.1657915    136.47711    0.1359937 
   63300   -942.75161     48.16138   -894.59023     1724.966    1044.2519    2.1650885    140.65651   0.13342841 
   63400   -947.01678    46.253398   -900.76339     1656.629    3835.0594    2.1842759    134.61232   0.12198422 
   63500   -948.24532    45.876805   -902.36851    1643.1408      448.542    2.1770186    134.50362   0.12485322 
   63600   -943.80073    49.053678   -894.74705    1756.9248   -4964.7754    2.1552265    137.94858   0.11952426 
   63700   -945.51096       45.658   -899.85296     1635.304    2260.0415    2.1778258    139.14398   0.13675512 
   63800   -947.86431    45.732553   -902.13176    1637.9742    4847.8153    2.1892468    142.75721   0.13012635 
   63900   -943.07521     49.45679   -893.61842    1771.3629   -4948.1091     2.154497    139.11911   0.12939382 
   64000   -946.36771    46.452389   -899.91532    1663.7561   -5787.3577    2.1616389    140.47382   0.13315689 
   64100   -946.03655    45.909158   -900.12739    1644.2996    8348.1378    2.2002654    137.04314   0.13997027 
   64200   -941.11886    50.397051   -890.72181    1805.0396    3571.5276    2.1667874    134.56274   0.12196125 
   64300   -940.91999    43.056184   -897.86381    1542.1164   -8979.1097     2.142501    141.94077   0.13066225 
   64400   -944.86099    44.610307   -900.25068    1597.7794    1857.7427    2.1770953    139.94064   0.11863303 
   64500   -944.37926    50.518808   -893.86045    1809.4005    12537.586    2.2022955    142.83798    0.1200021 
   64600   -940.43443    46.254424   -894.18001    1656.6657   -4082.2133    2.1496251    139.10457   0.12922033 
   64700   -945.96352    43.711143   -902.25238    1565.5746   -8666.8457    2.1508437    139.70127   0.11770212 
   64800   -942.83003    46.214486   -896.61554    1655.2353    10113.809    2.1884508    136.71513    0.1323274 
   64900   -945.22637     50.95856   -894.26781    1825.1508    3813.1635    2.1791969    144.61144   0.12181738 
   65000   -945.34429    41.297388    -904.0469    1479.1227    -5029.634    2.1636039    146.16106   0.11966144 
   65100   -941.50007    41.390397   -900.10967    1482.4539   -1223.4556    2.1648706    146.66861   0.12412778 
   65200   -941.23195     46.39538   -894.83657    1661.7142    4856.6618    2.1818865    139.63684   0.13157849 
   65300    -947.2317    45.286119   -901.94558    1621.9846    571.72871    2.1823485    136.84336   0.12313828 
   65400   -946.94526    44.351917   -902.59335    1588.5248   -6179.8893     2.168682    138.81657   0.12577692 
   65500   -940.95782    45.530563   -895.42726    1630.7397   -925.30122     2.167649    136.70043   0.13610104 
   65600   -945.49346    45.853072   -899.64039    1642.2908    3753.5181    2.1846971     135.6946   0.13245352 
   65700   -948.32758    44.327205   -904.00037    1587.6397    1293.4393    2.1859295    136.16874   0.14405927 
   65800   -941.30729    47.273657   -894.03363     1693.171   -5614.5554    2.1485935    133.25922   0.13940788 
   65900    -944.1952    45.905872   -898.28932    1644.1819    3327.0747    2.1787277    142.08892   0.13048816 
   66000    -944.5085    43.410607   -901.09789    1554.8105    8855.5386     2.196378    138.98335   0.13934516 
   66100   -936.79299    45.467245   -891.32575    1628.4718   -6277.0004    2.1412404    142.59331   0.13685256 
   66200   -945.17193    47.833204   -897.33873    1713.2119   -6834.8342     2.152323    142.05718   0.13153909 
   66300   -945.78545    46.409351    -899.3761    1662.2147    12205.867    2.2063759    129.26156    0.1296989 
   66400   -944.36237    47.672728   -896.68964    1707.4642    3770.6062    2.1847692    141.70523   0.13500969 
   66500   -937.85523    44.807477   -893.04775    1604.8413   -17524.308    2.1158825    140.71765   0.15281103 
   66600    -947.3724    44.677454   -902.69494    1600.1844    809.12014    2.1796584    143.26477   0.12608436 
   66700   -948.13864    50.707214   -897.43142    1816.1485    12810.514    2.2038484    138.24639   0.12478762 
   66800   -941.37491    45.938904     -895.436     1645.365   -2276.5852    2.1559971    142.78219   0.14185162 
   66900   -950.56759    46.344486   -904.22311    1659.8914   -10354.332    2.1568473    137.15236   0.12706019 
   67000   -947.25915    46.655985   -900.60316    1671.0482    3668.8424    2.1822614    142.54999   0.12700098 
   67100   -944.94123    50.284755   -894.65647    1801.0176    5654.2246    2.1800227    143.57986   0.14030113 
   67200   -945.31239    44.380654   -900.93174    1589.5541   -4729.6249    2.1593391    148.11284    0.1224922 
   67300   -950.26099    47.913614   -902.34737    1716.0919   -4179.2907    2.1717217    140.42256   0.12554685 
   67400   -941.76277    48.203976    -893.5588    1726.4916    5163.3393    2.1739131    139.56433   0.13383124 
   67500   -942.03947    43.559048   -898.48043    1560.1271    601.89017    2.1710802    139.18171   0.14113662 
   67600   -944.78479    42.650402   -902.13439    1527.5827    -2662.115    2.1666235    145.71633    0.1331556 
   67700   -941.76989    49.144295   -892.62559    1760.1704    2147.9704    2.1687817    141.23559   0.12814285 
   67800   -945.76076    50.587335   -895.17342    1811.8549    7862.4883    2.1896002    135.19915   0.12871307 
   67900   -945.73086    45.126239   -900.60463    1616.2582   -7157.2491    2.1568693    139.66931   0.11706572 
   68000   -942.64175    46.985651   -895.65609    1682.8556   -7452.5031    2.1443036    138.26598   0.13382874 
   68100   -944.40241    54.844591   -889.55781    1964.3343    9123.6573    2.1876258     141.8268   0.12813722 
   68200   -944.63318    46.674723   -897.95845    1671.7193    7605.7404     2.189146    139.27644   0.12737906 
   68300   -944.15896    44.513783   -899.64517    1594.3223   -15645.911    2.1294372    140.15257   0.12452087 
   68400   -943.78604    50.426567   -893.35947    1806.0968   -3398.4531    2.1552817    136.60712      0.13262 
   68500   -947.35587    49.432328   -897.92354    1770.4867    13181.958    2.2054191    138.77172   0.12608222 
   68600   -949.85186    47.858542   -901.99332    1714.1194   -6113.8858    2.1673836     139.1764   0.11948639 
   68700   -941.99605    43.815022   -898.18103    1569.2952   -4524.0189    2.1545289    134.09183   0.11993032 
   68800   -944.64478    50.636836   -894.00794    1813.6278    2698.8872    2.1744041    145.15187   0.11595877 
   68900   -949.17877    45.592072    -903.5867    1632.9427    5479.0541    2.1897259    137.02939   0.12997751 
   69000   -944.89624    44.997154   -899.89909    1611.6349   -7608.6397    2.1562229    136.00121   0.13184716 
   69100   -941.22878    45.352446   -895.87633    1624.3601    247.52615    2.1624592    139.62235   0.12416136 
   69200   -949.64445    47.925881   -901.71856    1716.5312    4363.0057    2.1886262    137.43028   0.12392963 
   69300   -947.63235    44.185405   -903.44694     1582.561    1355.7131    2.1820036    133.60207   0.11650813 
   69400   -941.76828     45.89379   -895.87448    1643.7491   -4947.8372    2.1526016    134.75717   0.13527262 
   69500   -946.33758    47.011023   -899.32656    1683.7644    529.82467    2.1752214    141.74714   0.12614885 
   69600   -948.27264    45.225776   -903.04687    1619.8233    8226.3198    2.2012512    140.91105   0.11965611 
   69700   -942.54231    49.874479   -892.66783     1786.323   -6845.5591     2.148733    146.22433   0.11800072 
   69800   -946.12198    48.671989   -897.44999    1743.2541   -6517.8443    2.1552749    134.33606   0.12724586 
   69900   -945.73525    46.615462   -899.11979    1669.5968    10791.407    2.2006308    137.35644    0.1325068 
   70000   -948.08896    44.702454   -903.38651    1601.0798    2620.1761    2.1861249    141.83962   0.12941077 
   70100    -949.3892    39.720226   -909.66898    1422.6344   -13245.354    2.1531477    144.33862   0.12662503 
   70200   -941.79089    39.365278   -902.42561    1409.9215    5663.2607    2.1810146    146.99797   0.13541672 
   70300   -943.01879    45.375496    -897.6433    1625.1857    14214.465     2.206038    139.60995    0.1441994 
[...]
  186800   -946.51378    47.429824   -899.08395    1698.7643   -363.65842    2.1748843    136.62521   0.13930299 
  186900    -946.5818    48.818465   -897.76333    1748.5004    4604.1462    2.1888637    135.56285   0.14404975 
  187000    -944.5645    46.481868   -898.08264     1664.812   -952.72263    2.1758859    136.35895   0.16041677 
  187100   -935.40077    45.095327   -890.30544    1615.1511   -2973.0955    2.1482293    135.57467   0.15726054 
  187200   -943.08985    51.595829   -891.49402    1847.9755    1353.0213    2.1723304    133.74081   0.15851169 
  187300   -940.63382    43.781888   -896.85193    1568.1085    8578.6754    2.1845734    138.47748   0.15396724 
  187400   -944.43003    45.121831    -899.3082    1616.1003   -6431.1921    2.1608596    134.15503   0.14246669 
  187500   -940.05379    45.063916   -894.98987     1614.026   -437.82478    2.1602692     141.3541   0.16239144 
  187600   -938.52604    49.077641    -889.4484    1757.7831    6646.9246    2.1779989     130.6204   0.16112116 
  187700   -945.29193    48.057219   -897.23471    1721.2353   -1246.3806    2.1724864    137.56479   0.14660257 
  187800   -941.03747    41.734337   -899.30313    1494.7726   -3022.4037    2.1619687    131.33505   0.16726658 
  187900   -938.77536    43.715796   -895.05956    1565.7413    6128.6637    2.1767784    133.19085    0.1623194 
  188000   -939.94686    50.238646   -889.70822    1799.3661    3423.2974    2.1685356    141.03049   0.15783437 
  188100    -942.6238     44.28674   -898.33706    1586.1904   -673.40871    2.1680455    131.37037   0.15589891 
  188200   -943.56508     44.79241   -898.77267    1604.3017   -1372.6435    2.1690939     144.8491   0.13286928 
  188300   -938.49408    45.965806   -892.52827    1646.3285     7284.571    2.1797922    139.84207   0.14430543 
  188400   -941.85369    48.883165   -892.97053    1750.8177    590.31981    2.1658819    126.80335   0.13471564 
  188500   -946.90559     46.80554   -900.10005    1676.4047   -8067.8468     2.155371    134.88975   0.14025797 
  188600   -941.17241        43.78   -897.39241    1568.0408    8435.7801    2.1860988    135.36517   0.13155537 
  188700   -942.79743     48.74224   -894.05519    1745.7703    9767.8949    2.1911387    141.30568   0.16260421 
  188800   -937.59661    50.175924   -887.42069    1797.1196   -12756.328    2.1216115    146.57757   0.15010401 
  188900   -946.24456    46.969917   -899.27464    1682.2921   -545.40611    2.1730754    143.19199   0.13157303 
  189000   -943.43758    45.805817   -897.63177    1640.5983    14359.796    2.2036021    136.07514   0.14439151 
  189100   -942.58292    44.118534   -898.46439    1580.1659   -157.05158     2.164781    148.35292    0.1369186 
  189200   -939.19694    50.356683   -888.84026    1803.5937   -7177.2654    2.1379965    141.58476   0.12504791 
  189300   -945.65942    48.920255   -896.73917    1752.1461    4543.8188    2.1858727    136.87241    0.1260362 
  189400   -947.58227    48.626403   -898.95587    1741.6214   -630.11285    2.1748544    132.49142   0.11919673 
  189500   -944.94348    47.328102   -897.61537     1695.121    -3142.563    2.1635531     137.8271   0.11518313 
  189600   -937.57622    48.498619    -889.0776    1737.0446    2038.2564    2.1612904    134.64698   0.14441847 
  189700   -944.18018    48.317107   -895.86307    1730.5436    1273.9186     2.174171    140.55746   0.14157012 
  189800   -945.40728    46.284543   -899.12274    1657.7445   -6323.9502    2.1594832    143.29699   0.13893525 
  189900   -949.44096    51.685183   -897.75577    1851.1758    -4341.501    2.1683616    141.12049   0.10881541 
  190000   -943.16558    51.061778    -892.1038    1828.8477    7457.3757    2.1816822    130.82494   0.14525354 
  190100   -941.09711    50.330635   -890.76647    1802.6608   -4023.4682    2.1517002     138.2271   0.12876539 
  190200   -945.83989    47.176008   -898.66388    1689.6735   -6872.3668    2.1546832    137.48223   0.12180633 
  190300   -946.88708    49.015645   -897.87144    1755.5626    7746.2487    2.1945141    131.18043   0.12510784 
  190400   -947.68074    48.400345    -899.2804    1733.5248    4917.5336     2.186936    137.42231   0.11203009 
  190500   -947.33464    41.203251   -906.13138     1475.751   -13257.405     2.144521    142.24708   0.12298057 
  190600   -949.97592    43.975214   -906.00071    1575.0327    -4240.662    2.1729593    142.00391   0.13652154 
  190700   -944.19255    45.584772   -898.60777    1632.6812    21803.094     2.223771    135.04095   0.15016814 
  190800   -943.64983    47.424031    -896.2258    1698.5568   -2978.4796    2.1590771     136.3081   0.15736556 
  190900    -943.5875    48.018175   -895.56933    1719.8369   -11003.824    2.1422117    147.42223   0.17809251 
  191000   -950.63791    46.467888   -904.17002    1664.3112    4028.5715    2.1946036    131.49163   0.15083358 
  191100   -942.85688    48.090508   -894.76638    1722.4276     3316.779    2.1772926     151.1344   0.16543597 
  191200   -943.20046    47.359476   -895.84098    1696.2447    -4853.168    2.1584777    140.25866   0.15985837 
  191300   -945.24478    42.507528   -902.73725    1522.4655   -5457.7717    2.1635224    133.38101   0.15508889 
  191400   -942.93309    48.000602   -894.93249    1719.2075     2480.383    2.1744441    147.11444   0.15229147 
  191500   -945.93554    50.809942    -895.1256    1819.8278    4299.1511    2.1831665     136.1816   0.12227334 
  191600   -946.77555    44.696743   -902.07881    1600.8752   -5265.5243    2.1633005    136.07334   0.11444857 
  191700   -945.29194    49.383883   -895.90806    1768.7516   -5158.9978    2.1597471    139.74507   0.11339056 
  191800    -941.8185    49.375302    -892.4432    1768.4442    7406.5512    2.1800043    139.31563   0.15058961 
  191900   -945.94066    44.813795   -901.12687    1605.0676    2304.3793    2.1802791    132.29938   0.13883244 
  192000   -944.03834    46.332107   -897.70623     1659.448   -6665.9665    2.1515445    135.56505   0.15687155 
  192100   -942.21876     49.55474   -892.66402    1774.8711   -631.05759    2.1610803    138.03841   0.13320899 
  192200   -946.44976    44.679451   -901.77031    1600.2559    12873.892    2.2086804    140.42105   0.12184154 
  192300   -944.84782     46.66831   -898.17951    1671.4896   -4612.3811    2.1610375    139.95113   0.12122006 
  192400   -944.89678    49.199506   -895.69727    1762.1479   -12712.378     2.139982    145.49928   0.12144238 
  192500   -945.13389    42.447758   -902.68613    1520.3248     10139.27    2.2006974    133.14267   0.13427475 
  192600   -944.24868    43.964618   -900.28406    1574.6532    9748.2991    2.2002388    131.28241   0.12993566 
  192700   -944.13871     48.47909   -895.65962    1736.3452   -11798.323    2.1420648    134.62594   0.11051995 
  192800   -944.13186    43.129453   -901.00241    1544.7406   -3658.6446     2.159868    133.33803   0.14730048 
  192900   -946.29188    44.803892   -901.48799    1604.7129    10274.051    2.2001357    134.97655   0.14671403 
  193000   -941.37314    47.487042    -893.8861    1700.8136    -1473.869    2.1635768    137.53458   0.14878133 
  193100   -945.46443    45.008025    -900.4564    1612.0242   -4602.4821    2.1620273    141.72136   0.14433569 
  193200    -947.7856    47.179756   -900.60585    1689.8078    1767.5137    2.1782264    131.62204   0.10218144 
  193300   -942.50962    50.052745   -892.45687    1792.7078    2064.2962    2.1691715    137.54829   0.13181343 
  193400   -946.21696    45.923451    -900.2935    1644.8115   -3419.7429    2.1681569    148.15048   0.12802194 
  193500   -946.25234    46.208329   -900.04401    1655.0148   -2183.8392    2.1706965    135.19536   0.12398159 
  193600   -944.21097    52.560024   -891.65095    1882.5094   -1400.3628     2.165481    136.70458      0.14366 
  193700   -947.18308     47.34061   -899.84247     1695.569    1442.9639     2.181211    135.06393   0.12658466 
  193800   -944.87359    44.841382    -900.0322    1606.0557   -2312.5897    2.1632934    146.27472   0.12837154 
  193900   -942.66965    49.986627   -892.68302    1790.3397   -3970.6251     2.156202    139.25615   0.14891241 
  194000   -945.84683    44.607271   -901.23956    1597.6707    6848.3527    2.1984666    135.46823   0.14119294 
  194100   -946.59914      46.2706   -900.32854    1657.2451   -2495.0657     2.170697    137.00447   0.13723056 
  194200   -946.14163    50.603952   -895.53767      1812.45   -11599.119    2.1427994    139.99464   0.14027955 
  194300   -947.51126     45.71714   -901.79412    1637.4222    3263.6705    2.1857719     129.6981   0.11295471 
  194400   -949.07301    47.225152   -901.84786    1691.4337    9920.1158    2.2043468     145.7815   0.13943324 
  194500   -943.44963    47.722415   -895.72722    1709.2438   -7318.8176    2.1481023    139.71691    0.1348765 
  194600   -945.96529      47.5512   -898.41409    1703.1115   -11247.844    2.1431405    139.77526   0.12225473 
  194700   -947.10695    44.776859   -902.33009    1603.7447    12394.939     2.206381    133.56485   0.14462923 
  194800   -941.36763    48.785648   -892.58198     1747.325    4258.2058    2.1736387    134.97962   0.13069165 
  194900    -943.0076    46.117458   -896.89014    1651.7601   -8788.0543    2.1440687    130.99865   0.13276826 
  195000   -947.40754     46.02978   -901.37776    1648.6198   -2657.5515    2.1720272     135.4419   0.13584051 
  195100   -943.45879    44.931625   -898.52716    1609.2879    9922.6722    2.1926415    136.89307   0.13537625 
  195200   -941.59843    48.334962   -893.26347    1731.1831   -2624.2724    2.1551075    143.19307   0.14158255 
  195300   -945.16156    44.424378   -900.73719    1591.1201   -4216.1893    2.1614507      140.128   0.12980951 
  195400   -944.10973    45.905676   -898.20405    1644.1748    3424.9955    2.1762808    133.04636   0.11794552 
  195500   -940.37033     49.40313    -890.9672     1769.441    1973.6604    2.1617318    141.16754   0.14476225 
  195600   -945.16362    44.722245   -900.44137    1601.7886    525.52954    2.1756846    137.51429   0.13172177 
  195700   -948.35399     49.30598   -899.04801    1765.9614   -2371.7021    2.1702922     138.0516   0.12936188 
  195800   -943.61775    51.467301   -892.15045    1843.3721   -2218.7263    2.1607313    132.83803   0.13501402 
  195900   -946.48688    45.857583    -900.6293    1642.4523    2755.9265    2.1837075    128.61083   0.12583431 
  196000   -946.85495    46.189719   -900.66523    1654.3482   -5078.4205    2.1666734    128.84683   0.14004675 
  196100   -940.69224    45.190112   -895.50213    1618.5459   -49.057138    2.1622896    145.28966   0.15178917 
  196200   -946.44577    46.393537   -900.05224    1661.6483    5521.4226    2.1876803    139.24408   0.13841275 
  196300   -945.84402    42.556369   -903.28765    1524.2148      3578.09    2.1835152    133.62847   0.12643243 
  196400   -945.80105    49.197054     -896.604      1762.06   -10228.764    2.1467865     134.1991   0.13343455 
  196500   -945.82777    48.777877   -897.04989    1747.0467   -1402.8265     2.168389    132.86513   0.12597561 
  196600   -950.95748    47.347094   -903.61039    1695.8012    11381.652    2.2172075    130.60302   0.14796418 
  196700   -942.65298    48.348454   -894.30453    1731.6663   -5526.2032    2.1551567    142.79456   0.13871784 
  196800   -943.73512    46.885053   -896.85007    1679.2526   -8195.4921    2.1453864     139.0018   0.13509134 
  196900   -951.29301      50.9021   -900.39091    1823.1286    4818.9376    2.1963736    137.83391   0.14213127 
  197000   -947.50163    45.393169   -902.10846    1625.8187     8900.596    2.2025508    134.59944   0.15218376 
  197100   -940.71732    48.054479   -892.66284    1721.1372   -13538.864    2.1317918     132.6323   0.14460963 
  197200   -946.13476    46.944027   -899.19073    1681.3648   -3481.1994    2.1667292    140.07915   0.13193474 
  197300    -947.7087    48.655683   -899.05301    1742.6701    9606.7427    2.1992709    132.56749    0.1329973 
  197400   -943.28578    52.529191   -890.75659    1881.4051   -2633.9274    2.1602939    133.19489   0.13103534 
  197500   -936.78564    39.011752   -897.77389    1397.2595   -1157.9096    2.1547357    139.71431   0.15233621 
  197600   -944.94008     45.16054   -899.77954    1617.4868    774.02768    2.1727565    142.76465   0.12394945 
  197700   -943.81296    50.013805   -893.79915    1791.3131    5646.1959    2.1787983    135.82602   0.12834506 
  197800   -943.83053    48.511929    -895.3186    1737.5214   -4312.8817    2.1589109     150.8257   0.15211751 
  197900   -945.19348    43.008082   -902.18539    1540.3935   -623.35023    2.1684949     137.8046   0.13397337 
  198000   -944.17793    47.534825    -896.6431    1702.5251    4122.4358     2.181485    128.26359   0.13808157 
  198100   -945.19093    49.659447   -895.53149    1778.6213    753.39789    2.1698245    136.41844   0.14043271 
  198200    -947.5953    42.597037   -904.99826    1525.6714   -1440.7449    2.1749477    136.24025   0.12114785 
  198300    -946.3743     47.25543   -899.11887    1692.5181   -2817.1103    2.1659447    135.01766   0.13360944 
  198400   -942.42465    46.997884   -895.42676    1683.2938    3492.4306    2.1759084       143.19   0.14288081 
  198500    -947.4436    43.835898   -903.60771    1570.0429    1715.6152    2.1811686    130.76001   0.12627788 
  198600   -944.66163    42.833592   -901.82803    1534.1439   -8320.6993    2.1505909    139.58913   0.13905106 
  198700   -944.88857    48.618936   -896.26963     1741.354    4452.2093    2.1814508    135.26118   0.12814673 
  198800   -948.64045    50.417705   -898.22274    1805.7793    8147.8696    2.1982178    142.82315   0.13667293 
  198900   -947.91584     42.16789   -905.74795    1510.3009   -10615.164     2.154312    141.17496   0.14015401 
  199000    -943.7094    45.934297    -897.7751    1645.1999    -8331.974    2.1472979    134.22917   0.14177359 
  199100   -942.51699    47.267543   -895.24944     1692.952    13597.755      2.19973    134.52421   0.13746808 
  199200   -946.50446    45.549187   -900.95527    1631.4067    1876.9317    2.1794254    133.12517    0.1278554 
  199300   -942.86348    46.720806   -896.14267    1673.3698   -9840.4068    2.1409271     136.1627    0.1377129 
  199400   -940.65365    47.659135   -892.99451    1706.9774   -26.780518     2.163198    148.05036    0.1634048 
  199500   -943.94587    45.097951   -898.84792    1615.2451    6871.3853    2.1860145    142.27268   0.15023015 
  199600    -948.6808    48.383636   -900.29716    1732.9264   -5447.9549    2.1650333    131.22138   0.12255332 
  199700   -937.99589    47.193508   -890.80238    1690.3003    -3828.075    2.1443966    140.21298   0.14766479 
  199800    -945.7359    46.819235   -898.91667    1676.8952    5840.8781    2.1887303    133.21281   0.13899285 
  199900   -945.55027    45.528728   -900.02154    1630.6739    993.61156    2.1802698    135.14002   0.13557165 
  200000   -943.49674    49.459531   -894.03721     1771.461    -8165.259     2.147798    130.48838   0.14345725 
  200100   -944.05527    50.002148   -894.05313    1790.8956   -2708.0225    2.1613011    134.63749   0.13465097 
  200200   -946.15757    45.538289   -900.61928    1631.0164    11813.045    2.2038721    133.36923   0.15130285 
  200300   -943.22464    46.758886   -896.46576    1674.7337    917.62437    2.1723306    144.24711   0.15389742 
  200400   -938.96066    42.696726   -896.26393    1529.2419    -13423.05    2.1243494    147.30229   0.15624646 
  200500   -948.69784    43.718981   -904.97886    1565.8553    7297.2542    2.1956861    141.62942   0.12858906 
  200600   -946.75884    49.579084   -897.17975     1775.743    15005.174    2.2121284    135.70162   0.12966074 
  200700   -940.84307    44.041213   -896.80186    1577.3965   -5991.6394    2.1458425    137.68483   0.13507939 
  200800   -947.62682    46.833826     -900.793    1677.4178    -11620.23    2.1501931    134.14033   0.12862483 
  200900   -949.03103    46.522724   -902.50831    1666.2752    7912.5485    2.1997892    136.93368   0.12289391 
  201000   -940.69128    46.926594   -893.76468    1680.7404    3227.2347    2.1688854    139.01135   0.14164073 
  201100   -948.37811    49.057058   -899.32105    1757.0459   -6025.8383     2.160654    138.45492   0.13862895 
  201200   -949.42345    47.662625   -901.76082    1707.1024   -964.21479    2.1766539    137.01887   0.13154781 
  201300   -942.52816    50.581608   -891.94655    1811.6498    1657.4505    2.1683774    136.32511   0.14004625 
  201400   -948.26678    50.306805   -897.95998    1801.8073   -712.93544    2.1728028    132.40264    0.1143014 
  201500   -947.37033    46.108245   -901.26208    1651.4301   -2746.8545    2.1683911    137.56846   0.11732306 
  201600   -942.49532    50.320231   -892.17509    1802.2882    176.96413    2.1632837    141.84414   0.13270827 
  201700   -945.57013    48.564795   -897.00533    1739.4148    4749.2211     2.181691    134.97227   0.12740051 
  201800   -945.99688    44.998637   -900.99824     1611.688   -2869.6007    2.1683648    138.28161   0.12525982 
  201900   -943.84309     49.27395   -894.56914    1764.8142   -7058.8178    2.1483587    138.07711    0.1314811 
  202000   -947.83807     53.84371   -893.99436    1928.4864    2648.3986    2.1760442    149.85429   0.13067613 
  202100   -945.87559    45.091755   -900.78384    1615.0231    10682.062    2.1973254    135.96979   0.13329877 
  202200   -941.74319    45.303019   -896.44017    1622.5899   -6333.9066     2.150284    142.95671   0.13531784 
  202300   -941.14187    45.806168    -895.3357    1640.6108   -7775.6029    2.1422778    128.86307   0.14295304 
  202400   -949.72237    46.969817   -902.75255    1682.2885     13876.94    2.2144111    136.09908   0.13428249 
  202500   -944.40666    48.795856    -895.6108    1747.6906    5951.1734    2.1840513    136.35667   0.13048278 
  202600   -941.88829    45.272665   -896.61562    1621.5027   -11317.722    2.1375861    145.79366   0.12603576 
  202700   -949.41393      46.9211   -902.49283    1680.5436   -3862.2963    2.1715949    144.06987   0.13110131 
  202800   -945.27007    45.076425   -900.19364    1614.4741    10709.149    2.2006544    144.36638   0.13615096 
  202900    -943.9984    49.583882   -894.41452    1775.9148   -3672.8131    2.1608504    136.77205   0.12968659 
  203000   -947.99113    46.582429    -901.4087    1668.4137   -7458.5044    2.1607995    137.82193   0.14227477 
  203100   -946.81971    47.365446   -899.45426    1696.4585    1220.4931    2.1811516    133.49298   0.13983584 
  203200   -941.25247    49.202883   -892.04959    1762.2688     845.3101    2.1667433    135.73738   0.15055625 
Loop time of 140.816 on 1 procs for 200000 steps with 217 atoms

Performance: 368.139 ns/day, 0.065 hours/ns, 1420.290 timesteps/s
100.0% CPU use with 1 MPI tasks x no OpenMP threads

MPI task timing breakdown:
Section |  min time  |  avg time  |  max time  |%varavg| %total
---------------------------------------------------------------
Pair    | 135.59     | 135.59     | 135.59     |   0.0 | 96.29
Neigh   | 2.0775     | 2.0775     | 2.0775     |   0.0 |  1.48
Comm    | 0.92975    | 0.92975    | 0.92975    |   0.0 |  0.66
Output  | 0.068909   | 0.068909   | 0.068909   |   0.0 |  0.05
Modify  | 1.8315     | 1.8315     | 1.8315     |   0.0 |  1.30
Other   |            | 0.3142     |            |       |  0.22

Nlocal:    217 ave 217 max 217 min
Histogram: 1 0 0 0 0 0 0 0 0 0
Nghost:    949 ave 949 max 949 min
Histogram: 1 0 0 0 0 0 0 0 0 0
Neighs:    4120 ave 4120 max 4120 min
Histogram: 1 0 0 0 0 0 0 0 0 0
FullNghs:  8240 ave 8240 max 8240 min
Histogram: 1 0 0 0 0 0 0 0 0 0

Total # of neighbors = 8240
Ave neighs/atom = 37.9724
Neighbor list builds = 3537
Dangerous builds = 39
Total wall time: 0:02:23
