
     Program PWSCF v.6.4.1 starts on 14Dec2020 at  2:39:59 

     This program is part of the open-source Quantum ESPRESSO suite
     for quantum simulation of materials; please cite
         "P. Giannozzi et al., J. Phys.:Condens. Matter 21 395502 (2009);
         "P. Giannozzi et al., J. Phys.:Condens. Matter 29 465901 (2017);
          URL http://www.quantum-espresso.org", 
     in publications or presentations arising from this work. More details at
     http://www.quantum-espresso.org/quote

     Parallel version (MPI), running on     1 processors

     MPI processes distributed on     1 nodes
     Waiting for input...
     Reading input from standard input
Warning: card &IONS ignored
Warning: card / ignored
Warning: card &CELL ignored
Warning: card / ignored

     Current dimensions of program PWSCF are:
     Max number of different atomic species (ntypx) = 10
     Max number of k-points (npk) =  40000
     Max angular momentum in pseudopotentials (lmaxx) =  3

     Subspace diagonalization in iterative solution of the eigenvalue problem:
     a serial algorithm will be used


     G-vector sticks info
     --------------------
     sticks:   dense  smooth     PW     G-vecs:    dense   smooth      PW
     Sum         877     877    277                19549    19549    3287



     bravais-lattice index     =            0
     lattice parameter (alat)  =       8.8817  a.u.
     unit-cell volume          =     700.6323 (a.u.)^3
     number of atoms/cell      =           10
     number of atomic types    =            4
     number of electrons       =        32.00
     number of Kohn-Sham states=           16
     kinetic-energy cutoff     =      35.0000  Ry
     charge density cutoff     =     140.0000  Ry
     convergence threshold     =      1.0E-07
     mixing beta               =       0.5000
     number of iterations used =            8  plain     mixing
     Exchange-correlation      =  SLA  PW   PBX  PBC ( 1  4  3  4 0 0)

     celldm(1)=   8.881713  celldm(2)=   0.000000  celldm(3)=   0.000000
     celldm(4)=   0.000000  celldm(5)=   0.000000  celldm(6)=   0.000000

     crystal axes: (cart. coord. in units of alat)
               a(1) = (   1.000000   0.000000   0.000000 )  
               a(2) = (   0.000000   1.000000   0.000000 )  
               a(3) = (   0.000000   0.000000   1.000000 )  

     reciprocal axes: (cart. coord. in units 2 pi/alat)
               b(1) = (  1.000000  0.000000  0.000000 )  
               b(2) = (  0.000000  1.000000  0.000000 )  
               b(3) = (  0.000000  0.000000  1.000000 )  


     PseudoPot. # 1 for B  read from file:
     /home/modeler/qe_pseudo/b_pbe_v1.4.uspp.F.UPF
     MD5 check sum: cc6de2960df11db49a60e589f9ebb39b
     Pseudo is Ultrasoft + core correction, Zval =  3.0
     Generated by new atomic code, or converted to UPF format
     Using radial grid of  781 points,  4 beta functions with: 
                l(1) =   0
                l(2) =   0
                l(3) =   1
                l(4) =   1
     Q(r) pseudized with  8 coefficients,  rinner =    1.100   1.100   1.100


     PseudoPot. # 2 for H  read from file:
     /home/modeler/qe_pseudo/H.pbe-rrkjus_psl.1.0.0.UPF
     MD5 check sum: f52b6d4d1c606e5624b1dc7b2218f220
     Pseudo is Ultrasoft, Zval =  1.0
     Generated using "atomic" code by A. Dal Corso v.5.1
     Using radial grid of  929 points,  2 beta functions with: 
                l(1) =   0
                l(2) =   0
     Q(r) pseudized with 0 coefficients 


     PseudoPot. # 3 for N  read from file:
     /home/modeler/qe_pseudo/N.pbe-n-radius_5.UPF
     MD5 check sum: 16739722b17309cd8fe442a2ace49922
     Pseudo is Ultrasoft + core correction, Zval =  5.0
     Generated using "atomic" code by A. Dal Corso v.5.1
     Using radial grid of 1085 points,  4 beta functions with: 
                l(1) =   0
                l(2) =   0
                l(3) =   1
                l(4) =   1
     Q(r) pseudized with 0 coefficients 


     PseudoPot. # 4 for Na read from file:
     /home/modeler/qe_pseudo/na_pbe_v1.5.uspp.F.UPF
     MD5 check sum: 44600605ef58000f06b90626533354dc
     Pseudo is Ultrasoft, Zval =  9.0
     Generated by new atomic code, or converted to UPF format
     Using radial grid of  819 points,  5 beta functions with: 
                l(1) =   0
                l(2) =   0
                l(3) =   1
                l(4) =   1
                l(5) =   2
     Q(r) pseudized with  8 coefficients,  rinner =    1.250   1.250   1.250
                                                       1.250   1.250

     atomic species   valence    mass     pseudopotential
        B              3.00    10.81000     B ( 1.00)
        H              1.00     1.00800     H ( 1.00)
        N              5.00    14.00700     N ( 1.00)
        Na             9.00    22.98977     Na( 1.00)

     No symmetry found



   Cartesian axes

     site n.     atom                  positions (alat units)
         1           Na  tau(   1) = (   0.5000000   0.0000000   0.5000000  )
         2           Na  tau(   2) = (   0.0000000   0.5000000   0.5000000  )
         3           N   tau(   3) = (   0.5000000   0.5000000   0.5000000  )
         4           H   tau(   4) = (   0.6965851   0.5000000   0.4304957  )
         5           H   tau(   5) = (   0.4017064   0.6702489   0.4304957  )
         6           B   tau(   6) = (   0.0000000   0.0000000   0.0000000  )
         7           H   tau(   7) = (   0.2347000   0.0000000  -0.0829787  )
         8           H   tau(   8) = (  -0.1173489   0.2032553  -0.0829787  )
         9           H   tau(   9) = (  -0.1173489  -0.2032553  -0.0829787  )
        10           H   tau(  10) = (   0.0000000   0.0000000   0.2489362  )

     number of k points=     8
                       cart. coord. in units 2pi/alat
        k(    1) = (   0.0000000   0.0000000   0.0000000), wk =   0.2500000
        k(    2) = (   0.0000000   0.0000000  -0.5000000), wk =   0.2500000
        k(    3) = (   0.0000000  -0.5000000  -0.5000000), wk =   0.2500000
        k(    4) = (  -0.5000000  -0.5000000  -0.5000000), wk =   0.2500000
        k(    5) = (  -0.5000000   0.0000000   0.0000000), wk =   0.2500000
        k(    6) = (   0.0000000  -0.5000000   0.0000000), wk =   0.2500000
        k(    7) = (  -0.5000000   0.0000000   0.5000000), wk =   0.2500000
        k(    8) = (  -0.5000000   0.5000000   0.0000000), wk =   0.2500000

     Dense  grid:    19549 G-vectors     FFT dimensions: (  36,  36,  36)

     Estimated max dynamical RAM per process >      64.50 MB

     Check: negative core charge=   -0.000007

     Initial potential from superposition of free atoms

     starting charge   31.98707, renormalised to   32.00000
     Starting wfcs are   24 randomized atomic wfcs

     total cpu time spent up to now is        1.6 secs

     Self-consistent Calculation

     iteration #  1     ecut=    35.00 Ry     beta= 0.50
     Davidson diagonalization with overlap
     ethr =  1.00E-02,  avg # of iterations =  2.0

     total cpu time spent up to now is        2.7 secs

     total energy              =    -223.93062938 Ry
     Harris-Foulkes estimate   =    -224.86173261 Ry
     estimated scf accuracy    <       1.63182427 Ry

     iteration #  2     ecut=    35.00 Ry     beta= 0.50
     Davidson diagonalization with overlap
     ethr =  5.10E-03,  avg # of iterations =  2.6

     total cpu time spent up to now is        3.8 secs

     total energy              =    -224.25292919 Ry
     Harris-Foulkes estimate   =    -224.36098119 Ry
     estimated scf accuracy    <       0.23755613 Ry

     iteration #  3     ecut=    35.00 Ry     beta= 0.50
     Davidson diagonalization with overlap
     ethr =  7.42E-04,  avg # of iterations =  2.9

     total cpu time spent up to now is        4.9 secs

     total energy              =    -224.29203531 Ry
     Harris-Foulkes estimate   =    -224.30410487 Ry
     estimated scf accuracy    <       0.03128255 Ry

     iteration #  4     ecut=    35.00 Ry     beta= 0.50
     Davidson diagonalization with overlap
     ethr =  9.78E-05,  avg # of iterations =  2.1

     total cpu time spent up to now is        5.9 secs

     total energy              =    -224.29558502 Ry
     Harris-Foulkes estimate   =    -224.29601553 Ry
     estimated scf accuracy    <       0.00223995 Ry

     iteration #  5     ecut=    35.00 Ry     beta= 0.50
     Davidson diagonalization with overlap
     ethr =  7.00E-06,  avg # of iterations =  2.6

     total cpu time spent up to now is        7.0 secs

     total energy              =    -224.29575810 Ry
     Harris-Foulkes estimate   =    -224.29579225 Ry
     estimated scf accuracy    <       0.00013102 Ry

     iteration #  6     ecut=    35.00 Ry     beta= 0.50
     Davidson diagonalization with overlap
     ethr =  4.09E-07,  avg # of iterations =  2.9

     total cpu time spent up to now is        8.1 secs

     total energy              =    -224.29578905 Ry
     Harris-Foulkes estimate   =    -224.29578634 Ry
     estimated scf accuracy    <       0.00001009 Ry

     iteration #  7     ecut=    35.00 Ry     beta= 0.50
     Davidson diagonalization with overlap
     ethr =  3.15E-08,  avg # of iterations =  2.0

     total cpu time spent up to now is        9.1 secs

     total energy              =    -224.29579027 Ry
     Harris-Foulkes estimate   =    -224.29579040 Ry
     estimated scf accuracy    <       0.00000223 Ry

     iteration #  8     ecut=    35.00 Ry     beta= 0.50
     Davidson diagonalization with overlap
     ethr =  6.96E-09,  avg # of iterations =  2.5

     total cpu time spent up to now is       10.3 secs

     End of self-consistent calculation

          k = 0.0000 0.0000 0.0000 (  2469 PWs)   bands (ev):

   -51.3470 -50.6155 -23.4742 -23.2519 -23.1810 -22.6547 -22.5381 -22.4826
   -14.8514  -7.5013  -6.3278  -2.4147  -1.9254  -1.7173  -1.1174   0.5773

          k = 0.0000 0.0000-0.5000 (  2416 PWs)   bands (ev):

   -51.3470 -50.6154 -23.4739 -23.2515 -23.1820 -22.6543 -22.5382 -22.4832
   -14.8408  -7.3216  -6.3039  -3.1506  -1.7305  -1.6743  -1.4005   0.3027

          k = 0.0000-0.5000-0.5000 (  2464 PWs)   bands (ev):

   -51.3470 -50.6155 -23.4730 -23.2521 -23.1818 -22.6677 -22.5430 -22.4886
   -14.7396  -7.1880  -6.4094  -3.1316  -2.5344  -1.6054  -1.3141   0.4908

          k =-0.5000-0.5000-0.5000 (  2440 PWs)   bands (ev):

   -51.3469 -50.6154 -23.5004 -23.2529 -23.1833 -22.6618 -22.5414 -22.4868
   -14.5967  -7.0783  -6.6769  -2.8734  -2.3095  -2.1570  -1.7936   0.1616

          k =-0.5000 0.0000 0.0000 (  2416 PWs)   bands (ev):

   -51.3469 -50.6154 -23.4943 -23.2495 -23.1814 -22.6569 -22.5393 -22.4827
   -14.7016  -7.5456  -6.4022  -2.4158  -2.2591  -1.7193  -1.4421   0.4496

          k = 0.0000-0.5000 0.0000 (  2416 PWs)   bands (ev):

   -51.3469 -50.6154 -23.4727 -23.2520 -23.1803 -22.6675 -22.5425 -22.4873
   -14.7469  -7.4400  -6.3375  -2.4489  -2.2695  -1.7019  -1.5509   0.3893

          k =-0.5000 0.0000 0.5000 (  2464 PWs)   bands (ev):

   -51.3470 -50.6155 -23.4944 -23.2498 -23.1830 -22.6571 -22.5399 -22.4839
   -14.6949  -7.2085  -6.6249  -2.9272  -2.4936  -1.6251  -1.3276   0.5047

          k =-0.5000 0.5000 0.0000 (  2464 PWs)   bands (ev):

   -51.3470 -50.6155 -23.5005 -23.2531 -23.1821 -22.6619 -22.5412 -22.4859
   -14.6037  -7.2461  -6.7091  -2.6393  -2.2505  -2.1962  -1.3550   0.4646

     highest occupied level (ev):     0.5773

!    total energy              =    -224.29579077 Ry
     Harris-Foulkes estimate   =    -224.29579071 Ry
     estimated scf accuracy    <       0.00000008 Ry

     The total energy is the sum of the following terms:

     one-electron contribution =    -196.66277354 Ry
     hartree contribution      =     104.52458903 Ry
     xc contribution           =     -41.81672396 Ry
     ewald contribution        =     -90.34088229 Ry

     convergence has been achieved in   8 iterations

     Forces acting on atoms (cartesian axes, Ry/au):

     atom    1 type  4   force =     0.01905923    0.08106083    0.02074776
     atom    2 type  4   force =     0.12996627   -0.01306588    0.04042339
     atom    3 type  3   force =    -0.03938869   -0.07398583    0.06690890
     atom    4 type  2   force =    -0.08458885    0.01557978   -0.07430949
     atom    5 type  2   force =    -0.02524901   -0.00581256   -0.06259089
     atom    6 type  1   force =     0.00554733   -0.00327841   -0.02804297
     atom    7 type  2   force =     0.04629592   -0.00020287   -0.00802714
     atom    8 type  2   force =    -0.02552009    0.04137177   -0.01105062
     atom    9 type  2   force =    -0.02612554   -0.04110066   -0.01164982
     atom   10 type  2   force =     0.00000341   -0.00056618    0.06759088

     Total force =     0.260132     Total SCF correction =     0.000562


     Computing stress (Cartesian axis) and pressure

          total   stress  (Ry/bohr**3)                   (kbar)     P=   81.70
   0.00094262   0.00015346   0.00009103        138.66     22.58     13.39
   0.00015346   0.00066491   0.00000974         22.58     97.81      1.43
   0.00009103   0.00000974   0.00005863         13.39      1.43      8.62


     init_run     :      1.22s CPU      1.26s WALL (       1 calls)
     electrons    :      8.57s CPU      8.63s WALL (       1 calls)
     forces       :      0.29s CPU      0.29s WALL (       1 calls)
     stress       :      0.68s CPU      0.68s WALL (       1 calls)

     Called by init_run:
     wfcinit      :      0.48s CPU      0.48s WALL (       1 calls)
     potinit      :      0.04s CPU      0.04s WALL (       1 calls)
     hinit0       :      0.65s CPU      0.65s WALL (       1 calls)

     Called by electrons:
     c_bands      :      6.61s CPU      6.64s WALL (       8 calls)
     sum_band     :      1.41s CPU      1.42s WALL (       8 calls)
     v_of_rho     :      0.22s CPU      0.23s WALL (       9 calls)
     newd         :      0.38s CPU      0.41s WALL (       9 calls)
     mix_rho      :      0.02s CPU      0.02s WALL (       8 calls)

     Called by c_bands:
     init_us_2    :      0.20s CPU      0.20s WALL (     152 calls)
     cegterg      :      6.27s CPU      6.29s WALL (      64 calls)

     Called by sum_band:
     sum_band:bec :      0.00s CPU      0.00s WALL (      64 calls)
     addusdens    :      0.35s CPU      0.36s WALL (       8 calls)

     Called by *egterg:
     h_psi        :      4.78s CPU      4.80s WALL (     229 calls)
     s_psi        :      0.60s CPU      0.60s WALL (     229 calls)
     g_psi        :      0.03s CPU      0.03s WALL (     157 calls)
     cdiaghg      :      0.11s CPU      0.12s WALL (     221 calls)

     Called by h_psi:
     h_psi:pot    :      4.77s CPU      4.78s WALL (     229 calls)
     h_psi:calbec :      0.67s CPU      0.67s WALL (     229 calls)
     vloc_psi     :      3.50s CPU      3.51s WALL (     229 calls)
     add_vuspsi   :      0.60s CPU      0.60s WALL (     229 calls)

     General routines
     calbec       :      1.06s CPU      1.06s WALL (     333 calls)
     fft          :      0.14s CPU      0.14s WALL (     124 calls)
     ffts         :      0.01s CPU      0.01s WALL (       8 calls)
     fftw         :      3.66s CPU      3.67s WALL (    6474 calls)

     Parallel routines

     PWSCF        :     11.13s CPU     11.22s WALL


   This run was terminated on:   2:40:10  14Dec2020            

=------------------------------------------------------------------------------=
   JOB DONE.
=------------------------------------------------------------------------------=
