LAMMPS (3 Mar 2020)
Reading data file ...
  orthogonal box = (0 0 0) to (12.27 12.27 12.27)
  1 by 1 by 1 MPI processor grid
  reading atoms ...
  108 atoms
  read_data CPU = 0.000868192 secs
Reading potential file /usr/share/lammps-stable/potentials/Ag_u3.eam with DATE: 2007-06-11
Neighbor list info ...
  update every 1 steps, delay 10 steps, check yes
  max neighbors/atom: 2000, page size: 100000
  master list distance cutoff = 7.55
  ghost atom cutoff = 7.55
  binsize = 3.775, bins = 4 4 4
  2 neighbor lists, perpetual/occasional/extra = 1 1 0
  (1) pair eam, perpetual
      attributes: half, newton on
      pair build: half/bin/atomonly/newton
      stencil: half/bin/3d/newton
      bin: standard
  (2) compute rdf, occasional, copy from (1)
      attributes: half, newton on
      pair build: copy
      stencil: none
      bin: none
Setting up Verlet run ...
  Unit style    : metal
  Current step  : 0
  Time step     : 0.005
Per MPI rank memory allocation (min/avg/max) = 3.723 | 3.723 | 3.723 Mbytes
Step PotEng KinEng TotEng Temp Press Density c_msdall[4] 
       0       -307.8    37.343256   -270.45674         2700    21592.176    10.472245            0 
     100   -283.90366    27.279851   -256.62381    1972.3936    97701.745    10.472245   0.13676616 
     200   -274.43489    39.032119   -235.40277    2822.1085    132388.24    10.472245   0.18733543 
     300   -262.35061    38.999287   -223.35132    2819.7347    166359.01    10.472245   0.33370588 
     400   -269.81663    38.514472   -231.30216    2784.6815    146033.96    10.472245   0.25450365 
     500   -274.19559     38.32496   -235.87063    2770.9794    132020.32    10.472245    0.2772216 
     600   -271.83708    43.053061   -228.78401    3112.8315     141799.4    10.472245   0.22538697 
     700   -272.57754    35.700733   -236.87681    2581.2419    138803.48    10.472245   0.19882055 
     800    -270.8176      34.6288    -236.1888    2503.7389    138141.74    10.472245   0.22750794 
     900   -270.49083    38.666782   -231.82405    2795.6939    142538.85    10.472245    0.2527265 
    1000   -270.18322    44.660327    -225.5229    3229.0404    146172.16    10.472245   0.20777883 
    1100   -268.18445    42.302165   -225.88229    3058.5401    152742.14    10.472245   0.24598522 
    1200   -271.84566     37.68495   -234.16071    2724.7052    140090.73    10.472245   0.22713751 
    1300   -267.81612    36.854041   -230.96208    2664.6287    149635.56    10.472245    0.3159223 
    1400   -261.53093    38.851266   -222.67967    2809.0325    172064.79    10.472245   0.47711763 
    1500   -269.67637     38.47225   -231.20412    2781.6288    143198.22    10.472245     0.395464 
    1600   -273.26064    29.721147   -243.53949    2148.9047    131440.41    10.472245   0.19004701 
    1700    -274.2561     32.43639   -241.81971    2345.2228    128052.91    10.472245   0.22485999 
    1800   -270.91895    40.644573   -230.27438    2938.6925    146758.96    10.472245   0.21254874 
    1900   -264.07626    40.251105   -223.82515    2910.2439    163714.51    10.472245   0.27996232 
    2000   -270.57765    37.570959   -233.00669    2716.4634    144970.55    10.472245   0.22649757 
    2100   -267.52628    34.341075   -233.18521    2482.9357    150142.97    10.472245   0.28037217 
    2200   -262.24794    36.792434    -225.4555    2660.1744     169248.5    10.472245   0.37469525 
    2300   -257.81856     41.97125   -215.84731    3034.6142    183088.84    10.472245   0.58777189 
    2400   -254.89029    33.198641   -221.69165    2400.3352    187708.85    10.472245    1.1619438 
    2500   -262.05247    38.670008   -223.38246    2795.9271    167204.31    10.472245    2.6438606 
    2600   -253.91388    33.812609   -220.10127    2444.7264    188679.91    10.472245    4.2094997 
    2700   -259.38467    39.221113   -220.16356    2835.7732    177789.41    10.472245    4.7035348 
    2800   -256.21205     35.67949   -220.53256    2579.7061    188347.03    10.472245    6.0538592 
    2900   -255.22975    43.686774   -211.54297    3158.6504    196462.68    10.472245    6.5146079 
    3000   -254.94398    34.850542   -220.09344    2519.7713    185084.89    10.472245    7.7201932 
    3100   -261.18212    40.700054   -220.48207    2942.7039    177645.81    10.472245    9.9767771 
    3200   -260.39617     36.26086   -224.13531    2621.7404     172796.3    10.472245    11.455922 
    3300   -255.33393    40.199979   -215.13395    2906.5474    191645.97    10.472245    12.489666 
    3400   -253.83648    31.247797   -222.58868    2259.2848    185274.08    10.472245     14.40664 
    3500   -262.67982    40.275073   -222.40475    2911.9768     165680.2    10.472245    14.679177 
    3600   -252.26071    37.578204    -214.6825    2716.9873    199817.44    10.472245    16.367576 
    3700   -253.23423    41.325702   -211.90853    2987.9397    196204.73    10.472245    17.186987 
    3800   -253.03154    34.735042    -218.2965    2511.4204    198054.13    10.472245    17.955533 
    3900   -256.49063    35.539856   -220.95078    2569.6102    185500.62    10.472245     19.22284 
    4000   -249.21507    39.383741   -209.83133    2847.5316    207428.53    10.472245    19.596717 
    4100   -259.96248    39.151984   -220.81049    2830.7751    174442.36    10.472245    22.063612 
    4200   -257.89686    39.431713   -218.46515    2851.0001    184864.85    10.472245    23.716489 
    4300   -254.75649    44.776177   -209.98031    3237.4166    197646.63    10.472245    25.001107 
    4400   -257.11527     35.59243   -221.52284    2573.4114    181918.69    10.472245    26.845082 
    4500   -254.93847    34.278326   -220.66015    2478.3988    193233.17    10.472245    27.737675 
    4600   -252.73024    40.649627   -212.08061    2939.0579    201411.25    10.472245    29.696071 
    4700   -260.45139    38.595723   -221.85566    2790.5561    176041.57    10.472245    29.740952 
    4800   -257.94382    37.271553   -220.67227    2694.8157    180636.46    10.472245    30.863319 
    4900   -252.14328    39.602752   -212.54053    2863.3666    203424.33    10.472245    33.489198 
    5000   -257.60841    34.434376   -223.17403    2489.6816    176810.12    10.472245    34.132946 
    5100   -254.64905    34.533166   -220.11588    2496.8243    189976.65    10.472245    34.648492 
    5200   -251.44416     38.68554   -212.75862    2797.0501    203897.88    10.472245    36.669752 
    5300    -254.3854    37.366637   -217.01876    2701.6905    194885.86    10.472245    37.550628 
    5400   -255.73671    36.789194   -218.94752    2659.9401    189533.96    10.472245    38.440592 
    5500   -260.27065    34.755912   -225.51474    2512.9293     174406.6    10.472245     39.74334 
    5600   -256.25983    39.630343   -216.62949    2865.3614    186217.15    10.472245    39.267188 
    5700   -257.64183    38.267138   -219.37469    2766.7987    183130.88    10.472245    42.960568 
    5800   -255.69436    32.078835   -223.61552    2319.3707    188149.12    10.472245    42.640661 
    5900   -252.20671    39.444721   -212.76199    2851.9405    204569.76    10.472245    43.957573 
    6000   -258.98982    36.567749   -222.42207    2643.9292    179871.48    10.472245     46.30702 
    6100   -258.48796     37.89511   -220.59285    2739.9003    179959.36    10.472245    48.270042 
    6200    -249.3095    38.899376   -210.41012    2812.5109    208152.87    10.472245    51.784085 
    6300   -260.24654    40.236381   -220.01016    2909.1793     175104.6    10.472245    52.755418 
    6400   -255.67812     34.88971   -220.78841    2522.6032    186294.95    10.472245    54.621055 
    6500   -251.24505    39.650498   -211.59455    2866.8187    204582.33    10.472245    54.703492 
    6600   -251.31139    33.637739   -217.67365     2432.083     201450.7    10.472245    57.883148 
    6700   -255.52505    36.666149    -218.8589    2651.0437    189435.62    10.472245    60.346278 
    6800   -255.85221    41.378322   -214.47389    2991.7442    191660.13    10.472245    61.508924 
    6900   -258.85191    36.241742   -222.61017    2620.3581    178761.85    10.472245    62.378806 
    7000   -253.88004    35.241854   -218.63819     2548.064    191715.69    10.472245      64.2129 
    7100   -252.95245    38.938634   -214.01382    2815.3494    197173.83    10.472245    65.624039 
    7200   -254.69205    35.400264   -219.29178    2559.5174       189154    10.472245    68.317674 
    7300    -256.5481    34.619861   -221.92824    2503.0925    184945.95    10.472245    70.338567 
    7400     -257.308    39.700587   -217.60741    2870.4403    188372.92    10.472245    71.230709 
    7500   -252.26462    36.747387   -215.51723    2656.9174    197188.35    10.472245    72.925441 
    7600   -252.69297    29.473367    -223.2196    2130.9896    194688.73    10.472245    74.142645 
    7700   -254.41201    36.394321   -218.01769    2631.3899    189106.08    10.472245    75.698014 
    7800   -259.19208     36.19176   -223.00032    2616.7443    176532.88    10.472245    78.457812 
    7900   -259.02482    36.469093   -222.55573    2636.7961     180248.1    10.472245    77.936501 
    8000   -257.34282    38.166843   -219.17598    2759.5471    186057.41    10.472245    79.529139 
    8100   -255.81787    39.373688   -216.44419    2846.8047    194116.28    10.472245    80.262895 
    8200   -255.64467    39.839848   -215.80482    2880.5091    192496.48    10.472245    79.109984 
    8300   -261.85596    37.497515   -224.35844    2711.1533    168970.28    10.472245    79.300397 
    8400   -256.54881    40.213565   -216.33525    2907.5297    187591.06    10.472245    80.471377 
    8500   -257.93995    35.759698   -222.18025    2585.5052    182822.74    10.472245    83.484892 
    8600   -259.34113    37.192114   -222.14902    2689.0721    175529.05    10.472245    86.354157 
    8700   -257.29934     41.95276   -215.34658    3033.2773     185983.1    10.472245    85.307895 
    8800   -259.97141    33.218869   -226.75254    2401.7977    174857.41    10.472245    86.152011 
    8900   -260.52397    37.981779   -222.54219    2746.1666    176630.13    10.472245    86.478929 
    9000   -253.94623    37.039075   -216.90716    2678.0071    191033.27    10.472245    87.149114 
    9100    -255.6293    32.851802    -222.7775    2375.2579    187393.34    10.472245    91.952915 
    9200   -261.80123    37.975469   -223.82576    2745.7104    175825.93    10.472245    92.203519 
    9300   -253.89393    40.316721   -213.57721    2914.9881    201179.33    10.472245    95.414939 
    9400   -255.91834    38.529834    -217.3885    2785.7922    186512.37    10.472245    97.600717 
    9500   -258.85051    41.020948   -217.82956    2965.9053    182936.26    10.472245    100.52147 
    9600   -252.64458    40.444297   -212.20029    2924.2121    203449.33    10.472245    98.181648 
    9700   -255.78932    34.137232   -221.65209    2468.1974    189745.64    10.472245    100.08319 
    9800   -259.33111    41.372182   -217.95893    2991.3002    183799.62    10.472245    103.59906 
    9900   -254.27701    44.039776   -210.23724    3184.1732    198283.66    10.472245    104.39763 
   10000   -255.40226    35.650283   -219.75197    2577.5943    186515.47    10.472245     106.5429 
   10100   -255.44869    37.350769   -218.09792    2700.5432    188206.14    10.472245    107.62939 
   10200   -250.99378    42.159988   -208.83379    3048.2604    206347.66    10.472245    107.28329 
   10300   -256.76858    37.516406   -219.25217    2712.5191    186232.94    10.472245    111.40408 
   10400   -258.26087    36.608945   -221.65192    2646.9077    179986.42    10.472245    110.76361 
   10500   -254.64304    41.183772   -213.45927    2977.6778    195386.12    10.472245    112.13743 
   10600   -259.09419    35.828195   -223.26599    2590.4577    178507.23    10.472245    113.94599 
   10700   -255.71554     34.86056   -220.85498    2520.4956    187096.11    10.472245    115.74462 
   10800   -254.65107    39.136106   -215.51497     2829.627     194100.8    10.472245    117.21211 
   10900   -256.35492    30.936569   -225.41835    2236.7823    182652.98    10.472245     116.7002 
   11000   -259.05764    40.707454   -218.35018     2943.239    178909.47    10.472245     116.8743 
   11100   -256.96242    33.069026   -223.89339    2390.9638    178748.67    10.472245    117.79875 
   11200   -260.82919    36.613341   -224.21585    2647.2256    174741.91    10.472245    116.89276 
   11300   -255.00618    36.621827   -218.38435    2647.8391    190206.64    10.472245    117.77203 
   11400   -257.21945    34.994214   -222.22524    2530.1591    177512.43    10.472245    119.72668 
   11500   -260.43178    34.218735   -226.21304    2474.0902    174637.54    10.472245    121.61187 
   11600   -254.79383    36.442461   -218.35137    2634.8706    188307.53    10.472245    124.64577 
   11700    -256.6934    37.050993   -219.64241    2678.8688    185127.82    10.472245    124.68803 
   11800   -252.92779    39.176348   -213.75145    2832.5366       198759    10.472245    130.09173 
   11900   -250.85101    35.235654   -215.61536    2547.6157     200100.9    10.472245    130.12094 
   12000   -259.53722    37.818418    -221.7188    2734.3553    179233.65    10.472245    132.20151 
   12100   -254.07221    40.367731   -213.70448    2918.6762     192129.1    10.472245    134.66752 
   12200   -257.08273    37.942448   -219.14029    2743.3229       183615    10.472245    136.52956 
   12300   -258.84572    36.661064   -222.18466     2650.676       178479    10.472245    136.78562 
   12400   -250.28201    37.946195   -212.33581    2743.5939    206981.91    10.472245    137.79274 
   12500   -256.49045    38.291094   -218.19936    2768.5308    186442.91    10.472245    137.69407 
   12600   -260.19287    40.829833   -219.36304    2952.0872    178405.66    10.472245    138.28628 
   12700   -255.70575    39.210944   -216.49481     2835.038    190606.08    10.472245    144.79352 
   12800   -259.02154    34.325709   -224.69583    2481.8247    173270.49    10.472245    146.18119 
   12900   -256.66259    38.756225   -217.90636    2802.1608    186262.91    10.472245    144.95389 
   13000   -256.91356    36.870817   -220.04274    2665.8416    182208.35    10.472245    147.03275 
   13100   -262.98914    33.082999   -229.90614     2391.974    165451.37    10.472245    148.60165 
   13200   -262.19078    38.669167   -223.52161    2795.8663    171237.76    10.472245    148.98593 
   13300   -260.89807    39.649052   -221.24902    2866.7142    175312.62    10.472245    149.11505 
   13400   -258.11538    30.689561   -227.42582    2218.9232    178353.68    10.472245    149.86442 
   13500   -258.85037    41.513224   -217.33714    3001.4979    178909.66    10.472245    151.61755 
   13600   -253.22343    34.881771   -218.34165    2522.0292     195768.8    10.472245    151.68535 
   13700   -259.46047    32.437058   -227.02341     2345.271    176503.26    10.472245    150.64206 
   13800   -251.75219    36.749449   -215.00274    2657.0664    201087.54    10.472245    149.85786 
   13900   -253.59424     32.80705   -220.78719    2372.0223    194965.03    10.472245    150.66162 
   14000   -255.24334    35.409115   -219.83423    2560.1573    191855.63    10.472245    153.11123 
   14100   -251.89119    38.038528   -213.85266    2750.2697    199790.68    10.472245    154.77476 
   14200    -254.0262    33.686044   -220.34016    2435.5755    193398.95    10.472245    152.40838 
   14300   -255.87217    41.726461   -214.14571    3016.9154    193821.71    10.472245    153.78124 
   14400   -249.86729    39.140837   -210.72645    2829.9691    209016.06    10.472245    154.99636 
   14500   -257.79145      38.1225   -219.66895    2756.3411    181985.75    10.472245    155.72418 
   14600   -254.24485    32.764723   -221.48013    2368.9619    190594.24    10.472245    154.72923 
   14700   -255.96839    43.834419   -212.13397    3169.3254    189564.64    10.472245    156.07667 
   14800   -256.85205    36.456726   -220.39532    2635.9019    186515.22    10.472245    158.83151 
   14900   -260.44975    38.588767   -221.86098    2790.0532     178349.8    10.472245    158.38139 
   15000   -260.04293    39.103694   -220.93924    2827.2836     173678.8    10.472245    157.12693 
   15100   -251.54066    38.071859    -213.4688    2752.6796    204867.22    10.472245    158.98182 
   15200   -255.98301    36.978293   -219.00472    2673.6124    188921.29    10.472245    160.66022 
   15300   -258.76297    35.826955   -222.93601    2590.3681    179770.49    10.472245    163.50434 
   15400    -255.2475    39.476384   -215.77111    2854.2299    193283.34    10.472245    167.00524 
   15500   -254.06337    42.142817   -211.92055    3047.0189    196374.03    10.472245    168.60835 
   15600   -255.10358    33.324986   -221.77859    2409.4702    190525.96    10.472245    173.57447 
   15700    -255.7298    39.407903   -216.32189    2849.2786    188106.41    10.472245    172.87097 
   15800   -257.68825    39.343378   -218.34488    2844.6132    182661.53    10.472245    172.94493 
   15900   -261.99176    38.099108   -223.89265    2754.6498    171678.44    10.472245    173.31217 
   16000   -255.08407    37.998162   -217.08591    2747.3511    190024.39    10.472245    171.70226 
   16100   -255.54146    34.333423   -221.20804    2482.3824    188141.13    10.472245    172.02784 
   16200   -264.02088    36.301832   -227.71905    2624.7027    163018.98    10.472245    170.84466 
   16300   -252.55827    34.601144   -217.95713    2501.7392     198169.7    10.472245    170.28706 
   16400   -254.15374    34.485298   -219.66845    2493.3633    193104.35    10.472245    169.76796 
   16500   -261.11976    36.087678   -225.03208     2609.219    169953.96    10.472245    169.99426 
   16600   -255.03512    35.030457   -220.00466    2532.7795    187462.97    10.472245    168.07951 
   16700   -255.07364    36.224042   -218.84959    2619.0784    189053.53    10.472245    169.66071 
   16800   -256.23634    41.209422   -215.02692    2979.5324    190601.91    10.472245    167.91117 
   16900    -258.1202    41.061228   -217.05897    2968.8176    186052.11    10.472245    170.81092 
   17000   -261.87276    37.879841   -223.99292    2738.7963     171791.6    10.472245    170.84469 
   17100   -256.62041     41.76789   -214.85252    3019.9108    188443.41    10.472245    171.29097 
   17200   -257.49824    36.181318   -221.31692    2615.9893    182308.17    10.472245    174.85488 
   17300   -260.63966    37.178012   -223.46164    2688.0525    175180.65    10.472245    175.52021 
   17400   -256.94463    42.049896   -214.89473    3040.3005    187379.52    10.472245    174.98073 
   17500   -259.05187    35.309385   -223.74248    2552.9467    177249.11    10.472245    177.29833 
   17600   -260.71432    36.324471   -224.38985    2626.3396    172058.56    10.472245    179.80412 
   17700   -256.10157    39.493651   -216.60792    2855.4783    191240.44    10.472245     182.0187 
   17800   -255.47471    36.482002   -218.99271    2637.7294    188558.88    10.472245    182.24254 
   17900   -258.16373    33.591527    -224.5722    2428.7417    179147.51    10.472245    184.43556 
   18000   -253.45608    36.181939   -217.27414    2616.0342    195049.09    10.472245    189.00911 
   18100    -253.5965    35.120208   -218.47629    2539.2687    190388.02    10.472245    191.74725 
   18200   -257.52911    36.364905    -221.1642    2629.2631    181711.76    10.472245    194.30765 
   18300   -259.99322    41.206147   -218.78707    2979.2956    177653.91    10.472245     195.3804 
   18400   -252.93071     37.56497   -215.36574    2716.0304    197066.23    10.472245    196.60424 
   18500   -255.35106    39.704057     -215.647    2870.6912    190359.32    10.472245    200.99697 
   18600   -262.12409    38.080081   -224.04401    2753.2741     171993.9    10.472245    201.43715 
   18700   -254.96528    38.883717   -216.08156    2811.3787    193459.58    10.472245    206.29682 
   18800   -260.08187     41.91402   -218.16785    3030.4764    180472.17    10.472245    209.76891 
   18900   -259.88073    35.463898   -224.41684    2564.1183    174169.78    10.472245    207.87915 
   19000   -249.99152    34.766395   -215.22512    2513.6872    201807.05    10.472245     207.4234 
   19100   -256.59655    39.966571   -216.62997    2889.6715    184633.25    10.472245     208.4695 
   19200   -256.91954     34.02266   -222.89688    2459.9136    181084.76    10.472245    206.75928 
   19300    -257.5983    38.611273   -218.98703    2791.6804    183745.72    10.472245    208.64636 
   19400   -262.19474    36.883808   -225.31093    2666.7809    170175.69    10.472245    210.64474 
   19500   -257.49154    38.483064   -219.00848    2782.4107    182905.12    10.472245    213.17193 
   19600   -257.34668    39.881276    -217.4654    2883.5044    182891.23    10.472245    217.34627 
   19700   -256.25252    28.939987   -227.31253    2092.4251    180950.16    10.472245    217.16395 
   19800   -255.18923    34.532272   -220.65695    2496.7596    188602.66    10.472245    216.92507 
   19900   -255.72662    39.725116    -216.0015    2872.2138    190611.76    10.472245    220.16559 
   20000   -258.30945    31.607088   -226.70236    2285.2624    177367.76    10.472245    217.52486 
   20100   -256.65246    36.720751   -219.93171    2654.9915    186126.62    10.472245    216.25724 
   20200   -256.02311    39.195315   -216.82779     2833.908    191625.48    10.472245    215.12398 
   20300    -255.3828    36.845725   -218.53707    2664.0274    189544.37    10.472245     217.3107 
   20400   -256.80065     36.59073   -220.20992    2645.5907    186059.52    10.472245    215.28608 
   20500   -257.30945    39.693145   -217.61631    2869.9022    182629.61    10.472245    218.32377 
   20600   -251.92529    39.558191    -212.3671    2860.1447    207100.19    10.472245     218.8704 
   20700   -252.83844    35.776654   -217.06179    2586.7312    192541.34    10.472245    226.38122 
   20800   -255.80815     29.89194   -225.91621    2161.2534     188353.7    10.472245    226.12894 
   20900   -257.37732    36.640189   -220.73713    2649.1667     181283.1    10.472245    226.62656 
   21000   -254.72614    36.987209   -217.73893     2674.257    188377.06    10.472245    224.77888 
   21100   -258.47093    32.381422   -226.08951    2341.2484    180177.84    10.472245    228.54244 
   21200   -258.43633     39.03574   -219.40059    2822.3704    183674.24    10.472245    229.66466 
   21300    -259.3962    42.026057   -217.37014    3038.5769     178880.7    10.472245    228.44992 
   21400   -258.90623    35.502575   -223.40365    2566.9147    179309.79    10.472245    229.69433 
   21500   -251.53425    39.424482   -212.10977    2850.4772    201124.09    10.472245    233.62808 
   21600   -252.73385    35.820157    -216.9137    2589.8766    198368.76    10.472245    231.20997 
   21700   -255.81576    35.939364    -219.8764    2598.4955    186932.92    10.472245    231.07973 
   21800      -254.87    41.335983   -213.53401     2988.683    188918.67    10.472245    234.64728 
   21900   -258.10191    41.067685   -217.03422    2969.2845    184696.84    10.472245    239.13785 
   22000   -263.64508    38.875753   -224.76932     2810.803    161716.27    10.472245    240.03333 
   22100   -256.64456     39.47138   -217.17318    2853.8681    185922.01    10.472245    240.31379 
   22200    -253.8404     36.67253   -217.16787     2651.505    195645.49    10.472245    243.21456 
   22300    -258.6288    38.594628   -220.03417     2790.477     177255.6    10.472245    244.29286 
   22400   -262.28508    36.158692   -226.12638    2614.3534    170388.13    10.472245    246.40174 
   22500   -255.40991    37.656785   -217.75312    2722.6689    188327.16    10.472245    245.90779 
   22600   -256.32224    36.524503   -219.79774    2640.8023     181471.3    10.472245    250.79769 
   22700   -258.75887    36.809398   -221.94947    2661.4009    180054.61    10.472245    249.32392 
   22800   -253.24391    37.561088   -215.68282    2715.7497    193778.54    10.472245    248.97834 
   22900   -255.77958    36.572437   -219.20714    2644.2681    184942.72    10.472245    252.23072 
   23000   -258.77536    34.395092   -224.38027    2486.8412    175713.46    10.472245    251.77666 
   23100   -256.15136    41.170931   -214.98043    2976.7494    189416.02    10.472245    252.60353 
   23200   -257.43022    38.420873   -219.00934    2777.9141    184985.94    10.472245    255.79443 
   23300   -263.11064     35.18524    -227.9254    2543.9707    166046.43    10.472245    256.52129 
   23400   -257.46828    39.047618   -218.42066    2823.2292    184373.27    10.472245    257.15379 
   23500   -255.10932    39.848647   -215.26067    2881.1453    192203.43    10.472245    256.76683 
   23600   -255.73404    34.293353   -221.44069    2479.4853    184391.48    10.472245    260.25759 
   23700   -256.31236    35.167412   -221.14495    2542.6817    186637.22    10.472245    260.13281 
   23800   -255.49434     40.59609   -214.89825    2935.1871    191595.32    10.472245    262.72812 
   23900   -257.28912    37.312111   -219.97701    2697.7482    187743.73    10.472245    264.16319 
   24000   -252.90411    42.647025   -210.25709    3083.4742    202026.79    10.472245    264.46886 
   24100   -251.66354    34.876805   -216.78674    2521.6702    200904.13    10.472245    265.23484 
   24200   -255.04614    34.326586   -220.71955    2481.8881    187404.07    10.472245    270.01829 
   24300   -253.42426    38.188808   -215.23545    2761.1353     195128.5    10.472245    273.86547 
   24400   -253.58882    38.375455   -215.21336    2774.6303    196580.98    10.472245    273.80582 
   24500   -261.71047    39.007795   -222.70267    2820.3499    173380.66    10.472245    275.18348 
   24600   -258.42015    36.145127   -222.27502    2613.3727    177679.25    10.472245    274.85273 
   24700   -254.18289     38.63676   -215.54613    2793.5232    191796.89    10.472245    278.45312 
   24800   -255.02085    41.397666   -213.62319    2993.1428    191878.96    10.472245    281.25612 
   24900   -258.46748    34.580328   -223.88715    2500.2342    178362.85    10.472245    281.99855 
   25000   -259.95299    37.916929   -222.03606    2741.4778    175474.97    10.472245    285.39714 
   25100   -255.73507    44.959583   -210.77549    3250.6773    194594.33    10.472245    286.17815 
   25200   -258.79549    41.583809   -217.21168    3006.6014    183296.55    10.472245      291.515 
   25300   -256.72707    35.808159   -220.91891    2589.0091    186378.59    10.472245    296.54508 
   25400    -251.0792    40.076261   -211.00294    2897.6023     203464.2    10.472245    296.75535 
   25500    -258.3194    40.178997    -218.1404    2905.0304    185140.98    10.472245    296.12259 
   25600    -256.1704    35.560937   -220.60946    2571.1344    185759.27    10.472245    300.53102 
   25700   -254.85218    40.593199   -214.25898    2934.9781     192953.7    10.472245    300.33115 
   25800   -257.57421    41.443065   -216.13115    2996.4252    186951.82    10.472245    301.96059 
   25900   -255.81898    35.448282    -220.3707    2562.9892    184585.05    10.472245    303.49052 
   26000   -255.27132    36.676671   -218.59465    2651.8044    191422.05    10.472245     299.5519 
   26100   -260.15147    32.362718   -227.78875    2339.8961    174685.64    10.472245     295.7006 
   26200   -255.59254    36.486931   -219.10561    2638.0858     190559.9    10.472245    296.68264 
   26300   -254.77519    35.872663   -218.90252    2593.6729    190427.22    10.472245    293.71043 
   26400   -252.21786    36.099439   -216.11842    2610.0693    198548.46    10.472245    291.18979 
   26500   -248.72591    34.465068   -214.26084    2491.9006    204588.72    10.472245    291.38475 
   26600   -261.50785    38.147279   -223.36057    2758.1326    171870.68    10.472245    295.33912 
   26700     -259.596    41.741445   -217.85456    3017.9988     181468.1    10.472245    299.54794 
   26800   -255.89511    38.991453   -216.90366    2819.1683    195052.72    10.472245    300.43782 
   26900   -257.60475    38.486996   -219.11775     2782.695    182815.05    10.472245    294.75536 
   27000   -252.69117    38.318974   -214.37219    2770.5466    197654.95    10.472245    296.70833 
   27100    -255.2754    36.223079   -219.05233    2619.0087    186509.41    10.472245     299.1681 
   27200   -257.73625    36.141723   -221.59452    2613.1265    180603.58    10.472245    299.61071 
   27300    -247.1485    33.322296    -213.8262    2409.2757    210563.71    10.472245    301.14412 
   27400   -253.97379    38.638196    -215.3356     2793.627    193178.05    10.472245    308.07403 
   27500     -254.838    34.811015   -220.02698    2516.9134     191402.4    10.472245    304.34656 
   27600   -255.44064    43.319366   -212.12127     3132.086    194094.47    10.472245    306.38984 
   27700   -259.24561     40.38314   -218.86247    2919.7904    182477.04    10.472245    303.60786 
   27800   -260.64472    40.966697   -219.67803    2961.9828    176462.83    10.472245     306.8356 
   27900   -260.43363     35.16769   -225.26594    2542.7018    175192.88    10.472245    308.25564 
   28000   -259.75153    36.422891   -223.32864    2633.4556    178926.81    10.472245    309.83844 
   28100   -253.77552    36.480122    -217.2954    2637.5935    190380.01    10.472245    311.76314 
   28200   -256.52983    34.609377   -221.92046    2502.3345    183587.07    10.472245    311.83856 
   28300   -252.69944    30.231054   -222.46839    2185.7721    189373.06    10.472245    314.06384 
   28400   -256.73011    40.948957   -215.78115    2960.7002    186294.08    10.472245    315.25941 
   28500   -258.46421    34.943043   -223.52117    2526.4593    178017.91    10.472245    318.67601 
   28600   -258.89197    37.542787   -221.34918    2714.4265    178473.46    10.472245    320.92378 
   28700   -254.93142    35.783795   -219.14763    2587.2475    186998.26    10.472245    318.86923 
   28800   -254.53511    41.774544   -212.76056    3020.3919    195578.19    10.472245    321.47275 
   28900   -256.01254    36.048167   -219.96437    2606.3622    185972.03    10.472245    320.52256 
   29000   -257.83631    40.994165   -216.84215    2963.9688    187044.82    10.472245    317.22866 
   29100    -251.7063    38.604225   -213.10208    2791.1709    201856.13    10.472245    318.21319 
   29200   -258.93634    37.364021   -221.57231    2701.5014    182678.43    10.472245    317.53188 
   29300   -251.93728     37.65578    -214.2815    2722.5962    202303.66    10.472245    318.30143 
   29400   -258.14737    32.166583   -225.98079    2325.7151       181925    10.472245    322.09263 
   29500   -259.19457    39.534403   -219.66016    2858.4248    176172.93    10.472245      322.939 
   29600   -253.89899    37.150892    -216.7481    2686.0917    190160.84    10.472245    323.83803 
   29700   -262.21447    36.266086   -225.94839    2622.1182     170133.3    10.472245    329.64942 
   29800   -261.83898    36.625649   -225.21333    2648.1154    170019.07    10.472245    323.70486 
   29900   -254.04744    35.130077   -218.91736    2539.9822    191527.85    10.472245    331.69184 
   30000   -252.39744    34.936759   -217.46068     2526.005     197594.3    10.472245    331.52739 
   30100   -261.78924    34.539987   -227.24925    2497.3175    166548.65    10.472245    331.13413 
   30200   -258.28663    38.091217   -220.19541    2754.0792     181983.7    10.472245    334.79817 
   30300   -258.47469    41.698311   -216.77638    3014.8801     183600.7    10.472245    335.04867 
   30400   -263.31256    37.385146   -225.92742    2703.0288    168470.43    10.472245    334.14416 
   30500   -256.99838    39.547919   -217.45046     2859.402    185690.98    10.472245    332.46729 
   30600   -257.88956    37.818774   -220.07078     2734.381    183386.74    10.472245    336.19112 
   30700    -262.5183    33.443495   -229.07481    2418.0387    168074.29    10.472245    338.60914 
   30800   -255.04657    36.536775    -218.5098    2641.6896    189182.84    10.472245    341.11957 
   30900   -261.26369    42.566629   -218.69706    3077.6614    178464.07    10.472245    340.93778 
   31000   -256.57195    30.436067   -226.13589    2200.5949    182869.11    10.472245    340.52994 
   31100   -256.59323    39.649901   -216.94333    2866.7756       188656    10.472245    339.28084 
   31200   -251.85964    36.024825   -215.83482    2604.6745    202030.84    10.472245    341.56294 
   31300   -260.46512    39.409518    -221.0556    2849.3953    178346.31    10.472245     340.2789 
   31400   -258.91467     36.17134   -222.74333    2615.2679    179185.55    10.472245    339.78393 
   31500   -254.54535    39.575046   -214.97031    2861.3634       194560    10.472245    343.13342 
   31600   -257.87145    38.607221   -219.26423    2791.3875    182357.53    10.472245    343.29291 
   31700   -259.30799      33.3412   -225.96679    2410.6425    176172.06    10.472245    341.41089 
   31800   -261.14368    35.824858   -225.31882    2590.2165    171918.33    10.472245    340.45192 
   31900   -256.33609    38.737127   -217.59897      2800.78    189730.88    10.472245    347.48796 
   32000   -261.75379    38.370309   -223.38348    2774.2582    167715.31    10.472245    349.38507 
   32100   -257.86653    31.918361   -225.94817    2307.7681     181234.5    10.472245    351.92136 
   32200   -256.62253    37.761776   -218.86076      2730.26    189429.34    10.472245    359.77122 
   32300   -258.48176    37.801759      -220.68    2733.1508     184451.8    10.472245    356.90426 
   32400    -254.5729    40.316316   -214.25658    2914.9588     193467.1    10.472245    362.21643 
   32500   -255.84398    32.922032   -222.92195    2380.3357    184814.41    10.472245    360.48859 
   32600   -261.15752    40.330443   -220.82707    2915.9803    175433.53    10.472245    362.67361 
   32700    -258.1228    37.852123   -220.27068    2736.7922    183920.87    10.472245    361.14441 
   32800   -256.86696    37.596572   -219.27039    2718.3153    188228.61    10.472245    364.56214 
   32900   -254.38476    35.994295   -218.39046    2602.4671    192639.75    10.472245    367.47063 
   33000   -257.23467    37.957299   -219.27737    2744.3966    189875.33    10.472245    369.78361 
   33100   -256.80523    33.776028   -223.02921    2442.0815    185745.74    10.472245    371.04396 
   33200   -259.44611    36.209658   -223.23645    2618.0383    180529.71    10.472245    372.83485 
   33300   -257.16369    42.282262   -214.88143     3057.101    187137.96    10.472245    376.80131 
   33400   -254.43899    32.351912   -222.08708    2339.1148    191185.39    10.472245    374.69615 
   33500   -255.29668    32.437751   -222.85892    2345.3212    187657.04    10.472245    377.57059 
   33600   -251.40896    36.332042   -215.07692     2626.887       203849    10.472245    382.78391 
   33700   -257.40637    38.972162    -218.4342    2817.7735    188639.69    10.472245    378.82198 
   33800   -261.97712    35.601693   -226.37543    2574.0811    166974.29    10.472245    379.65166 
   33900   -254.99058    39.751532   -215.23905    2874.1237    192116.11    10.472245    379.98973 
   34000    -257.3278    36.465271   -220.86253    2636.5197    187406.96    10.472245    382.29993 
   34100   -255.33843    34.688617   -220.64982    2508.0637    187729.27    10.472245    382.62432 
   34200   -255.71423    42.329697   -213.38454    3060.5307    192327.59    10.472245    380.73232 
   34300   -257.63751    36.704523   -220.93298    2653.8182    186373.96    10.472245    385.68009 
   34400   -255.94128    40.290767   -215.65051    2913.1116    195510.46    10.472245    387.30191 
   34500   -255.37465     40.73962   -214.63503    2945.5646    192073.83    10.472245    387.55431 
   34600   -261.55396    40.103253    -221.4507    2899.5539    175452.22    10.472245    386.37517 
   34700   -257.28863    36.644157   -220.64447    2649.4536    183561.94    10.472245    389.01521 
   34800   -256.17781     38.33387   -217.84394    2771.6236    188705.08    10.472245    390.36593 
   34900   -259.69882    37.246363   -222.45245    2692.9944    176236.64    10.472245    390.80959 
   35000   -255.73137    35.271676   -220.45969    2550.2202    180760.68    10.472245    394.03145 
   35100   -257.25005    42.353296   -214.89676     3062.237    185639.77    10.472245    395.32971 
   35200   -256.69728    33.885797   -222.81148    2450.0181    183478.55    10.472245      392.562 
   35300   -257.90136     37.12928   -220.77208    2684.5291    182520.97    10.472245    398.56369 
   35400   -255.14854    42.611458   -212.53709    3080.9027    194103.22    10.472245    398.29055 
   35500   -254.33439    36.190633   -218.14375    2616.6628    193089.06    10.472245    399.93869 
   35600   -253.75638    35.760086   -217.99629    2585.5333    193568.91    10.472245    401.08797 
   35700   -256.08283    46.643594   -209.43924     3372.435    189624.58    10.472245    400.43107 
   35800   -255.26634    34.709269   -220.55707     2509.557    189660.72    10.472245    404.19978 
   35900   -257.01158    37.229274    -219.7823    2691.7589    185321.61    10.472245    403.83182 
   36000   -250.68145    38.235604   -212.44584    2764.5188    199866.22    10.472245    403.42552 
   36100   -259.41593    39.083165   -220.33277    2825.7992    175745.14    10.472245    406.77459 
   36200   -255.70175    34.803868   -220.89788    2516.3966    182019.79    10.472245    409.34109 
   36300   -254.51702    40.424271   -214.09274    2922.7642     193889.1    10.472245     412.9551 
   36400   -252.80305    33.738114   -219.06494    2439.3403    193054.42    10.472245    413.73222 
   36500   -256.35563    39.826916   -216.52871    2879.5741    188698.43    10.472245    415.64093 
   36600   -259.59098    35.234327   -224.35665    2547.5198    177676.42    10.472245    419.67324 
   36700    -254.4207    35.000132   -219.42057     2530.587    191531.56    10.472245    420.21414 
   36800   -253.37258     37.83419   -215.53839    2735.4956    197910.04    10.472245    421.44169 
   36900   -259.03454    35.400573   -223.63397    2559.5397    173488.14    10.472245    423.99187 
   37000   -256.43801    37.159594   -219.27842    2686.7208    184003.36    10.472245    423.24394 
   37100   -254.20748    39.412224   -214.79526     2849.591    193053.94    10.472245    426.84227 
   37200   -256.53723    33.574943   -222.96229    2427.5426    182696.51    10.472245    427.58944 
   37300   -255.92773    40.263412   -215.66432    2911.1337    190273.96    10.472245    431.89117 
   37400   -256.19912     39.42286   -216.77626      2850.36    185705.72    10.472245    429.80517 
   37500   -258.89176    37.291187   -221.60057    2696.2353    179610.51    10.472245    433.40786 
   37600   -253.49609    36.583889    -216.9122    2645.0961    194420.64    10.472245    435.61645 
   37700   -249.50307    39.912384   -209.59068    2885.7537    209586.59    10.472245    437.94002 
   37800   -252.71233    36.448066   -216.26426    2635.2758    195845.84    10.472245    443.12367 
   37900   -257.38286    33.646714   -223.73615    2432.7319    183266.69    10.472245     448.6026 
   38000   -258.27539    38.702452   -219.57294    2798.2729    185392.22    10.472245     444.7807 
   38100   -253.99319    41.186545   -212.80665    2977.8783    196699.13    10.472245     445.5147 
   38200   -259.85079    38.083992   -221.76679    2753.5569    175953.78    10.472245    446.66629 
   38300   -258.19278    36.736191   -221.45659    2656.1079    183359.48    10.472245    448.43054 
   38400   -257.65718    38.003552   -219.65363    2747.7408    182126.59    10.472245     451.0598 
   38500   -255.59092    36.398903   -219.19202    2631.7212    187131.57    10.472245    453.35371 
   38600   -250.50817    37.507371    -213.0008    2711.8659    204606.85    10.472245    450.56175 
   38700   -266.05302    41.850523    -224.2025    3025.8854    160536.46    10.472245    454.50279 
   38800   -253.94761     33.19692   -220.75069    2400.2107    190822.98    10.472245    458.53446 
   38900    -254.4093     35.73979   -218.66951    2584.0659    187634.36    10.472245    459.55404 
   39000   -263.15311    33.343213   -229.80989     2410.788     166456.4    10.472245    459.66952 
   39100   -257.85782    36.599669   -221.25815    2646.2371    180519.31    10.472245    462.05155 
   39200   -253.77266    38.741297   -215.03136    2801.0815    197344.05    10.472245    461.92417 
   39300   -253.02533    37.607917   -215.41742    2719.1356    201705.36    10.472245    463.12821 
   39400   -256.14678    33.602986    -222.5438    2429.5702    183356.94    10.472245    467.90175 
   39500   -256.18562    41.977836   -214.20779    3035.0904    186946.49    10.472245    466.58708 
   39600   -247.80004    37.162099   -210.63794     2686.902    208224.44    10.472245    472.74375 
   39700   -257.96439    37.224455   -220.73994    2691.4104    181601.27    10.472245    473.43931 
   39800   -254.76714    37.072486   -217.69465    2680.4227       190508    10.472245    475.59522 
   39900   -255.53974    42.185196   -213.35454     3050.083    190092.04    10.472245    473.74203 
   40000    -255.9146    36.590809   -219.32379    2645.5965    187324.05    10.472245    476.64762 
   40100     -258.751    40.481137   -218.26987    2926.8758     184212.6    10.472245    472.84959 
   40200   -253.11221    40.782074   -212.33014    2948.6341    196353.57    10.472245    475.92914 
   40300   -257.41994    35.709461   -221.71048     2581.873    182386.05    10.472245    477.07483 
   40400   -252.90424    37.179597   -215.72464    2688.1671    193663.44    10.472245     477.0048 
   40500   -250.03412    45.146698   -204.88742    3264.2061    209778.64    10.472245    478.42403 
   40600   -252.04222    35.798903   -216.24332    2588.3398    199078.85    10.472245     480.4701 
   40700   -258.98734    35.132546    -223.8548    2540.1608    176107.29    10.472245    478.34191 
   40800   -252.19943    36.197823   -216.00161    2617.1827    193990.96    10.472245    478.63833 
   40900   -257.35151    38.804534   -218.54697    2805.6536    181752.29    10.472245    480.42599 
   41000   -261.32728    38.195986   -223.13129    2761.6542    170910.49    10.472245    479.62865 
   41100   -252.64609    38.825201   -213.82089    2807.1479    200012.71    10.472245    483.36335 
   41200   -256.09433    38.059218   -218.03511    2751.7656     191882.5    10.472245     483.0271 
   41300   -257.05876    36.263674   -220.79509    2621.9439    177908.57    10.472245    479.44163 
   41400   -250.98146    40.886511   -210.09495    2956.1852    207835.15    10.472245    483.26128 
   41500   -256.80419    41.082058   -215.72213    2970.3237    184248.93    10.472245    489.81679 
   41600   -255.71423    34.515185   -221.19905    2495.5242    187003.17    10.472245    488.81081 
   41700   -253.91826    36.861285   -217.05698    2665.1524    193518.12    10.472245    490.13594 
   41800   -256.83975    42.673991   -214.16576    3085.4239    191973.58    10.472245    489.86385 
   41900   -255.58868      35.9964   -219.59228    2602.6193    190143.21    10.472245    489.41247 
   42000   -254.42191    35.596882   -218.82503    2573.7333    193250.58    10.472245     495.7729 
   42100   -256.38958    45.050459   -211.33912    3257.2478    190125.09    10.472245    499.29688 
   42200    -257.4756    37.866265   -219.60934    2737.8147    187419.07    10.472245    496.05642 
   42300   -256.83355    37.306391   -219.52716    2697.3346    188162.39    10.472245    499.14128 
   42400   -253.72321    43.653447   -210.06977    3156.2408    198304.31    10.472245    496.04228 
   42500   -253.14243    41.038307   -212.10413    2967.1603    199899.57    10.472245    495.02148 
   42600   -256.89367    35.492981   -221.40069     2566.221    183028.79    10.472245    497.93538 
   42700   -254.94695    39.288149    -215.6588    2840.6201     193012.7    10.472245    503.81286 
   42800   -252.70359    40.221374   -212.48222    2908.0943    200415.05    10.472245    504.50586 
   42900   -258.77312    34.859309   -223.91381    2520.4052    179759.35    10.472245    504.92622 
   43000   -258.80256    42.480102   -216.32246    3071.4053    182302.14    10.472245    509.74453 
   43100   -255.04084    38.830203   -216.21063    2807.5095    189295.64    10.472245    507.13219 
   43200   -258.97598    35.178565   -223.79742     2543.488    179169.45    10.472245    510.56034 
   43300   -255.72042    40.304554   -215.41586    2914.1084    192934.91    10.472245    512.77882 
   43400   -254.15766    35.100447   -219.05721      2537.84    195644.41    10.472245    515.80669 
   43500   -257.15126    34.460547   -222.69071    2491.5737    187175.04    10.472245    517.71654 
   43600    -255.5702    39.692732   -215.87747    2869.8723    193121.19    10.472245    519.56633 
   43700    -260.2187    37.161405   -223.05729    2686.8518    176247.63    10.472245    522.98512 
   43800   -262.81306    39.247165    -223.5659    2837.6569    166946.69    10.472245    524.40995 
   43900   -256.45668    42.579283    -213.8774    3078.5763    190322.58    10.472245    526.38378 
   44000   -254.26184    33.351387   -220.91045     2411.379    191204.19    10.472245    531.42449 
   44100   -255.73241    38.245705   -217.48671    2765.2491    193076.91    10.472245    532.06001 
   44200   -250.00174    40.773806   -209.22793    2948.0363    206464.49    10.472245    526.57989 
   44300   -256.83326    35.271522   -221.56174    2550.2091    184709.11    10.472245    526.32654 
   44400   -259.35383    37.820033   -221.53379    2734.4721    176932.21    10.472245    530.92314 
   44500   -256.70552    43.873719    -212.8318    3172.1669    189853.16    10.472245    531.39947 
   44600   -258.80258    35.691838   -223.11075    2580.5988    174062.97    10.472245    534.78817 
   44700   -251.87079    33.968144   -217.90265    2455.9719    197779.12    10.472245    531.72803 
   44800   -254.45759    38.692998   -215.76459    2797.5893       191576    10.472245    538.31178 
   44900   -257.07965    36.963428   -220.11622    2672.5376    187939.17    10.472245    537.60967 
   45000   -253.50459    35.279438   -218.22515    2550.7814    193210.49    10.472245    537.93003 
   45100    -246.9736    39.690007   -207.28359    2869.6753    209754.79    10.472245    540.00681 
   45200    -255.6282    37.425902    -218.2023    2705.9755    191490.31    10.472245    540.85271 
   45300   -257.67707    35.268788   -222.40828    2550.0114     180700.1    10.472245    542.67796 
   45400   -260.80526    33.233495   -227.57177    2402.8552    176442.13    10.472245    538.66676 
   45500   -256.21373    38.906597   -217.30713     2813.033    190652.42    10.472245    540.96536 
   45600   -253.03474    32.200105   -220.83463    2328.1388    190083.27    10.472245    542.29122 
   45700   -260.97827    32.270899   -228.70738    2333.2573    175108.51    10.472245    547.48766 
   45800   -256.09957    37.471361   -218.62821    2709.2623    185438.62    10.472245     552.4895 
   45900   -257.03598    36.070826   -220.96515    2608.0005    185161.15    10.472245    555.67661 
   46000   -259.25968    39.710498   -219.54918    2871.1568    178128.51    10.472245     555.3639 
   46100    -251.7272    38.816618   -212.91058    2806.5273     198153.1    10.472245    559.08708 
   46200    -254.3834    31.802301    -222.5811    2299.3767    190945.79    10.472245    559.30328 
   46300   -254.89833     39.47812   -215.42021    2854.3554     191824.3    10.472245    563.17857 
   46400   -261.50846    37.202209   -224.30625     2689.802    169689.02    10.472245    561.07652 
   46500   -258.87497    36.328081   -222.54689    2626.6006    184152.28    10.472245    568.71099 
   46600    -253.6581    35.824018   -217.83408    2590.1558    194208.51    10.472245    567.85725 
   46700   -254.77757    33.287304   -221.49027    2406.7457    191301.97    10.472245    568.45931 
   46800   -260.59089    34.552318   -226.03857     2498.209    174303.33    10.472245    569.39793 
   46900   -256.69479    39.187322   -217.50746    2833.3301    191621.51    10.472245    576.76557 
   47000   -258.86281     39.37064   -219.49217    2846.5843    180428.71    10.472245    579.36174 
   47100   -263.78757    38.170347   -225.61722    2759.8005    168542.25    10.472245    583.34201 
   47200   -254.32336    36.893552   -217.42981    2667.4854    190788.05    10.472245     583.3147 
   47300   -257.03923    36.798352   -220.24088    2660.6023    182751.22    10.472245    579.37541 
   47400   -258.67752    35.894591   -222.78293    2595.2583     177585.9    10.472245    581.98754 
   47500   -258.63052     41.70738   -216.92314    3015.5358    183184.57    10.472245      579.898 
   47600   -254.80908    37.135266   -217.67381    2684.9619    193512.45    10.472245    583.42181 
   47700   -257.22986    38.078707   -219.15116    2753.1748    182592.54    10.472245    582.07217 
   47800   -257.20771     35.55802   -221.64969    2570.9235    185657.83    10.472245    578.61133 
   47900   -252.83985    40.833281   -212.00657    2952.3365    196629.55    10.472245    576.30184 
   48000   -253.87271    36.739661   -217.13305    2656.3588    196959.44    10.472245    571.98426 
   48100   -254.88239    36.777217   -218.10517    2659.0741     192591.9    10.472245    572.63416 
   48200   -251.43924     38.65141   -212.78783    2794.5824    197032.38    10.472245    571.49806 
   48300    -261.5858    39.888598    -221.6972    2884.0338    170263.62    10.472245    574.75222 
   48400   -254.16866      33.4203   -220.74836    2416.3616    187924.35    10.472245    572.37367 
   48500   -253.65663    37.592956   -216.06368    2718.0539    192752.48    10.472245    577.60571 
   48600   -252.38816    32.398267   -219.98989    2342.4664     193291.2    10.472245    583.18562 
   48700   -260.25699    32.734159   -227.52283    2366.7521    171172.46    10.472245    583.78119 
   48800   -257.09281     37.75648   -219.33633     2729.877    182168.27    10.472245    588.34295 
   48900   -256.39334    40.261822   -216.13152    2911.0188    185830.67    10.472245    590.94098 
   49000   -257.12335    32.373776   -224.74957    2340.6956     181985.1    10.472245    595.64814 
   49100   -259.12865    39.581312   -219.54734    2861.8164    177495.38    10.472245    592.51473 
   49200    -257.6399    38.223871   -219.41603    2763.6704    183275.71    10.472245      596.252 
   49300   -254.47222    42.773477   -211.69874     3092.617    196095.92    10.472245    592.35777 
   49400   -254.59871    37.831239   -216.76747    2735.2823    190929.95    10.472245    586.32955 
   49500   -257.71983    36.637241   -221.08259    2648.9535    184352.93    10.472245    586.31452 
   49600   -255.05395    36.760079   -218.29387    2657.8351    186641.47    10.472245    592.48782 
   49700   -254.94001    38.924151   -216.01586    2814.3022    190557.04    10.472245    591.76081 
   49800    -259.6307    35.453379   -224.17732    2563.3577    177460.43    10.472245    595.05458 
   49900   -258.12859    40.746265   -217.38232    2946.0451    188767.08    10.472245    595.44544 
   50000   -251.86436    35.748006   -216.11635    2584.6599    197183.88    10.472245    593.28048 
   50100    -257.1176    34.148023   -222.96958    2468.9776    181271.88    10.472245    592.66529 
   50200   -258.51827    33.337543   -225.18073    2410.3781    178485.43    10.472245    596.01755 
   50300   -252.55912    36.235165   -216.32396    2619.8826    192415.04    10.472245    600.40324 
   50400   -253.41748     33.46496   -219.95252    2419.5906    192504.12    10.472245    604.68896 
   50500   -259.28487     31.39913   -227.88574    2270.2266    175970.42    10.472245    598.53335 
   50600   -258.59171    41.415506    -217.1762    2994.4327    184339.87    10.472245    598.71695 
   50700   -258.06064     37.59358   -220.46706     2718.099    185335.92    10.472245    605.31021 
   50800   -253.56518    33.705865   -219.85932    2437.0086    190997.89    10.472245    611.84487 
   50900   -252.92527    39.765916   -213.15936    2875.1637    198794.32    10.472245    614.70548 
   51000   -257.93411     37.03443   -220.89968    2677.6712    183457.61    10.472245    613.82823 
   51100   -260.98272     42.67323   -218.30949    3085.3689    175116.08    10.472245    613.07333 
   51200   -256.71817    41.764039   -214.95413    3019.6324    187955.98    10.472245    610.79676 
   51300   -257.79437    33.843928   -223.95044    2446.9909    178715.98    10.472245    619.38104 
   51400    -255.4781    39.554834   -215.92327     2859.902    190867.53    10.472245    614.16719 
   51500   -252.41011    36.219183   -216.19093     2618.727    199475.73    10.472245    610.12658 
   51600   -257.59741    35.275222   -222.32219    2550.4766    180104.03    10.472245    617.34068 
   51700   -260.14669    36.465474   -223.68122    2636.5344    175796.65    10.472245    623.56945 
   51800   -253.55219    37.968831   -215.58336    2745.2304    196953.03    10.472245    618.67352 
   51900    -255.4149    38.091909   -217.32299    2754.1293    189737.73    10.472245    621.57866 
   52000   -254.68211    34.339633   -220.34248    2482.8314    190337.32    10.472245    624.63454 
   52100   -257.24471    47.891003    -209.3537    3462.6255    189942.22    10.472245    631.69522 
   52200   -254.86852    33.905299   -220.96322    2451.4281    186639.41    10.472245    631.37549 
   52300   -260.62268     38.51449   -222.10819    2784.6828    172952.59    10.472245    633.11742 
   52400   -253.82394    41.217551   -212.60639    2980.1201    194398.22    10.472245    634.25329 
   52500   -260.40044    38.707275   -221.69316    2798.6216    177751.42    10.472245    636.51102 
   52600   -260.17901    37.731172   -222.44784    2728.0472    175292.54    10.472245    631.75206 
   52700   -253.96703    39.272994   -214.69403    2839.5243    193457.79    10.472245    631.29184 
   52800     -253.854    36.490245   -217.36376    2638.3254    193254.95    10.472245    629.80034 
   52900   -258.23761    37.641716   -220.59589    2721.5793    184697.27    10.472245    630.96906 
   53000   -255.77879    36.411461   -219.36733    2632.6292    188856.38    10.472245    625.05079 
   53100   -257.60525    39.587576   -218.01768    2862.2693    185811.25    10.472245    630.21567 
   53200   -256.64377    34.699255   -221.94451    2508.8329    186041.05    10.472245    631.30229 
   53300    -255.7764    32.727513   -223.04888    2366.2716    183503.91    10.472245    634.36397 
   53400   -252.86197    35.751296   -217.11067    2584.8978     195247.9    10.472245    632.34501 
   53500   -259.25088    35.671293   -223.57959    2579.1134    175490.04    10.472245    636.02993 
   53600   -259.28427    33.215068    -226.0692    2401.5229    179195.64    10.472245    642.16953 
   53700   -258.14657    38.991791   -219.15478    2819.1928    181116.55    10.472245    644.19624 
   53800   -253.92623    41.887478   -212.03875    3028.5573    194170.87    10.472245    647.34825 
   53900   -256.11646    38.395649   -217.72081    2776.0903    189250.45    10.472245    652.31677 
   54000   -255.75738    36.065247   -219.69213    2607.5972    188936.61    10.472245    651.22965 
   54100   -253.67164    39.646919   -214.02472    2866.5599    192648.55    10.472245    652.79302 
   54200   -256.77017    36.368557   -220.40161    2629.5271       184370    10.472245    655.79756 
   54300   -257.42473    37.681167   -219.74356    2724.4317    182391.53    10.472245    657.68512 
   54400   -259.57673    37.490984   -222.08575    2710.6811    173110.23    10.472245    661.44495 
   54500    -256.0518    33.521618   -222.53018    2423.6871     182980.7    10.472245    664.58718 
   54600    -257.2379    40.311429   -216.92647    2914.6054     184580.2    10.472245    671.61694 
   54700   -261.63042    32.950888   -228.67954    2382.4221    171552.82    10.472245    678.77444 
   54800   -260.17503    38.870223    -221.3048    2810.4031    177222.59    10.472245    680.81938 
   54900   -253.49997    34.029228   -219.47074    2460.3885    190775.13    10.472245    675.32275 
   55000   -252.06983    34.837362   -217.23247    2518.8183    195352.86    10.472245    675.02873 
   55100   -251.33202    37.601246   -213.73077    2718.6533    200463.57    10.472245    678.70028 
   55200   -260.17364    36.278061   -223.89558     2622.984    176083.25    10.472245    682.80209 
   55300   -255.37314    36.921257   -218.45188    2669.4885    189217.76    10.472245    686.08699 
   55400   -255.33715    41.303981   -214.03317    2986.3692    190831.52    10.472245    689.72197 
   55500   -255.44831    35.890957   -219.55735    2594.9956     191455.2    10.472245    686.38394 
   55600    -258.7948    37.195168   -221.59963    2689.2929     180002.5    10.472245     694.7782 
   55700   -251.30086    39.069351   -212.23151    2824.8005    200576.22    10.472245     693.3298 
   55800   -254.60578     33.88505   -220.72073    2449.9641    191632.04    10.472245    696.29556 
   55900   -259.55357    40.005527   -219.54805    2892.4881    179627.84    10.472245    694.96108 
   56000   -256.39385    36.765828   -219.62802    2658.2507    190757.04    10.472245    693.58479 
   56100   -261.63293    34.888672   -226.74426    2522.5282     168262.7    10.472245     695.0457 
   56200   -258.27974     40.64678   -217.63295    2938.8521    184534.26    10.472245    695.92611 
   56300    -260.5321     39.95497   -220.57713    2888.8327    174346.86    10.472245    700.19934 
   56400   -256.01288    31.799876   -224.21301    2299.2014    186032.15    10.472245    699.44711 
   56500   -250.41105    34.447818   -215.96323    2490.6534    203655.17    10.472245    700.03714 
   56600   -253.95651     35.62916   -218.32735    2576.0671    195580.19    10.472245    703.56945 
   56700    -257.4783    35.220693   -222.25761     2546.534    187318.06    10.472245    702.38167 
   56800   -256.98465    41.202766   -215.78188    2979.0511    187207.23    10.472245    704.84398 
   56900   -255.14608    36.351007   -218.79507    2628.2582    191571.64    10.472245    702.74952 
   57000   -252.43612    31.323943   -221.11217    2264.7904    195122.24    10.472245    700.26698 
   57100   -256.82165    43.401126   -213.42052    3137.9974    188580.35    10.472245    696.79689 
   57200   -257.90063    36.998545   -220.90208    2675.0766    182995.27    10.472245    700.49977 
   57300   -258.17294    40.519063   -217.65388    2929.6179    185163.64    10.472245    697.62957 
   57400   -252.99952    41.253784   -211.74574    2982.7398    200748.15    10.472245    705.24548 
   57500   -253.93872     35.80705   -218.13167    2588.9289    191568.96    10.472245    704.84481 
   57600    -260.6365     38.92106   -221.71544    2814.0788    174921.15    10.472245    701.49498 
   57700   -256.01748     38.14343   -217.87405    2757.8544    187601.96    10.472245    701.07414 
   57800   -256.92183    35.246448   -221.67538    2548.3962    185843.84    10.472245    702.67964 
   57900   -254.32162    36.538429   -217.78319    2641.8093    189708.79    10.472245     703.7499 
   58000   -251.48081    37.402557   -214.07825    2704.2876    203891.28    10.472245    708.86026 
   58100   -258.19245    38.572655   -219.61979    2788.8883    181174.46    10.472245    707.40938 
   58200   -257.25978    38.860083   -218.39969      2809.67    188134.49    10.472245    706.19143 
   58300   -254.64583    36.156309   -218.48953    2614.1811    188833.69    10.472245    703.85138 
   58400   -256.60158    33.483332   -223.11825    2420.9189    184577.93    10.472245    707.41951 
   58500   -254.61621    39.876998   -214.73921    2883.1951    191049.18    10.472245    704.84722 
   58600   -258.79543    39.358744   -219.43668    2845.7243    182733.85    10.472245    708.47357 
   58700   -262.26219    38.941691    -223.3205    2815.5704    169292.02    10.472245    705.30999 
   58800   -256.07264    37.013884   -219.05876    2676.1857    188355.96    10.472245    705.03135 
   58900   -256.04256    40.878159   -215.16441    2955.5813    187452.27    10.472245    707.30192 
   59000   -261.29514    35.657638    -225.6375    2578.1261     170185.8    10.472245       702.84 
   59100   -258.19958    36.925435   -221.27415    2669.7907    177646.96    10.472245    707.48827 
   59200   -250.96002    33.993817    -216.9662    2457.8282    195328.23    10.472245    709.39667 
   59300   -254.41275    36.403592   -218.00915    2632.0602    195279.65    10.472245    702.01422 
   59400   -261.46018     35.34567   -226.11451    2555.5701    171731.44    10.472245    698.14463 
   59500   -254.86758    37.890911   -216.97667    2739.5967     193341.5    10.472245    699.79078 
   59600    -254.0081    38.169232   -215.83887    2759.7199    193019.46    10.472245    704.60337 
   59700   -256.69026     34.85102   -221.83924    2519.8058    185617.12    10.472245    705.13398 
   59800   -258.52038    36.346692   -222.17368    2627.9462    180912.37    10.472245    705.21738 
   59900   -258.66698    42.754508   -215.91247    3091.2455    182064.99    10.472245     704.9055 
   60000   -256.54646     33.65878   -222.88768    2433.6042    184007.75    10.472245     706.3662 
   60100   -257.10801    43.470638   -213.63738    3143.0232    190538.23    10.472245    710.73763 
   60200   -259.89864    38.573467   -221.32517     2788.947    179298.98    10.472245    710.44699 
   60300   -257.38137    37.203749   -220.17762    2689.9134    186189.84    10.472245    713.79389 
   60400   -254.30072     34.89929   -219.40143    2523.2959    192865.27    10.472245    715.53104 
   60500   -251.93333    43.308391   -208.62494    3131.2925    205803.55    10.472245    716.85302 
   60600   -254.57856    35.436778   -219.14178    2562.1575    190875.97    10.472245    719.75514 
   60700    -259.8017     44.01493   -215.78677    3182.3768    180944.93    10.472245    712.02927 
   60800   -256.32036    35.509581   -220.81078    2567.4212     187732.2    10.472245    714.17173 
   60900   -257.15256    34.082343   -223.07022    2464.2288    182494.57    10.472245    719.77302 
   61000   -253.44886    34.171626   -219.27723    2470.6842    191999.54    10.472245    717.34606 
   61100   -258.33062    42.983823    -215.3468    3107.8255    184286.75    10.472245     720.2371 
   61200   -258.64199    39.235741   -219.40625    2836.8309    179226.56    10.472245    724.20212 
   61300   -260.15689    37.697428   -222.45947    2725.6075    178885.41    10.472245    721.19913 
   61400   -250.05326    38.279997   -211.77326    2767.7285     208239.3    10.472245    718.23769 
   61500   -256.91431    36.605218   -220.30909    2646.6382    185517.21    10.472245    718.31754 
   61600   -254.40199    34.944697   -219.45729    2526.5789    194032.97    10.472245    725.28612 
   61700   -253.99477    38.932659   -215.06211    2814.9173    196173.76    10.472245    719.53862 
   61800    -260.0479    33.621845   -226.42605    2430.9338    175339.81    10.472245    719.49171 
   61900   -256.12484    36.944678   -219.18017     2671.182    188325.06    10.472245    720.81299 
   62000   -251.69626    35.934911   -215.76135    2598.1736     197848.4    10.472245    720.72749 
   62100   -257.62481    31.184822   -226.43999    2254.7316    181449.46    10.472245    724.97805 
   62200    -254.1909      32.8602    -221.3307    2375.8652    189098.49    10.472245    727.78478 
   62300   -254.15168    36.191116   -217.96056    2616.6978     196157.8    10.472245    730.31486 
   62400   -255.11289    38.515048   -216.59784    2784.7231    192046.48    10.472245    731.71651 
   62500   -260.10041    36.802921   -223.29749    2660.9326     176786.9    10.472245    728.02406 
   62600   -255.06053    34.086294   -220.97423    2464.5145    189494.51    10.472245    730.08955 
   62700   -254.01283    41.070253   -212.94258    2969.4701    193693.18    10.472245    724.62435 
   62800    -257.8614    37.266441   -220.59496    2694.4461    181011.25    10.472245    725.61674 
   62900   -255.01392    34.320922     -220.693    2481.4786    188932.52    10.472245     729.6959 
   63000   -251.63609    33.687553   -217.94854    2435.6846    200192.15    10.472245    724.05156 
   63100   -254.77665     37.14705    -217.6296    2685.8139    190884.83    10.472245    731.94989 
   63200   -262.60984    34.584515   -228.02533    2500.5369     170958.1    10.472245    732.86389 
   63300   -257.50937    36.438027   -221.07134      2634.55    180472.29    10.472245    735.19512 
   63400    -250.6287     33.99482   -216.63388    2457.9007    198735.47    10.472245     740.4002 
   63500   -260.52485    33.260684   -227.26417     2404.821    171298.03    10.472245    747.15389 
   63600   -261.83082    41.773167   -220.05765    3020.2923    176316.56    10.472245    747.03467 
   63700   -257.96299    37.638175   -220.32481    2721.3233    181172.64    10.472245    746.73974 
   63800   -261.91875    31.370326   -230.54842     2268.144    165174.12    10.472245    752.98356 
   63900   -252.45458    32.205196   -220.24939    2328.5069    195921.54    10.472245     759.9714 
   64000   -251.68707    37.126445   -214.56062    2684.3241    197730.98    10.472245    753.32708 
   64100    -258.4233    35.236553   -223.18675    2547.6807    177809.62    10.472245    750.81754 
   64200   -258.59102    34.586412    -224.0046    2500.6741    180681.55    10.472245    754.65153 
   64300   -256.19482    37.337298   -218.85752    2699.5693    187409.27    10.472245     748.4242 
   64400   -253.34759    37.094788    -216.2528    2682.0352    194632.51    10.472245    753.99969 
   64500   -258.49479     37.85184   -220.64295    2736.7717    182858.73    10.472245    750.77416 
   64600   -258.55435    38.313491   -220.24086    2770.1501    182126.25    10.472245    750.28232 
   64700   -252.55695    39.168122   -213.38883    2831.9418     200129.6    10.472245    753.60025 
   64800   -255.22782    37.163041   -218.06478    2686.9701    192591.89    10.472245    761.54055 
   64900   -256.78471    38.701034   -218.08368    2798.1704    186351.79    10.472245    771.59183 
   65000   -257.68089    39.623645   -218.05725    2864.8772    183975.35    10.472245    771.17529 
   65100   -258.42665    34.148686   -224.27796    2469.0256    175764.64    10.472245    771.78465 
   65200   -253.86877    39.228465    -214.6403    2836.3048    195444.53    10.472245    770.90453 
   65300   -255.34604     35.62822   -219.71782    2575.9991    188219.57    10.472245    776.05664 
   65400   -259.35231    33.579335   -225.77297    2427.8602    176917.95    10.472245    773.28293 
   65500   -259.94139    34.183113   -225.75828    2471.5147    175301.12    10.472245    774.51955 
   65600    -253.2571    38.321359   -214.93574     2770.719    199632.57    10.472245    776.63822 
   65700   -255.47841    35.614831   -219.86358    2575.0311    191585.38    10.472245    776.62362 
   65800   -258.98841    39.094458   -219.89395    2826.6158    180546.13    10.472245     773.2911 
   65900   -256.54453    37.780038    -218.7645    2731.5803    190615.48    10.472245    779.63466 
   66000   -257.03587    35.561367    -221.4745    2571.1655    185799.57    10.472245    790.70124 
   66100   -256.62129    37.085527   -219.53577    2681.3656    181595.15    10.472245    797.08409 
   66200   -255.79041    40.245944   -215.54447    2909.8708    191667.06    10.472245    790.12973 
   66300    -257.1214    33.000692   -224.12071     2386.023    178498.79    10.472245    785.12597 
   66400    -257.9962     41.99881   -215.99739    3036.6069    186898.77    10.472245    793.06935 
   66500   -253.09987    36.750459   -216.34941    2657.1395    192678.55    10.472245    788.77185 
   66600   -259.39968    39.833399   -219.56628    2880.0429    177674.02    10.472245    788.27884 
   66700   -267.94087    36.746975    -231.1939    2656.8875    151906.52    10.472245    795.26842 
   66800   -257.86472    35.269435   -222.59529    2550.0582    185259.66    10.472245    792.98761 
   66900   -251.18951    36.210982   -214.97853    2618.1341    198623.74    10.472245    796.46988 
   67000   -255.09785    37.232004   -217.86585    2691.9563    188976.59    10.472245    800.90881 
   67100   -259.34059    36.005989    -223.3346    2603.3126    177554.67    10.472245    803.47367 
   67200   -255.52946    41.306517   -214.22294    2986.5525     189126.6    10.472245    808.10091 
   67300   -257.59238    39.357982    -218.2344    2845.6691     186834.2    10.472245    804.59071 
   67400   -261.06606    37.230154   -223.83591    2691.8225    175296.08    10.472245    804.24824 
   67500   -258.39867    32.477116   -225.92155    2348.1673    176880.73    10.472245    811.81554 
   67600   -255.58039    40.027153   -215.55324    2894.0517       191523    10.472245    817.13039 
   67700   -253.83384    39.769159   -214.06468    2875.3981    193299.94    10.472245    811.84066 
   67800   -256.48218    31.832006   -224.65017    2301.5245    183359.68    10.472245    809.33243 
   67900     -255.156    37.561432   -217.59457    2715.7746    192617.36    10.472245    817.21197 
   68000   -256.67131    40.102254   -216.56906    2899.4816    186838.54    10.472245     815.1237 
   68100   -257.09585    35.391029   -221.70482    2558.8497    184286.68    10.472245    813.32807 
   68200   -258.92881    31.221585   -227.70723    2257.3897    171799.56    10.472245    810.65234 
   68300    -256.5063    40.278801    -216.2275    2912.2464    187117.14    10.472245    809.42527 
   68400   -258.56656    35.160104   -223.40646    2542.1533    178444.95    10.472245    821.15469 
   68500   -262.55675    39.405747   -223.15101    2849.1227    172252.79    10.472245      816.961 
   68600   -254.12421    35.888376   -218.23584     2594.809    191064.49    10.472245    821.21101 
   68700   -257.79506    38.915296   -218.87977    2813.6619    181153.17    10.472245    824.35558 
   68800   -250.51543    40.068876   -210.44655    2897.0683    207768.84    10.472245    822.31735 
   68900   -252.42146    36.992646   -215.42881    2674.6502     197171.8    10.472245    825.23564 
   69000   -257.77335    36.069616   -221.70373     2607.913    185508.71    10.472245    825.07257 
   69100   -255.66439     40.73286   -214.93153    2945.0758    188134.99    10.472245    824.79651 
   69200   -257.59306    42.393205   -215.19985    3065.1225    187177.77    10.472245    822.44329 
   69300    -258.0613    38.870765   -219.19053    2810.4423    184252.12    10.472245    825.02173 
   69400   -257.55847    36.590975   -220.96749    2645.6084    184435.99    10.472245    833.00474 
   69500   -257.49072     40.79802    -216.6927    2949.7871    184033.84    10.472245    824.55155 
   69600   -253.53977    38.947214   -214.59256    2815.9697    195963.05    10.472245    825.82661 
   69700   -256.75888    34.245267   -222.51362    2476.0085    182391.35    10.472245    828.05558 
   69800   -259.49864    40.238334   -219.26031    2909.3206    181405.57    10.472245      827.703 
   69900    -251.9734    38.451607   -213.52179    2780.1362    199431.12    10.472245    836.85946 
   70000   -256.87262     36.05118   -220.82144    2606.5801    190367.05    10.472245    843.08584 
   70100   -254.22042    37.050499   -217.16992     2678.833    193502.81    10.472245    849.34794 
   70200   -250.52402    40.688541   -209.83548    2941.8715    204189.28    10.472245    840.17672 
   70300   -256.87851    35.759194   -221.11931    2585.4688    184369.64    10.472245     842.2373 
   70400   -258.01596    38.654594   -219.36136    2794.8127     181520.5    10.472245    837.00345 
   70500   -253.80248    41.269513   -212.53297    2983.8771    195786.92    10.472245    845.02943 
   70600   -261.26798    38.462146   -222.80583    2780.8983    174962.73    10.472245    849.68555 
   70700   -257.44711     41.46768   -215.97943     2998.205    184911.76    10.472245    846.75542 
   70800   -254.28087    37.715505   -216.56536    2726.9144    194182.11    10.472245    843.86583 
   70900   -259.92653    39.326318   -220.60021    2843.3798    173604.26    10.472245    845.95675 
   71000   -264.26238    41.783288    -222.4791    3021.0242     162631.6    10.472245    847.56368 
   71100    -256.7514     37.06526   -219.68614    2679.9003    182687.85    10.472245    856.52492 
   71200    -259.5296    42.133844   -217.39576    3046.3701    180384.96    10.472245    853.39257 
   71300     -258.662    38.115646   -220.54636    2755.8455    181334.64    10.472245    852.74786 
   71400   -261.14497    33.038111   -228.10686    2388.7285     168585.9    10.472245    848.54963 
   71500   -254.61563     34.78727   -219.82836    2515.1966    190076.11    10.472245    855.10706 
   71600   -254.35033    34.467595   -219.88273    2492.0833    189653.38    10.472245    859.37935 
   71700   -256.67035    36.650219   -220.02013    2649.8919    184344.04    10.472245    863.30177 
   71800   -250.11138    35.438017   -214.67336     2562.247     203049.5    10.472245    869.21725 
   71900   -257.49828    38.126549   -219.37173    2756.6339    185591.21    10.472245    871.43839 
   72000   -259.44336    38.091971   -221.35139    2754.1337    174721.06    10.472245    880.46993 
   72100   -257.68188    42.202303   -215.47958    3051.3199    187174.26    10.472245    884.25305 
   72200   -258.18815    46.494384   -211.69377    3361.6468    188120.45    10.472245    885.60622 
   72300    -258.4693    37.521637   -220.94767    2712.8974    181561.23    10.472245    883.31661 
   72400   -258.32843    34.106954   -224.22147    2466.0082    180130.39    10.472245    880.52369 
   72500   -254.28409    40.919662   -213.36443    2958.5821    196925.23    10.472245    882.78451 
   72600   -259.25588    41.421393   -217.83448    2994.8583    180289.21    10.472245      880.879 
   72700    -257.1015    35.940657   -221.16084     2598.589       184605    10.472245    887.14028 
   72800    -260.4424    43.533462   -216.90894    3147.5656    178543.69    10.472245    888.44646 
   72900    -247.4288    41.519913   -205.90888    3001.9816    217442.85    10.472245    890.05799 
   73000   -257.16623    39.722793   -217.44343    2872.0458    186972.61    10.472245    891.72144 
   73100   -258.04385    37.918005   -220.12585    2741.5556    178685.48    10.472245    895.75944 
   73200    -261.0209    33.003424   -228.01748    2386.2206    168798.65    10.472245    903.44135 
   73300   -257.64538    38.877233   -218.76815    2810.9099    184838.49    10.472245    909.56208 
   73400    -256.6057    38.857402    -217.7483    2809.4761    186803.68    10.472245    909.29042 
   73500   -261.26718    34.535016   -226.73216     2496.958    172774.09    10.472245    911.97397 
   73600   -254.70463    36.122413   -218.58222    2611.7304    193816.97    10.472245    913.59873 
   73700   -260.87939    39.886775   -220.99261     2883.902    172612.01    10.472245    915.53574 
   73800   -256.47126    33.304207   -223.16705    2407.9679    182031.91    10.472245    914.87632 
   73900   -252.70408    38.743348   -213.96073    2801.2298    197384.97    10.472245    910.69157 
   74000   -255.84923     33.61423     -222.235    2430.3832    185196.29    10.472245    911.70719 
   74100   -258.73917    41.363821   -217.37535    2990.6957    184227.66    10.472245    915.00732 
   74200   -254.60695    41.111161   -213.49579    2972.4279    195196.15    10.472245    923.83635 
   74300   -257.13791    34.994946   -222.14296     2530.212    182724.76    10.472245    928.07021 
   74400   -254.86023    35.892954   -218.96728    2595.1399    191725.93    10.472245    937.91431 
   74500   -254.32535    41.649275   -212.67608    3011.3347    191581.02    10.472245    940.12334 
   74600   -254.02823     35.37615   -218.65208    2557.7739    194211.53    10.472245    948.73799 
   74700   -251.62917    32.816553   -218.81262    2372.7094    196098.54    10.472245    950.64736 
   74800   -255.95791    39.875531   -216.08237    2883.0891    186395.96    10.472245    955.35032 
   74900   -248.19616    34.639798   -213.55637     2504.534    210183.02    10.472245    967.83726 
   75000   -259.33963    37.139771   -222.19985    2685.2876    177262.01    10.472245     970.4734 
   75100   -258.00567    38.575468    -219.4302    2789.0916    183130.14    10.472245    970.03889 
   75200   -252.30108    33.805636   -218.49545    2444.2223     192292.1    10.472245    974.64698 
   75300   -254.32927    37.993017   -216.33625    2746.9791    193266.33    10.472245    976.28273 
   75400   -259.33609    35.824904   -223.51118    2590.2198    176229.48    10.472245    976.42323 
   75500   -259.52928    36.466456   -223.06282    2636.6055    179578.36    10.472245     976.7031 
   75600    -251.0211    36.182638   -214.83846    2616.0848    200194.84    10.472245    980.81127 
   75700   -255.83692    33.522787   -222.31414    2423.7716    182992.94    10.472245    978.93899 
   75800    -259.9417    42.050034   -217.89167    3040.3105    178708.09    10.472245    973.77474 
   75900   -252.88384    35.619738    -217.2641    2575.3859    196499.87    10.472245    979.48541 
   76000   -255.16393    32.481054   -222.68288    2348.4521    182404.37    10.472245    983.24555 
   76100   -263.83672    34.768444   -229.06828    2513.8354    165009.78    10.472245    989.37274 
   76200    -252.7998    35.051726   -217.74808    2534.3173    195781.48    10.472245    992.18551 
   76300   -257.87551    40.777865   -217.09764    2948.3298    189601.66    10.472245    989.68285 
   76400    -255.7962    30.694597    -225.1016    2219.2872    185413.86    10.472245    980.09507 
   76500   -256.81683    40.552817   -216.26401    2932.0584    190677.53    10.472245    983.29156 
   76600   -253.83447    35.574346   -218.26012    2572.1039    196705.61    10.472245    986.91185 
   76700   -256.00549    33.383842   -222.62165    2413.7256    186010.56    10.472245    979.64852 
   76800   -249.82033     38.73161   -211.08872    2800.3811    204559.56    10.472245    983.83618 
   76900    -256.3201    37.349292   -218.97081    2700.4364    193375.06    10.472245    977.27263 
   77000    -260.8659    38.618455   -222.24745    2792.1997    175711.86    10.472245    981.91673 
   77100   -250.07214    38.390751   -211.68139    2775.7362     207121.2    10.472245    975.66639 
   77200   -260.83917    39.821059   -221.01811    2879.1506    176690.74    10.472245    977.76857 
   77300   -258.46846    37.423001   -221.04546    2705.7657    182386.41    10.472245     976.7867 
   77400   -252.42923    42.969893   -209.45934    3106.8183    201471.01    10.472245    974.74319 
   77500   -254.45175    37.254342   -217.19741    2693.5713    193252.19    10.472245    982.03248 
   77600   -257.17145     36.60807   -220.56338    2646.8444    183763.83    10.472245    989.56853 
   77700   -249.72599     38.47831   -211.24768    2782.0669    206881.74    10.472245    991.00157 
   77800    -256.0125    36.247024   -219.76547      2620.74    187330.81    10.472245    989.59277 
   77900   -255.97178    38.495556   -217.47622    2783.3138    188675.54    10.472245    990.38337 
   78000   -252.58909    35.342492    -217.2466    2555.3404    196229.58    10.472245    984.20851 
[...]
   81400   -254.79084    38.140048    -216.6508    2757.6098    191625.71    10.472245     990.8737 
   81500   -265.33122    39.837575   -225.49365    2880.3448    160991.27    10.472245    991.70038 
   81600   -257.07386    39.716697   -217.35716     2871.605    184750.11    10.472245    987.12007 
   81700   -257.71981    37.692215    -220.0276    2725.2305       182272    10.472245     994.9908 
   81800   -261.77727    35.104154   -226.67312     2538.108    175411.88    10.472245    991.94127 
   81900   -259.75309    41.653252   -218.09984    3011.6223    177482.27    10.472245    992.71727 
   82000   -256.48504    37.076764   -219.40828     2680.732    187488.36    10.472245    990.53134 
   82100   -251.13581    41.755457   -209.38035    3019.0119    211666.69    10.472245     993.7175 
   82200   -252.78861    37.370273   -215.41834    2701.9534    195517.86    10.472245    1001.7071 
   82300   -253.07399    33.448495   -219.62549    2418.4001     195531.5    10.472245    1003.6036 
   82400   -255.05374    40.581862   -214.47188    2934.1584    196292.24    10.472245    997.89138 
   82500    -254.9665    37.792343   -217.17416      2732.47    194458.45    10.472245    992.48946 
   82600   -258.51298    37.765566   -220.74741     2730.534    175883.84    10.472245    994.02205 
   82700   -252.87037    40.340988   -212.52939    2916.7427    196199.29    10.472245    1001.2095 
   82800   -255.19683     36.56491   -218.63192    2643.7239    190705.15    10.472245    1010.8517 
   82900   -256.93239    37.408949   -219.52344    2704.7497    187099.15    10.472245    1005.1782 
   83000    -264.1972    36.490933   -227.70627    2638.3752    162247.04    10.472245    1010.9047 
   83100   -255.29336    36.139222   -219.15413    2612.9457    185969.13    10.472245    1016.1361 
   83200   -254.35629    39.559197   -214.79709    2860.2174    191840.83    10.472245    1016.7047 
   83300   -262.01388    37.258304   -224.75557    2693.8578    171599.92    10.472245    1012.0076 
   83400   -256.18943     35.74596   -220.44347     2584.512    188681.83    10.472245    1015.1946 
   83500   -255.52421     37.69799   -217.82622     2725.648    190005.23    10.472245    1019.0251 
   83600   -256.60218    31.573348   -225.02883    2282.8229    180360.18    10.472245    1021.9074 
   83700   -258.83095    32.385068   -226.44589     2341.512    171807.21    10.472245    1027.1046 
   83800   -257.59982     38.12984   -219.46998    2756.8718    185989.98    10.472245    1029.7774 
   83900   -254.16305    39.881557    -214.2815    2883.5248    198927.54    10.472245    1020.9481 
   84000   -259.27135     36.02732   -223.24402    2604.8549    180524.48    10.472245    1029.3775 
   84100    -253.0317    35.910068   -217.12163    2596.3773    199078.69    10.472245     1018.732 
   84200   -251.51393    36.001488   -215.51244    2602.9872    200354.93    10.472245    1014.3088 
   84300   -250.31571    32.927963   -217.38775    2380.7646    206873.55    10.472245    1017.7967 
   84400   -254.00433     37.27453    -216.7298    2695.0309    191414.93    10.472245    1014.4611 
   84500   -262.87623    38.599117   -224.27712    2790.8015    166516.91    10.472245    1012.7006 
   84600   -255.78252     33.01431   -222.76821    2387.0076    185112.79    10.472245    1012.9568 
   84700   -253.47588    37.285602   -216.19027    2695.8315    198062.94    10.472245     1020.825 
   84800   -258.50363    34.543062   -223.96057    2497.5398    181022.63    10.472245    1017.5234 
   84900    -255.7127     39.15268   -216.56002    2830.8254    193373.27    10.472245    1015.5003 
   85000   -254.20818    36.661979    -217.5462    2650.7422    194964.92    10.472245    1022.3738 
   85100   -258.87113    36.417007   -222.45412    2633.0301    179677.61    10.472245    1017.8281 
   85200   -253.02933    40.779913   -212.24941    2948.4779    202256.85    10.472245    1017.4002 
   85300   -257.78416    38.177343   -219.60681    2760.3063     186611.7    10.472245     1019.965 
   85400   -257.34772    33.035207   -224.31252    2388.5186    182630.62    10.472245    1020.7824 
   85500   -256.10665    40.454269   -215.65238    2924.9331     187558.7    10.472245    1018.4076 
   85600    -259.2361    39.351135   -219.88496    2845.1741    181231.93    10.472245    1015.7197 
   85700   -257.89171    36.218536   -221.67318    2618.6802    181862.11    10.472245    1013.7039 
   85800   -254.53106    40.301764    -214.2293    2913.9067    193910.04    10.472245     1012.664 
   85900   -256.15852    36.203249   -219.95527     2617.575     187313.7    10.472245    1014.9026 
   86000   -262.78058    33.786139   -228.99444    2442.8126    167614.26    10.472245     1010.469 
   86100   -258.20616    38.556158      -219.65    2787.6955     184093.8    10.472245    1008.0226 
   86200   -253.34551    35.385354   -217.96016    2558.4394    195264.12    10.472245    1004.5948 
   86300    -262.7517    36.289585   -226.46212    2623.8172    166684.86    10.472245    1005.0124 
   86400   -257.77256    35.496775   -222.27578    2566.4954    180796.16    10.472245    1002.6785 
   86500   -255.33295    36.694664   -218.63829    2653.1054    188931.08    10.472245    1005.6936 
   86600   -256.33318    31.719107   -224.61407    2293.3616    185423.62    10.472245    1005.7346 
   86700   -253.90791    39.441823   -214.46609     2851.731    195187.29    10.472245     1012.422 
   86800   -255.44685    37.205766   -218.24109    2690.0592    190368.38    10.472245    1011.5893 
   86900   -259.62057    35.703152   -223.91742    2581.4169    176779.75    10.472245    1011.8653 
   87000   -258.56118     40.32355   -218.23763    2915.4818    180472.61    10.472245    1011.1005 
   87100   -259.76124    37.610108   -222.15113     2719.294    178093.58    10.472245    1020.3955 
   87200   -258.67882    33.318006   -225.36081    2408.9655    176545.18    10.472245    1018.1361 
   87300   -253.70692    38.663636   -215.04328    2795.4664    195037.01    10.472245    1021.8749 
   87400   -257.63534    34.673193   -222.96214    2506.9485    181654.45    10.472245    1023.7983 
   87500   -260.16013    36.673224    -223.4869    2651.5552    178313.84    10.472245    1026.4722 
   87600   -256.34373    37.711482   -218.63225    2726.6236    187555.63    10.472245    1018.8381 
   87700   -252.73484    38.354295   -214.38055    2773.1003     198398.1    10.472245    1029.2307 
   87800   -256.73362    36.583106   -220.15052    2645.0395     182165.3    10.472245    1031.2864 
   87900   -259.27575    37.595899   -221.67985    2718.2667    177269.24    10.472245    1030.2036 
   88000   -249.55585    36.772165   -212.78369    2658.7089    202740.64    10.472245    1030.4767 
   88100   -255.72132    36.310309   -219.41102    2625.3156    187279.11    10.472245    1023.3075 
   88200   -254.39787    36.248007   -218.14986    2620.8111    195035.41    10.472245    1028.9673 
   88300   -252.41715    40.011329   -212.40583    2892.9076    202363.99    10.472245     1027.125 
   88400   -257.48419    36.481071   -221.00312    2637.6621    183620.65    10.472245    1035.4045 
   88500    -255.4156    35.066642   -220.34895    2535.3958     189296.9    10.472245    1034.4806 
   88600   -257.38807    38.204349   -219.18372     2762.259    182179.05    10.472245    1041.8487 
   88700   -255.75086    40.766225   -214.98463    2947.4883    189340.54    10.472245    1051.5807 
   88800    -257.7268    41.999088   -215.72772     3036.627    185472.48    10.472245    1056.2866 
   88900   -259.53391    36.347745   -223.18617    2628.0223    174732.26    10.472245    1055.2118 
   89000   -258.64665    43.045346    -215.6013    3112.2737    181299.16    10.472245    1063.1603 
   89100   -258.12264    40.871205   -217.25144    2955.0785     184085.5    10.472245    1060.3918 
   89200   -256.72542    35.369036   -221.35638    2557.2595    182361.97    10.472245     1059.369 
   89300   -257.44194    31.806453   -225.63548    2299.6769    178929.21    10.472245    1054.7516 
   89400   -253.34527    38.447772    -214.8975    2779.8589    202146.13    10.472245    1048.0688 
   89500   -257.48538    34.855518   -222.62987     2520.131    179925.52    10.472245    1043.0339 
   89600    -260.2254    38.712419   -221.51298    2798.9935    176197.11    10.472245    1045.4988 
   89700   -259.38085    39.893169   -219.48768    2884.3643    181519.76    10.472245    1049.2915 
   89800    -249.3532    40.448532   -208.90467    2924.5183    209134.66    10.472245    1054.3798 
   89900   -258.26056    39.446886   -218.81367    2852.0971       183627    10.472245    1056.3061 
   90000   -256.56557    35.199989   -221.36558     2545.037    186180.33    10.472245    1061.7321 
   90100   -250.64792    40.804593   -209.84333    2950.2623    209258.24    10.472245    1065.1909 
   90200   -253.97294     36.91519   -217.05775    2669.0499    195131.76    10.472245    1059.3532 
   90300   -256.54296    35.720415   -220.82255     2582.665    189505.14    10.472245    1058.9704 
   90400   -254.33364    40.251058   -214.08259    2910.2405    196628.14    10.472245     1063.034 
   90500   -255.58045    39.308994   -216.27146    2842.1272    190622.59    10.472245    1067.4718 
   90600   -257.91308    36.597069   -221.31601     2646.049    183504.75    10.472245    1071.8898 
   90700     -254.544    39.095196    -215.4488    2826.6691    196696.68    10.472245    1075.8029 
   90800   -247.35233    42.348949   -205.00338    3061.9227    212932.52    10.472245    1078.6406 
   90900   -255.71513    39.272051   -216.44308    2839.4562    191947.57    10.472245    1078.6124 
   91000    -259.4819    34.857314   -224.62459    2520.2609       177335    10.472245    1078.5277 
   91100   -254.31151    35.753001   -218.55851    2585.0211    189538.99    10.472245    1077.5554 
   91200    -251.8122    40.374216   -211.43798    2919.1451    199260.11    10.472245    1084.9895 
   91300   -257.56746    37.354843   -220.21262    2700.8378    187723.71    10.472245    1090.6546 
   91400   -256.12272    35.429222    -220.6935    2561.6111    184831.94    10.472245     1095.678 
   91500   -253.14763    41.468691   -211.67894    2998.2781    198210.99    10.472245    1093.5678 
   91600   -258.91268    37.041244   -221.87144    2678.1639    182185.87    10.472245    1095.7019 
   91700   -256.41821    36.280007    -220.1382    2623.1248    186110.69    10.472245    1095.9535 
   91800   -251.31395    40.433857   -210.88009    2923.4573    203011.46    10.472245    1095.4233 
   91900   -259.26686    35.848406   -223.41846     2591.919    176796.75    10.472245    1096.8144 
   92000   -253.76158    37.406206   -216.35537    2704.5514    195202.93    10.472245    1094.3631 
   92100   -258.51091    42.318403   -216.19251    3059.7141    182792.71    10.472245     1097.188 
   92200   -258.10092    34.004196   -224.09673    2458.5786    178163.43    10.472245    1107.2766 
   92300   -253.80767    37.490628   -216.31704    2710.6553     197841.5    10.472245    1110.2837 
   92400   -258.11767    44.202758   -213.91492    3195.9571    184560.71    10.472245    1114.5291 
   92500   -259.07504     35.95219   -223.12285    2599.4228    177662.21    10.472245    1112.0478 
   92600   -255.66108    39.450744   -216.21034    2852.3761    187210.38    10.472245    1110.6265 
   92700   -254.61792    41.448365   -213.16955    2996.8084    194085.04    10.472245    1106.9226 
   92800   -257.70216    34.191164     -223.511    2472.0968    177709.64    10.472245    1114.3444 
   92900   -253.78661     36.85198   -216.93463    2664.4797    193480.19    10.472245    1113.1252 
   93000   -253.77369    37.815102   -215.95859    2734.1155    196971.78    10.472245    1115.6679 
   93100   -258.82746    34.186942   -224.64052    2471.7915    179013.84    10.472245    1115.2205 
   93200   -257.81308    37.179562   -220.63351    2688.1646    180155.34    10.472245    1126.4036 
   93300   -260.41401    41.712866   -218.70115    3015.9325    177353.14    10.472245     1127.071 
   93400   -260.75559    32.908116   -227.84747    2379.3296    168699.28    10.472245    1131.4671 
   93500   -251.48873    32.336235   -219.15249    2337.9813    199156.61    10.472245    1134.4619 
   93600   -259.51088    42.250115   -217.26076    3054.7768    184299.57    10.472245    1138.8017 
   93700   -259.10692    33.540448   -225.56648    2425.0486    178273.15    10.472245    1135.1249 
   93800   -257.32982    36.726176   -220.60364    2655.3837    181286.73    10.472245    1144.0107 
   93900   -253.52775    38.643239   -214.88451    2793.9916    195149.05    10.472245    1145.6686 
   94000   -255.32982    35.217257   -220.11256    2546.2856    188247.67    10.472245    1140.3279 
   94100   -253.64256      35.2783   -218.36426    2550.6992    197923.45    10.472245    1141.8087 
   94200   -256.69628     41.79417   -214.90211     3021.811     191208.8    10.472245    1143.3872 
   94300   -256.42509     37.33158   -219.09351    2699.1558    188445.43    10.472245    1149.3286 
   94400   -258.07285    33.665571   -224.40728    2434.0952    179244.17    10.472245    1153.1668 
   94500   -252.48649    39.171075   -213.31541    2832.1554    198888.33    10.472245    1155.3607 
   94600   -257.63414    36.206546   -221.42759    2617.8133    184604.43    10.472245    1157.5783 
   94700   -252.36119    40.277609   -212.08358    2912.1602    198202.46    10.472245    1157.7375 
   94800   -255.45265    37.657209   -217.79544    2722.6995    192054.54    10.472245    1157.2635 
   94900   -257.95646    35.239069   -222.71739    2547.8627    179664.32    10.472245    1158.4334 
   95000    -258.2945    36.163926   -222.13058    2614.7318    176122.39    10.472245    1152.0161 
   95100   -253.01649    36.954051   -216.06244    2671.8596    192552.63    10.472245    1160.0717 
   95200   -258.08762    33.419713   -224.66791    2416.3192    183854.17    10.472245    1154.4484 
   95300    -257.3642    41.349894   -216.01431    2989.6888    186987.75    10.472245      1153.74 
   95400   -255.49192    36.809125   -218.68279    2661.3811    188505.36    10.472245    1153.2785 
   95500   -259.28326    35.296918   -223.98634    2552.0452    177811.66    10.472245    1148.7044 
   95600   -254.33828    40.691662   -213.64662    2942.0972    195812.79    10.472245    1145.8925 
   95700   -256.57902    38.180719    -218.3983    2760.5504    187913.65    10.472245    1143.4015 
   95800    -257.4477    35.313113   -222.13459    2553.2162    180552.44    10.472245    1146.6871 
   95900   -254.16052    35.808747   -218.35178    2589.0516    193010.92    10.472245    1149.0721 
   96000    -253.8076     34.17931   -219.62829    2471.2397    190552.96    10.472245    1152.1281 
   96100   -259.16157    36.022381   -223.13919    2604.4978     178975.5    10.472245    1146.4112 
   96200   -252.56549    36.910497   -215.65499    2668.7106    198496.23    10.472245    1152.8853 
   96300   -258.63456     38.20227   -220.43229    2762.1086     181418.5    10.472245    1159.0726 
   96400   -264.42552    31.486505   -232.93902     2276.544    161687.79    10.472245    1164.1602 
   96500    -259.7253    34.039076   -225.68623    2461.1005    177449.84    10.472245    1159.5089 
   96600   -254.88971    37.251704     -217.638    2693.3806    190331.09    10.472245    1159.3006 
   96700   -256.16116    39.786806   -216.37435    2876.6741    190159.13    10.472245    1166.5722 
   96800   -261.06548    36.375301   -224.69018    2630.0147    171882.57    10.472245    1167.1302 
   96900   -255.41975    38.883741   -216.53601    2811.3805    188472.75    10.472245    1167.7578 
   97000   -254.44123    34.756247   -219.68498    2512.9535    190200.16    10.472245      1172.85 
   97100   -258.03442    39.177387   -218.85704    2832.6118    184510.49    10.472245    1177.3607 
   97200   -254.42356    33.460299   -220.96326    2419.2536    189330.56    10.472245    1180.8494 
   97300   -261.36166    37.217838   -224.14383     2690.932    173487.51    10.472245    1183.5433 
   97400   -251.69936    37.344248   -214.35512    2700.0717    201203.46    10.472245    1186.8602 
   97500    -258.0824    37.396439   -220.68596    2703.8452    179673.89    10.472245     1193.023 
   97600   -256.89567    36.194457   -220.70121    2616.9393    184565.77    10.472245    1191.7304 
   97700   -252.97813    41.986094   -210.99204    3035.6874    205168.47    10.472245    1200.3233 
   97800   -256.16932    38.499956   -217.66937     2783.632    186380.71    10.472245    1196.9162 
   97900   -257.86907    37.209119   -220.65995    2690.3016    181386.09    10.472245    1197.1243 
   98000   -255.85147    41.843601   -214.00787    3025.3849    188703.65    10.472245    1195.6431 
   98100   -249.55474    34.940319   -214.61442    2526.2624    202545.94    10.472245    1200.8993 
   98200   -257.77543    34.363172   -223.41225    2484.5334    177314.53    10.472245    1201.1615 
   98300   -253.48695    38.640975   -214.84597    2793.8279    194062.63    10.472245    1203.9435 
   98400   -255.91332    40.342082   -215.57123    2916.8218    193756.47    10.472245    1202.7695 
   98500   -260.07124    42.462683   -217.60856    3070.1459    183403.31    10.472245    1199.4432 
   98600    -263.1638    36.062199    -227.1016    2607.3767    165180.95    10.472245    1204.4531 
   98700   -262.92632    39.901656   -223.02466     2884.978    169182.56    10.472245    1201.7101 
   98800   -254.04763    33.234645   -220.81298    2402.9383    188172.22    10.472245    1208.1676 
   98900    -255.9809    42.264457   -213.71644    3055.8137    189428.33    10.472245    1209.5122 
   99000   -251.23207    34.445933   -216.78614    2490.5171    201701.36    10.472245    1217.7437 
   99100   -255.80542     34.22705   -221.57837    2474.6915    188366.49    10.472245     1216.612 
   99200   -253.59235    36.653212   -216.93914    2650.1083    192982.31    10.472245    1220.9959 
   99300   -257.14889    39.115393    -218.0335    2828.1294    186511.77    10.472245    1225.9222 
   99400   -258.28643    30.618281   -227.66815    2213.7695    175657.37    10.472245    1229.5323 
   99500   -258.69752     38.27441   -220.42311    2767.3245    183106.74    10.472245    1227.2564 
   99600   -253.94465    36.656429   -217.28822    2650.3409    193847.44    10.472245    1238.7205 
   99700   -255.69751    40.216126   -215.48139    2907.7149    194819.29    10.472245    1239.6705 
   99800   -258.79098    34.218215   -224.57277    2474.0526    179212.29    10.472245    1243.6952 
   99900   -256.87627    40.280796   -216.59547    2912.3907    183018.34    10.472245    1250.3576 
  100000    -249.2938    45.809987   -203.48381    3312.1634    210021.14    10.472245    1248.9369 
Loop time of 31.5556 on 1 procs for 100000 steps with 108 atoms

Performance: 1369.013 ns/day, 0.018 hours/ns, 3169.012 timesteps/s
100.0% CPU use with 1 MPI tasks x no OpenMP threads

MPI task timing breakdown:
Section |  min time  |  avg time  |  max time  |%varavg| %total
---------------------------------------------------------------
Pair    | 18.563     | 18.563     | 18.563     |   0.0 | 58.83
Neigh   | 1.5199     | 1.5199     | 1.5199     |   0.0 |  4.82
Comm    | 0.5693     | 0.5693     | 0.5693     |   0.0 |  1.80
Output  | 0.018291   | 0.018291   | 0.018291   |   0.0 |  0.06
Modify  | 10.801     | 10.801     | 10.801     |   0.0 | 34.23
Other   |            | 0.08388    |            |       |  0.27

Nlocal:    108 ave 108 max 108 min
Histogram: 1 0 0 0 0 0 0 0 0 0
Nghost:    1091 ave 1091 max 1091 min
Histogram: 1 0 0 0 0 0 0 0 0 0
Neighs:    5648 ave 5648 max 5648 min
Histogram: 1 0 0 0 0 0 0 0 0 0

Total # of neighbors = 5648
Ave neighs/atom = 52.2963
Neighbor list builds = 6565
Dangerous builds = 37
Total wall time: 0:00:31
