LAMMPS (3 Mar 2020)
Reading data file ...
  orthogonal box = (0 0 0) to (17.469 17.469 17.469)
  1 by 1 by 1 MPI processor grid
  reading atoms ...
  217 atoms
  read_data CPU = 0.00100987 secs
Reading potential file library.meam with DATE: 2012-06-29
Reading potential file LiSi.meam with DATE: 2020-11-07
1 atoms in group Li
Neighbor list info ...
  update every 1 steps, delay 10 steps, check yes
  max neighbors/atom: 2000, page size: 100000
  master list distance cutoff = 6
  ghost atom cutoff = 6
  binsize = 3, bins = 6 6 6
  2 neighbor lists, perpetual/occasional/extra = 2 0 0
  (1) pair meam/c, perpetual
      attributes: full, newton on
      pair build: full/bin/atomonly
      stencil: full/bin/3d
      bin: standard
  (2) pair meam/c, perpetual, half/full from (1)
      attributes: half, newton on
      pair build: halffull/newton
      stencil: none
      bin: none
Setting up Verlet run ...
  Unit style    : metal
  Current step  : 0
  Time step     : 0.005
Per MPI rank memory allocation (min/avg/max) = 9.266 | 9.266 | 9.266 Mbytes
Step PotEng KinEng TotEng Temp Press Density c_msdli[4] 
       0   -951.06911     33.50423   -917.56488         1200   -117538.78    1.8918427            0 
     100   -928.41886    22.798453   -905.62041    816.55791   -93703.891    1.8918427  0.030397353 
     200   -920.67039    31.704004   -888.96638    1135.5224   -85753.071    1.8918427  0.074916122 
     300   -919.60872    39.865507   -879.74321    1427.8379   -82722.685    1.8918427    0.1015662 
     400   -917.48047    30.292329   -887.18814    1084.9614   -85007.477    1.8918427  0.020488259 
     500   -918.55673    31.100224    -887.4565    1113.8972   -82736.516    1.8918427  0.004642916 
     600   -918.20594    36.602903   -881.60303    1310.9832   -82627.556    1.8918427  0.040838581 
     700   -918.44717    32.287563   -886.15961    1156.4234   -83333.667    1.8918427  0.094858414 
     800   -919.24919    32.037942   -887.21125    1147.4829   -83898.578    1.8918427  0.065063281 
     900   -915.62379    33.869242   -881.75455    1213.0734   -81068.358    1.8918427   0.15421963 
    1000   -918.48664    33.658278   -884.82837    1205.5175   -84055.336    1.8918427   0.13768018 
    1100   -920.10817    34.802426   -885.30574    1246.4967   -84296.998    1.8918427  0.013749399 
    1200    -919.7433    36.760043   -882.98326    1316.6114     -83978.8    1.8918427  0.032363491 
    1300   -917.74206    34.662822   -883.07923    1241.4966   -84002.213    1.8918427   0.10262066 
    1400   -918.81493    31.166528    -887.6484     1116.272   -83524.411    1.8918427   0.10314769 
    1500   -917.14753    33.318481   -883.82905    1193.3472   -83108.026    1.8918427   0.36072379 
    1600   -916.19624     32.31886   -883.87738    1157.5444   -79379.551    1.8918427   0.18278997 
    1700   -919.54939    32.671432   -886.87796    1170.1722   -84802.348    1.8918427  0.015701379 
    1800   -916.19943     30.41605   -885.78338    1089.3926   -80728.372    1.8918427  0.020921859 
    1900   -915.63051    34.206429   -881.42408    1225.1502    -80421.09    1.8918427  0.041692958 
    2000   -917.25549    29.610796    -887.6447    1060.5513   -83836.974    1.8918427   0.25708255 
    2100   -919.87191    34.760213    -885.1117    1244.9848   -86247.897    1.8918427    0.1500851 
    2200   -918.40152    36.357989   -882.04354    1302.2113    -82935.93    1.8918427   0.22606684 
    2300   -919.39873     32.41419   -886.98454    1160.9587   -84501.935    1.8918427   0.31890274 
    2400   -917.46364    31.397033   -886.06661    1124.5278   -84997.187    1.8918427  0.075235547 
    2500   -916.35103    34.351545   -881.99949    1230.3477   -82350.456    1.8918427    5.4473373 
    2600   -915.82289    30.585103   -885.23779    1095.4475   -82616.409    1.8918427    6.9022158 
    2700   -918.15891    32.791515   -885.36739    1174.4732   -84944.301    1.8918427    6.5052493 
    2800   -918.98907    33.985888   -885.00318    1217.2513   -84335.198    1.8918427    5.8938065 
    2900    -921.0242    36.175409   -884.84879     1295.672   -86999.199    1.8918427    6.3268762 
    3000   -917.92749    34.906577   -883.02092     1250.227   -83432.393    1.8918427    9.9037384 
    3100   -917.21271    33.130041   -884.08267    1186.5979   -83572.315    1.8918427    4.8812677 
    3200   -921.40801    33.249215   -888.15879    1190.8663   -86274.367    1.8918427    6.6623247 
    3300   -915.49833    34.769166   -880.72916    1245.3054   -80136.054    1.8918427    7.0042608 
    3400   -918.55704    33.494717   -885.06233    1199.6593    -83237.47    1.8918427    6.0581901 
    3500   -920.50352    33.616129   -886.88739    1204.0078    -85826.05    1.8918427    4.7977372 
    3600   -914.31802    34.172528   -880.14549     1223.936   -80026.932    1.8918427    6.8728709 
    3700   -919.75964    34.099559   -885.66009    1221.3225   -84847.425    1.8918427    6.3483774 
    3800   -920.52254    34.825267   -885.69727    1247.3148    -84651.13    1.8918427    5.9966368 
    3900   -915.02696    36.835555    -878.1914     1319.316   -80109.899    1.8918427    6.0702836 
    4000   -915.88367    32.277046   -883.60663    1156.0467    -79611.01    1.8918427     6.722803 
    4100   -918.04261    31.788999   -886.25361    1138.5667   -82112.053    1.8918427    5.8645776 
    4200   -920.62289    35.834581   -884.78831    1283.4647   -84540.535    1.8918427     6.999154 
    4300   -916.29948    34.610678    -881.6888     1239.629   -80032.326    1.8918427    7.1437553 
    4400   -920.61227    32.742469    -887.8698    1172.7165   -84691.636    1.8918427    6.0217216 
    4500   -920.03619    35.670022   -884.36617    1277.5708   -83110.303    1.8918427    6.3668387 
    4600   -915.92927    35.984449   -879.94482    1288.8325   -80297.545    1.8918427    6.3377267 
    4700   -915.51646    31.226941   -884.28952    1118.4358   -81812.667    1.8918427    6.0953914 
    4800   -918.93921    32.153532   -886.78567    1151.6229   -83836.295    1.8918427    5.6595577 
    4900   -916.54131    36.388332   -880.15298    1303.2981   -80985.772    1.8918427     6.117262 
    5000   -919.45637    35.178653   -884.27772    1259.9718   -83257.833    1.8918427    7.8391848 
Loop time of 2.70391 on 1 procs for 5000 steps with 217 atoms

Performance: 798.842 ns/day, 0.030 hours/ns, 1849.171 timesteps/s
99.9% CPU use with 1 MPI tasks x no OpenMP threads

MPI task timing breakdown:
Section |  min time  |  avg time  |  max time  |%varavg| %total
---------------------------------------------------------------
Pair    | 2.6238     | 2.6238     | 2.6238     |   0.0 | 97.04
Neigh   | 0.029626   | 0.029626   | 0.029626   |   0.0 |  1.10
Comm    | 0.021481   | 0.021481   | 0.021481   |   0.0 |  0.79
Output  | 0.0014268  | 0.0014268  | 0.0014268  |   0.0 |  0.05
Modify  | 0.021178   | 0.021178   | 0.021178   |   0.0 |  0.78
Other   |            | 0.006427   |            |       |  0.24

Nlocal:    217 ave 217 max 217 min
Histogram: 1 0 0 0 0 0 0 0 0 0
Nghost:    902 ave 902 max 902 min
Histogram: 1 0 0 0 0 0 0 0 0 0
Neighs:    3628 ave 3628 max 3628 min
Histogram: 1 0 0 0 0 0 0 0 0 0
FullNghs:  7256 ave 7256 max 7256 min
Histogram: 1 0 0 0 0 0 0 0 0 0

Total # of neighbors = 7256
Ave neighs/atom = 33.4378
Neighbor list builds = 54
Dangerous builds = 2
Total wall time: 0:00:02
