LAMMPS (3 Mar 2020)
Reading data file ...
  orthogonal box = (0 0 0) to (16.36 16.36 16.36)
  1 by 1 by 1 MPI processor grid
  reading atoms ...
  256 atoms
  read_data CPU = 0.00103374 secs
Reading potential file /usr/share/lammps-stable/potentials/Ag_u3.eam with DATE: 2007-06-11
Neighbor list info ...
  update every 1 steps, delay 10 steps, check yes
  max neighbors/atom: 2000, page size: 100000
  master list distance cutoff = 7.55
  ghost atom cutoff = 7.55
  binsize = 3.775, bins = 5 5 5
  2 neighbor lists, perpetual/occasional/extra = 1 1 0
  (1) pair eam, perpetual
      attributes: half, newton on
      pair build: half/bin/atomonly/newton
      stencil: half/bin/3d/newton
      bin: standard
  (2) compute rdf, occasional, copy from (1)
      attributes: half, newton on
      pair build: copy
      stencil: none
      bin: none
Setting up Verlet run ...
  Unit style    : metal
  Current step  : 0
  Time step     : 0.001
Per MPI rank memory allocation (min/avg/max) = 3.744 | 3.744 | 3.744 Mbytes
Step PotEng KinEng TotEng Temp Press Density c_msdall[4] 
       0       -729.6    44.168192   -685.43181         1340    10773.988    10.472245            0 
     100   -703.07855    27.393322   -675.68523    831.07436    44797.918    10.472245  0.077697917 
     200   -692.76871     39.68472   -653.08399    1203.9779    63112.603    10.472245   0.10244481 
     300   -680.56572    46.551286   -634.01444    1412.2997     79784.21    10.472245   0.13610856 
     400   -678.27242    45.031303   -633.24112    1366.1856    83334.566    10.472245   0.13141695 
     500   -689.57464    42.890034    -646.6846    1301.2225    67517.507    10.472245  0.095542173 
     600   -690.07681    42.040654   -648.03616    1275.4535    66932.934    10.472245  0.088575905 
     700   -686.32651    48.679477   -637.64703     1476.866    73784.946    10.472245  0.099623839 
     800   -684.06938    41.990005   -642.07937    1273.9169    74881.854    10.472245   0.12167131 
     900   -687.26127     46.66138   -640.59989    1415.6398    71451.606    10.472245   0.12407461 
    1000   -683.98432    46.317751   -637.66657    1405.2146    77080.401    10.472245   0.12434278 
    1100   -686.05235    45.884657    -640.1677    1392.0751    73716.276    10.472245   0.10199904 
    1200   -686.24679    41.874144   -644.37265    1270.4019    72210.587    10.472245   0.10233873 
    1300   -683.12714      42.4172   -640.70994    1286.8774    76903.447    10.472245   0.11284726 
    1400   -680.07105    43.377231   -636.69381    1316.0034    81466.404    10.472245   0.12468495 
    1500   -688.40528    44.734017   -643.67126    1357.1663    70294.691    10.472245   0.10133671 
    1600   -689.05354    45.773665   -643.27987    1388.7078    69815.224    10.472245  0.086619213 
    1700   -688.82657    43.209526   -645.61705    1310.9154    69199.494    10.472245  0.095909386 
    1800   -684.69927    45.330472    -639.3688    1375.2619    75819.512    10.472245   0.10624147 
    1900   -682.78829    46.044929   -636.74336    1396.9375    78119.274    10.472245   0.10837714 
    2000    -689.1861    42.775745   -646.41035    1297.7552    69270.501    10.472245  0.093667087 
    2100   -686.77067    43.986795   -642.78388    1334.4967    71760.576    10.472245   0.10064386 
    2200   -685.01933    46.521582   -638.49775    1411.3985    74381.427    10.472245   0.11279964 
    2300   -686.06696    47.386344   -638.68061    1437.6342    73696.864    10.472245   0.10082938 
    2400   -686.72802    41.770821    -644.9572    1267.2672    71742.301    10.472245  0.098311311 
    2500   -684.15803     43.13024   -641.02779      1308.51    76184.614    10.472245   0.10087751 
    2600   -685.20763    43.179756   -642.02787    1310.0123    74361.197    10.472245  0.098934834 
    2700   -686.18714    44.916634   -641.27051    1362.7067    72531.513    10.472245   0.10062353 
    2800   -682.76936    46.673669   -636.09569    1416.0126    78250.711    10.472245   0.10802084 
    2900   -687.34792      44.6954   -642.65252    1355.9948    71455.557    10.472245   0.10403141 
    3000   -686.13768    42.658314   -643.47937    1294.1925    72578.941    10.472245   0.10305479 
    3100   -680.98598    44.828164   -636.15782    1360.0226    80824.258    10.472245   0.10605339 
    3200   -680.60058    43.932395   -636.66818    1332.8463    80898.774    10.472245   0.11286519 
    3300   -685.73959    42.284928   -643.45466    1282.8645    72581.336    10.472245    0.1109035 
    3400    -685.9728    44.570332   -641.40246    1352.2004     73595.04    10.472245   0.10892493 
    3500   -681.09434    44.430807   -636.66353    1347.9674     79728.38    10.472245   0.11261861 
    3600   -686.65735    41.850863   -644.80649    1269.6956    72680.583    10.472245  0.099025283 
    3700   -689.18877    45.050307   -644.13847    1366.7621    68541.892    10.472245  0.089828405 
    3800   -687.30637    39.191705   -648.11467    1189.0205    70382.879    10.472245   0.10567994 
    3900   -683.48697    43.775173   -639.71179    1328.0764    75647.988    10.472245   0.11506315 
    4000    -682.7261    43.287081   -639.43901    1313.2684    77727.076    10.472245   0.11848362 
    4100   -686.13689    43.840053   -642.29684    1330.0447    73369.316    10.472245   0.10097244 
    4200   -688.65342    43.017367   -645.63606    1305.0856    69602.323    10.472245  0.092661602 
    4300   -683.77541    47.584368   -636.19104    1443.6419    77392.002    10.472245   0.10436122 
    4400   -685.83199     46.70768   -639.12431    1417.0445    74118.696    10.472245   0.11252691 
    4500   -686.71792    44.566711   -642.15121    1352.0905    72377.487    10.472245   0.10882709 
    4600   -687.28953    45.178456   -642.11107      1370.65    71194.291    10.472245   0.09887028 
    4700   -686.84452    44.887254   -641.95727    1361.8153    72738.005    10.472245  0.095048737 
    4800   -686.56974    46.079128   -640.49061    1397.9751     73315.45    10.472245  0.098460592 
    4900   -689.05797    42.837292   -646.22068    1299.6224    69193.697    10.472245   0.10253365 
    5000   -680.29396    42.684617   -637.60935    1294.9905    80130.981    10.472245   0.12078421 
    5100   -683.91241    44.875363   -639.03705    1361.4546    75583.193    10.472245   0.12224052 
    5200   -689.31219    45.229277   -644.08291    1372.1918    68271.587    10.472245   0.10293858 
    5300    -689.8813    41.162026   -648.71928    1248.7972    66635.268    10.472245  0.097679528 
    5400   -682.57202    40.685018     -641.887    1234.3255    77088.387    10.472245   0.11393665 
    5500   -686.72906    46.267518   -640.46155    1403.6906    72932.673    10.472245   0.11868683 
    5600   -685.09972    44.976794   -640.12292    1364.5318    73349.098    10.472245   0.13441385 
    5700   -683.99166    45.515232   -638.47642    1380.8673    75944.702    10.472245   0.12051717 
    5800   -689.42892    41.874086   -647.55483    1270.4001    68058.512    10.472245  0.098704897 
    5900   -687.06235    42.089162   -644.97319    1276.9252    71593.445    10.472245  0.098105648 
    6000   -684.59663     44.84283    -639.7538    1360.4676    74863.141    10.472245    0.1174387 
    6100   -685.66181    48.520207    -637.1416    1472.0339    74630.209    10.472245   0.11701076 
    6200   -686.24346    46.087218   -640.15624    1398.2205    73973.649    10.472245   0.10242653 
    6300   -686.75771    43.836003   -642.92171    1329.9219    72215.488    10.472245  0.093139862 
    6400   -686.71903    42.213239   -644.50579    1280.6895    71369.194    10.472245   0.10422616 
    6500   -681.34388     44.67073   -636.67315    1355.2463    79684.822    10.472245   0.11598719 
    6600   -682.95672    43.786674   -639.17005    1328.4253    77316.867    10.472245   0.10793635 
    6700   -690.13528    43.930709   -646.20457    1332.7951    67764.433    10.472245  0.091227693 
    6800   -686.56178    44.538938   -642.02284    1351.2479    72623.549    10.472245   0.10903853 
    6900   -683.03092    45.386522   -637.64439    1376.9624    77740.773    10.472245   0.12192225 
    7000   -685.28215    42.174078   -643.10807    1279.5014    74371.391    10.472245   0.11518522 
    7100   -686.45605    42.793421   -643.66263    1298.2914    72604.474    10.472245   0.10078548 
    7200    -685.3903    45.177674   -640.21262    1370.6262    75332.268    10.472245  0.097897005 
    7300   -681.96218    45.779004   -636.18317    1388.8697    79080.751    10.472245   0.11124963 
    7400   -686.19828    44.400367   -641.79791    1347.0439     72291.27    10.472245   0.11718243 
    7500   -685.52497    43.821566   -641.70341    1329.4839    73561.938    10.472245   0.11495455 
    7600   -685.46459    49.534056   -635.93053    1502.7927    76258.455    10.472245   0.11149212 
    7700   -685.22678    43.544824   -641.68196    1321.0879    73317.677    10.472245   0.11344324 
    7800    -686.8848    49.209709   -637.67509    1492.9524    73529.547    10.472245  0.095043308 
    7900   -686.61524    41.415665   -645.19957    1256.4923    71192.859    10.472245   0.10506194 
    8000   -686.00401    46.278739   -639.72527     1404.031    73997.982    10.472245   0.10009359 
    8100   -685.19844    43.782683   -641.41576    1328.3042    74558.323    10.472245    0.1019483 
    8200   -686.08343     43.74564   -642.33779    1327.1804    74296.552    10.472245   0.10144714 
    8300   -686.82476     46.24164   -640.58312    1402.9055    72846.505    10.472245   0.10728364 
    8400   -683.44443    40.605528    -642.8389    1231.9139    76144.482    10.472245    0.1146585 
    8500   -685.88134    45.503542    -640.3778    1380.5126    73366.168    10.472245    0.1035107 
    8600   -688.36047     43.90956   -644.45091    1332.1535    69804.075    10.472245   0.10016687 
    8700   -685.27852    40.296692   -644.98183    1222.5442    74131.539    10.472245   0.10589444 
    8800   -683.55945    44.461443   -639.09801    1348.8968    77744.105    10.472245   0.10762383 
    8900    -687.2536    42.139135   -645.11447    1278.4413    71114.629    10.472245   0.11121077 
    9000   -687.77111    49.691899   -638.07921    1507.5814    73111.319    10.472245  0.097405983 
    9100   -686.30033    43.644811   -642.65552    1324.1214    73252.984    10.472245  0.097095319 
    9200   -686.87837    42.095271    -644.7831    1277.1105    71687.056    10.472245  0.096041323 
    9300   -687.42349    42.296352   -645.12714    1283.2111    70852.413    10.472245   0.11273658 
    9400   -682.38785    45.442393   -636.94545    1378.6575    78621.535    10.472245   0.12691374 
    9500   -682.02313    41.097757   -640.92538    1246.8474    77081.723    10.472245   0.12549801 
    9600   -689.09224     46.09406   -642.99818    1398.4281    69642.162    10.472245  0.098618784 
    9700   -688.11185    44.664757   -643.44709    1355.0651    70642.046    10.472245    0.1068934 
    9800   -684.83578    47.950934   -636.88485     1454.763    75413.745    10.472245   0.12163033 
    9900   -682.23731    41.368296   -640.86901    1255.0552    78038.605    10.472245   0.12558386 
   10000   -687.96488    42.345266   -645.61962     1284.695    69696.564    10.472245   0.10793236 
Loop time of 5.0198 on 1 procs for 10000 steps with 256 atoms

Performance: 172.118 ns/day, 0.139 hours/ns, 1992.111 timesteps/s
100.0% CPU use with 1 MPI tasks x no OpenMP threads

MPI task timing breakdown:
Section |  min time  |  avg time  |  max time  |%varavg| %total
---------------------------------------------------------------
Pair    | 3.3509     | 3.3509     | 3.3509     |   0.0 | 66.75
Neigh   | 0          | 0          | 0          |   0.0 |  0.00
Comm    | 0.062181   | 0.062181   | 0.062181   |   0.0 |  1.24
Output  | 0.0027199  | 0.0027199  | 0.0027199  |   0.0 |  0.05
Modify  | 1.5881     | 1.5881     | 1.5881     |   0.0 | 31.64
Other   |            | 0.01589    |            |       |  0.32

Nlocal:    256 ave 256 max 256 min
Histogram: 1 0 0 0 0 0 0 0 0 0
Nghost:    1431 ave 1431 max 1431 min
Histogram: 1 0 0 0 0 0 0 0 0 0
Neighs:    11008 ave 11008 max 11008 min
Histogram: 1 0 0 0 0 0 0 0 0 0

Total # of neighbors = 11008
Ave neighs/atom = 43
Neighbor list builds = 0
Dangerous builds = 0
Total wall time: 0:00:05
