LAMMPS (3 Mar 2020)

# ---------- 1. Initialize simulation ----------
units metal
atom_style atomic
dimension 3
boundary p p p
read_data /home/modeler/RemLabs/Project/eval_timestep_nvt/n3_T1800_timestep5.644189e-04_steps26577/20201205-224922/lammps.data
  orthogonal box = (0 0 0) to (17.469 17.469 17.469)
  1 by 1 by 1 MPI processor grid
  reading atoms ...
  217 atoms
  read_data CPU = 0.000991062 secs

pair_style meam/c
pair_coeff * * library.meam Li Si LiSi.meam Li Si
Reading potential file library.meam with DATE: 2012-06-29
Reading potential file LiSi.meam with DATE: 2020-11-07

group Li type 1
1 atoms in group Li

velocity all create 1800 3320 dist gaussian

# ---------- 2. Describe computed properties----------
compute msdli Li msd
thermo_style custom step pe ke etotal temp press density c_msdli[4]
thermo 100

# ---------- 3. Specify ensemble  ----------
# fix 1 all npt temp 1800 1800 0.028220947292117233 tchain 2 iso 1.0 1.0 1.0 pchain 2
fix 1 all nvt temp 1800 1800 0.028220947292117233
# fix 1 all nve

# ---------- 4. Run -------------
timestep 0.0005644189458423447
run 26577
Neighbor list info ...
  update every 1 steps, delay 10 steps, check yes
  max neighbors/atom: 2000, page size: 100000
  master list distance cutoff = 6
  ghost atom cutoff = 6
  binsize = 3, bins = 6 6 6
  2 neighbor lists, perpetual/occasional/extra = 2 0 0
  (1) pair meam/c, perpetual
      attributes: full, newton on
      pair build: full/bin/atomonly
      stencil: full/bin/3d
      bin: standard
  (2) pair meam/c, perpetual, half/full from (1)
      attributes: half, newton on
      pair build: halffull/newton
      stencil: none
      bin: none
Per MPI rank memory allocation (min/avg/max) = 9.27 | 9.27 | 9.27 Mbytes
Step PotEng KinEng TotEng Temp Press Density c_msdli[4] 
       0   -951.04357    50.256344   -900.78722         1800   -114161.75    1.8918427            0 
     100   -915.02396     27.95187   -887.07209    1001.1346   -82735.002    1.8918427   0.18442085 
     200   -906.14824    44.720047    -861.4282    1601.7099   -63586.287    1.8918427   0.17796698 
     300   -895.23424    52.191664   -843.04258    1869.3161    -54449.83    1.8918427   0.23233568 
     400   -905.54335    50.189763   -855.35359    1797.6153   -65698.368    1.8918427   0.31378431 
     500   -908.63728    50.591804   -858.04548    1812.0149   -68710.973    1.8918427   0.21580671 
     600    -904.0772    52.058381   -852.01882    1864.5424    -62890.49    1.8918427   0.31994265 
     700   -898.24937    49.642934   -848.60644    1778.0299   -58060.267    1.8918427   0.35191011 
     800   -907.30043    50.193046   -857.10739    1797.7329   -67783.927    1.8918427  0.085368958 
     900   -904.55549    51.504901   -853.05059    1844.7188   -63763.256    1.8918427  0.084465264 
    1000   -902.75164    49.104206   -853.64744    1758.7346   -63687.439    1.8918427    0.1415517 
    1100   -905.39498    44.771984   -860.62299    1603.5701   -65734.627    1.8918427   0.12036359 
    1200   -897.96177    48.721642   -849.24013    1745.0325   -58106.199    1.8918427  0.032461924 
    1300    -903.2605     50.27092   -852.98958     1800.522   -63019.814    1.8918427   0.18024514 
    1400   -903.25283    47.475325    -855.7775     1700.394   -64310.927    1.8918427  0.015242736 
    1500   -898.90969    53.357036   -845.55266    1911.0555   -60782.086    1.8918427 0.0093898039 
    1600   -908.60955    54.886509   -853.72304    1965.8357   -70198.791    1.8918427   0.12078331 
    1700   -905.86977    55.124606   -850.74517    1974.3635   -64628.805    1.8918427  0.010042006 
    1800   -904.37148    45.808321   -858.56316    1640.6879   -65926.074    1.8918427   0.14406612 
    1900   -901.47415    44.738238   -856.73591    1602.3614    -64450.47    1.8918427    0.0192145 
    2000    -902.7805    51.278466   -851.50204    1836.6087   -63294.827    1.8918427   0.10434826 
    2100   -903.13318     45.30833   -857.82485    1622.7801   -63324.648    1.8918427  0.041087653 
    2200   -905.09336    47.081901   -858.01146    1686.3029   -66654.592    1.8918427   0.25967728 
    2300   -900.51782    48.739951   -851.77787    1745.6883   -60451.828    1.8918427   0.10238398 
    2400   -903.53951     48.58915   -854.95036    1740.2871    -64964.11    1.8918427   0.13187514 
    2500   -907.31099    46.408633   -860.90236    1662.1889   -68158.785    1.8918427  0.055570966 
    2600   -904.99436      52.4446   -852.54976    1878.3754   -63884.092    1.8918427   0.06527561 
    2700   -903.14745    54.510945    -848.6365    1952.3844   -67250.413    1.8918427  0.037124953 
    2800    -905.5146    50.515659   -854.99894    1809.2877   -67621.586    1.8918427   0.16714052 
    2900    -905.5946    52.367856   -853.22674    1875.6267   -64836.096    1.8918427   0.10435312 
    3000   -904.54185    56.005824   -848.53602    2005.9255   -64286.358    1.8918427    0.2572522 
    3100   -905.37967    49.953208   -855.42646    1789.1428   -67494.177    1.8918427  0.065504143 
    3200    -908.8609    55.876192    -852.9847    2001.2826   -67138.034    1.8918427   0.32905464 
    3300   -903.02283    51.825076   -851.19776    1856.1863   -63674.946    1.8918427    0.1266137 
    3400   -901.81953    46.186826    -855.6327    1654.2446   -65527.968    1.8918427  0.058189334 
    3500   -904.65519    53.923804   -850.73139    1931.3551   -64681.971    1.8918427  0.035583638 
    3600   -905.72809    45.162977   -860.56512     1617.574    -68806.98    1.8918427   0.24838641 
    3700   -904.07186    47.722691   -856.34917    1709.2537   -68240.063    1.8918427   0.12047278 
    3800   -902.18546    51.282323   -850.90314    1836.7468   -62688.283    1.8918427  0.012686098 
    3900   -900.01589    56.409723   -843.60617    2020.3917   -58787.012    1.8918427   0.12017211 
    4000   -902.94023    49.414955   -853.52527    1769.8645   -65824.627    1.8918427  0.093835052 
    4100   -902.17612    44.585769   -857.59035    1596.9005   -63591.662    1.8918427  0.082918281 
    4200   -903.39445    53.455746    -849.9387     1914.591   -63921.746    1.8918427 0.0023260749 
    4300   -903.73919    48.500941   -855.23825    1737.1278   -65194.432    1.8918427   0.22025594 
    4400   -902.21685    46.715129   -855.50172    1673.1665   -64883.976    1.8918427   0.17646767 
    4500   -902.73181    54.598317   -848.13349    1955.5137   -62674.628    1.8918427  0.049206599 
    4600   -905.96288    49.980945   -855.98194    1790.1362   -68132.902    1.8918427  0.092556648 
    4700   -901.63559    52.726255   -848.90934    1888.4632   -65566.622    1.8918427    0.1177018 
    4800   -900.42978    50.066283    -850.3635    1793.1927   -64815.341    1.8918427   0.79856072 
    4900   -902.39968     49.05486   -853.34482    1756.9672    -65185.18    1.8918427     1.985008 
    5000   -903.71525    42.843421   -860.87183     1534.496   -67185.029    1.8918427    5.0314938 
    5100   -906.49649    51.748073   -854.74842    1853.4283   -67614.877    1.8918427     7.140316 
    5200   -901.69517    53.923841   -847.77133    1931.3564   -63280.706    1.8918427    6.7507798 
    5300   -904.36094     51.84749   -852.51345    1856.9891   -68826.315    1.8918427    4.7114751 
    5400   -904.69306    46.738094   -857.95496     1673.989   -67792.079    1.8918427    3.2645004 
    5500   -897.57251     51.51716   -846.05535    1845.1578   -58324.048    1.8918427     7.664525 
    5600   -901.61843    49.145267   -852.47317    1760.2052   -63839.438    1.8918427    5.9003358 
    5700   -907.96803    53.235561   -854.73247    1906.7047   -70224.476    1.8918427    6.8684137 
    5800   -906.75677    46.871857   -859.88491      1678.78   -68477.525    1.8918427    6.3691688 
    5900   -900.31784    45.871316   -854.44653    1642.9442   -63957.675    1.8918427    6.3371308 
    6000   -900.57543    50.343255   -850.23217    1803.1128   -63431.406    1.8918427    6.8041766 
    6100    -904.9086    46.388099    -858.5205    1661.4535   -67335.323    1.8918427    5.8618572 
    6200   -903.14113    48.717751   -854.42338    1744.8932   -66922.541    1.8918427    5.9350056 
    6300   -901.85939    51.651009   -850.20838    1849.9518   -65777.445    1.8918427    5.7812309 
    6400   -903.11775    53.762623   -849.35513    1925.5822   -64672.615    1.8918427    5.9927872 
    6500   -903.76249    51.109507   -852.65298    1830.5572   -65821.001    1.8918427    6.4374714 
    6600   -905.95936    47.561378   -858.39798    1703.4761   -70383.278    1.8918427    9.0843742 
    6700   -903.68572    50.545304   -853.14042    1810.3495   -65901.127    1.8918427    9.2377625 
    6800   -900.82146    49.862023   -850.95944    1785.8768   -64621.621    1.8918427    6.6658292 
    6900   -901.69021    45.107683   -856.58252    1615.5936    -63988.33    1.8918427    5.4595946 
    7000    -901.5055    47.260047   -854.24545    1692.6835    -65942.98    1.8918427    4.0297242 
    7100   -902.10562    54.592339   -847.51328    1955.2996   -62932.737    1.8918427    6.0787371 
    7200   -899.54076    50.448552   -849.09221    1806.8842   -65952.003    1.8918427    8.1897232 
    7300   -908.38812    52.988011   -855.40011    1897.8384   -70918.576    1.8918427    9.8933719 
    7400   -904.00968    50.016194   -853.99348    1791.3987    -66212.03    1.8918427    7.5343028 
    7500   -901.40979    49.544389    -851.8654    1774.5003   -64266.548    1.8918427    5.7586609 
    7600    -906.7117    48.315614   -858.39609    1730.4901    -71057.16    1.8918427    4.8029696 
    7700   -901.79329    49.730187    -852.0631    1781.1549   -65225.733    1.8918427     5.894058 
    7800   -901.06553    52.222076   -848.84345    1870.4054   -65077.278    1.8918427    5.7746442 
    7900   -905.82828    49.036539   -856.79174     1756.311   -72284.029    1.8918427    7.4382487 
    8000   -906.80852    51.872443   -854.93607    1857.8828   -70659.735    1.8918427    8.2012344 
    8100     -902.351    53.598068   -848.75293    1919.6884    -65402.11    1.8918427    5.6594982 
    8200   -902.50158     50.33026   -852.17132    1802.6474   -68627.834    1.8918427    6.1316487 
    8300   -908.08918    50.111995   -857.97718    1794.8299   -70089.608    1.8918427    5.6179827 
    8400   -903.11863    53.157714   -849.96091    1903.9165   -69102.951    1.8918427    7.3825967 
    8500   -900.94324    47.765051   -853.17819    1710.7709   -66405.617    1.8918427    6.5333701 
    8600   -907.99432    47.008151   -860.98616    1683.6615   -73564.021    1.8918427    7.2429082 
    8700   -906.59204    52.864736    -853.7273    1893.4231   -69015.297    1.8918427     5.799636 
    8800    -900.0636     51.12239   -848.94121    1831.0186   -66120.462    1.8918427     5.774444 
    8900   -906.54048    55.179985    -851.3605    1976.3469   -71176.981    1.8918427    4.8466942 
    9000   -901.67775    51.060687   -850.61706    1828.8087   -64547.704    1.8918427    4.3363243 
    9100    -901.8678    48.314644   -853.55316    1730.4553   -66494.167    1.8918427    5.5981175 
    9200    -900.0583    48.017772   -852.04053    1719.8225   -66275.809    1.8918427    7.9108812 
    9300   -904.21828    52.329264   -851.88902    1874.2445   -68186.732    1.8918427    6.4097054 
    9400   -905.90621    53.468361   -852.43785    1915.0428   -71067.426    1.8918427    6.3861325 
    9500   -901.04821    46.271087   -854.77712    1657.2625   -67777.207    1.8918427    6.2167943 
    9600   -900.40095    53.621761   -846.77919     1920.537   -66475.949    1.8918427    7.9058438 
    9700   -903.42078    47.666495   -855.75428     1707.241   -68142.288    1.8918427    7.7411557 
    9800   -909.08456    43.923299   -865.16126    1573.1733   -75499.072    1.8918427    6.3105054 
    9900   -906.79729    50.331641   -856.46565    1802.6969   -70188.638    1.8918427    5.5240899 
   10000   -901.82346    52.849581   -848.97388    1892.8803   -65787.164    1.8918427    6.4667786 
   10100   -900.69094    50.366237   -850.32471    1803.9359   -66565.632    1.8918427    7.1068618 
   10200   -906.41942    45.160293   -861.25912    1617.4779   -69874.103    1.8918427    8.8163435 
   10300   -904.24816    50.703257   -853.54491    1816.0068   -68791.432    1.8918427    7.3357974 
   10400   -902.24506    55.675705   -846.56935    1994.1018   -67515.923    1.8918427    6.3390711 
   10500   -905.51828    47.388976    -858.1293    1697.3013   -71036.128    1.8918427    9.1470498 
   10600   -906.80648    49.369503   -857.43698    1768.2366   -71041.802    1.8918427    9.4164608 
   10700   -897.79886    50.679546   -847.11932    1815.1576   -62947.389    1.8918427    7.5042618 
   10800   -900.84381    51.357035   -849.48678    1839.4228   -67076.335    1.8918427    8.6024787 
   10900   -906.41132    48.548054   -857.86327    1738.8152   -72331.393    1.8918427    9.9218839 
   11000   -903.43616    52.469372   -850.96678    1879.2626   -66519.198    1.8918427    12.748989 
   11100   -899.91919    45.324902   -854.59428    1623.3736    -65847.58    1.8918427    13.529432 
   11200   -903.10453    55.626414   -847.47811    1992.3364   -63617.582    1.8918427     10.99475 
   11300   -897.97509    46.312961   -851.66213    1658.7623   -64817.498    1.8918427    16.254769 
   11400   -907.76929    48.502997   -859.26629    1737.2015   -71771.854    1.8918427     19.26157 
   11500   -903.48536    50.202712   -853.28265    1798.0791   -66329.182    1.8918427    18.391625 
   11600   -900.98653    50.756488   -850.23005    1817.9133   -64832.064    1.8918427    21.471072 
   11700   -905.72528    49.737462   -855.98782    1781.4155    -68567.74    1.8918427    17.841456 
   11800   -906.61538    52.599712   -854.01567    1883.9309   -69466.295    1.8918427    12.757491 
   11900   -901.78441    50.169388   -851.61502    1796.8855   -67100.225    1.8918427    15.330688 
   12000   -901.40741    52.075336   -849.33208    1865.1497    -64136.66    1.8918427    18.993981 
   12100   -904.93754    47.065903   -857.87164    1685.7299   -69286.222    1.8918427    21.759584 
   12200   -904.77456    46.688689   -858.08587    1672.2195    -69915.47    1.8918427    19.880829 
   12300   -898.65506     49.13452   -849.52054    1759.8203   -61546.707    1.8918427    16.259467 
   12400   -904.47163    49.873698   -854.59793     1786.295   -70540.544    1.8918427    6.6438449 
   12500   -907.98236    48.178445   -859.80392    1725.5772   -71730.527    1.8918427    6.9308294 
   12600   -900.31009    50.007467   -850.30262    1791.0861   -65139.582    1.8918427    4.1786475 
   12700   -897.69824    48.721591   -848.97664    1745.0307   -64394.164    1.8918427    5.6105761 
   12800   -900.90647    45.784272    -855.1222    1639.8266   -65715.005    1.8918427    6.1744815 
   12900   -906.12774    54.384127   -851.74361    1947.8422   -67735.522    1.8918427    6.2378042 
   13000   -903.38446    44.904953    -858.4795    1608.3326   -70927.433    1.8918427    10.068453 
   13100    -901.2859     51.23706   -850.04884    1835.1257    -65672.22    1.8918427    8.1988742 
   13200   -902.58742    52.417224   -850.17019    1877.3949    -68008.35    1.8918427    8.2336592 
   13300   -906.31333    45.478115   -860.83521    1628.8612   -71415.173    1.8918427    7.0768472 
   13400   -902.28541     48.10822   -854.17719     1723.062   -68028.239    1.8918427    5.2106654 
   13500   -899.82828    49.370788   -850.45749    1768.2826   -65814.418    1.8918427    6.8452723 
   13600   -902.09211    49.011402    -853.0807    1755.4107   -64433.847    1.8918427    6.3708378 
   13700   -905.42977    43.580908   -861.84886    1560.9101   -71316.713    1.8918427    4.9252264 
   13800   -898.98718    46.106513   -852.88067    1651.3681   -63643.468    1.8918427    6.2315225 
   13900   -900.02156    51.175795   -848.84576    1832.9314   -63140.901    1.8918427    5.1670377 
   14000   -907.48358    49.362152   -858.12143    1767.9733   -69193.852    1.8918427    5.8876232 
   14100    -904.6709    49.315436   -855.35546    1766.3001   -69410.152    1.8918427    4.9907202 
   14200   -898.39205    48.215439   -850.17662    1726.9022   -63882.627    1.8918427    6.0489731 
   14300   -901.50265    48.052359    -853.4503    1721.0612   -64506.355    1.8918427    5.5272679 
   14400   -906.29689    45.040615   -861.25627    1613.1915   -71905.659    1.8918427    7.7338515 
   14500   -903.97589    51.185909   -852.78998    1833.2936   -68940.371    1.8918427    6.4839595 
   14600   -903.57467    54.792181   -848.78249    1962.4572   -66432.477    1.8918427    7.0691691 
   14700   -902.53005    45.320621   -857.20943    1623.2203   -67605.845    1.8918427    7.6016401 
   14800   -903.24634    49.340152   -853.90619    1767.1853    -67238.07    1.8918427    5.2287099 
   14900   -899.51961    55.818156   -843.70146    1999.2039    -62549.91    1.8918427    5.3308505 
   15000    -904.2637    53.676363   -850.58734    1922.4927   -66839.186    1.8918427    5.8302004 
   15100   -906.29177    49.978217   -856.31355    1790.0385   -73317.494    1.8918427    9.3534396 
   15200   -901.07646    52.447183   -848.62928    1878.4679   -63345.888    1.8918427     9.050804 
   15300   -901.88994    53.962459   -847.92748    1932.7396   -65027.066    1.8918427    11.159115 
   15400   -904.74366    46.796672   -857.94698    1676.0871   -69422.882    1.8918427    16.997924 
   15500   -900.91594    51.960806   -848.95513    1861.0476   -64191.676    1.8918427    12.562827 
   15600    -903.1783    48.604452   -854.57384    1740.8352   -67171.107    1.8918427    11.413515 
   15700   -901.86666    51.665564    -850.2011    1850.4731   -64669.902    1.8918427    13.258243 
   15800    -893.0404    52.871874   -840.16852    1893.6788   -57249.455    1.8918427    14.386764 
   15900    -902.1236    50.068265   -852.05534    1793.2637   -64290.162    1.8918427    11.194836 
   16000   -906.75923    48.424468   -858.33476    1734.3888   -70361.155    1.8918427    8.7877192 
   16100   -900.34854    50.951625   -849.39691    1824.9024   -63678.218    1.8918427    11.321473 
   16200    -901.0506    53.494503    -847.5561    1915.9791   -68361.193    1.8918427    9.8166212 
   16300   -908.79412    50.269101   -858.52502    1800.4569   -70861.494    1.8918427     8.866338 
   16400   -900.55317    44.864427   -855.68874    1606.8811   -65310.343    1.8918427    11.973148 
   16500   -902.82078    51.918394   -850.90238    1859.5286   -65903.832    1.8918427    20.525399 
   16600   -902.72018    49.242576    -853.4776    1763.6905    -67382.53    1.8918427    12.859796 
   16700   -898.34911    48.275372   -850.07374    1729.0488   -62896.268    1.8918427    12.903198 
   16800   -906.26582    52.354504   -853.91131    1875.1485   -69834.143    1.8918427    12.306539 
   16900    -906.9023    46.759446   -860.14285    1674.7538   -72440.033    1.8918427    11.365209 
   17000   -903.25306    52.473885   -850.77918    1879.4243   -65716.301    1.8918427    13.996253 
   17100    -900.9008    48.286652   -852.61415    1729.4528   -64558.478    1.8918427    16.497249 
   17200   -907.69073    48.103607   -859.58713    1722.8968   -71910.608    1.8918427    14.886289 
   17300   -903.26725    50.266721   -853.00053    1800.3716   -63732.037    1.8918427    18.451098 
   17400   -900.86119    50.681863   -850.17933    1815.2405   -65083.906    1.8918427    19.768774 
   17500    -902.9923    54.997961   -847.99434    1969.8275   -65033.073    1.8918427    19.463488 
   17600   -902.37813    49.820776   -852.55735    1784.3995   -65458.854    1.8918427    22.310056 
   17700   -902.59983    46.812841   -855.78699    1676.6662   -67574.254    1.8918427    23.840964 
   17800   -903.88085    53.372794   -850.50806    1911.6199   -64559.908    1.8918427    16.787326 
   17900   -900.95131    51.056433   -849.89488    1828.6563   -65535.755    1.8918427    16.229264 
   18000   -906.08522    47.446114   -858.63911    1699.3477   -71118.812    1.8918427    16.847961 
   18100   -902.28632    49.156344   -853.12998     1760.602   -65391.197    1.8918427    13.271866 
   18200   -900.89764    48.545674   -852.35197      1738.73    -66440.88    1.8918427    15.985963 
   18300   -905.79218    49.579929   -856.21225    1775.7733   -68702.763    1.8918427    14.775681 
   18400   -903.71114    53.679818   -850.03132    1922.6164   -67193.206    1.8918427    15.954148 
   18500   -904.68475    48.895014   -855.78974    1751.2421   -68375.188    1.8918427    18.048933 
   18600   -903.38609    46.492493   -856.89359    1665.1925   -66420.219    1.8918427    17.938447 
   18700    -900.1133    51.558674   -848.55463    1846.6447   -62334.416    1.8918427    16.337381 
   18800   -900.91866    47.987624   -852.93103    1718.7427   -64843.191    1.8918427    15.519105 
   18900   -901.07428    47.291662   -853.78262    1693.8158   -62577.313    1.8918427    18.246165 
   19000   -903.30321    46.924834   -856.37838    1680.6774    -67848.13    1.8918427     17.47835 
   19100   -905.41723    53.576781   -851.84044     1918.926   -67539.614    1.8918427    15.547368 
   19200   -903.45605    51.345035   -852.11101    1838.9929   -65938.132    1.8918427    14.809399 
   19300     -901.354     51.62058   -849.73342     1848.862   -64324.084    1.8918427    17.733669 
   19400   -903.76495    45.557405   -858.20754     1631.701   -67128.762    1.8918427    18.474417 
   19500   -901.25305    49.649794   -851.60325    1778.2756   -65819.063    1.8918427    17.681313 
   19600   -902.41185    49.813008   -852.59884    1784.1213   -64727.333    1.8918427    18.950261 
   19700   -905.93058    44.255778    -861.6748    1585.0815   -70278.741    1.8918427    18.100303 
   19800   -908.08161    54.436959   -853.64465    1949.7345   -70867.469    1.8918427    19.760696 
   19900   -900.42925    50.423462   -850.00579    1805.9856    -63882.39    1.8918427    17.071324 
   20000   -904.82617    48.241891   -856.58428    1727.8496   -66959.437    1.8918427    19.848593 
   20100   -905.64865    51.790638   -853.85802    1854.9528   -66450.645    1.8918427    17.325653 
   20200   -903.58629    49.911013   -853.67528    1787.6315   -66300.044    1.8918427    19.438594 
   20300    -903.7779    47.197642   -856.58026    1690.4484   -68362.061    1.8918427    18.712151 
   20400   -900.03671    49.295227   -850.74149    1765.5762   -62048.856    1.8918427    18.545783 
   20500   -903.38954    46.082122   -857.30742    1650.4945   -67771.813    1.8918427    17.333649 
   20600   -906.12385    52.440483   -853.68337    1878.2279   -68978.738    1.8918427    17.074889 
   20700   -895.20555    52.721028   -842.48453     1888.276   -59357.913    1.8918427    20.692787 
   20800   -904.94343    53.548795   -851.39463    1917.9236   -66713.116    1.8918427    18.637054 
   20900   -903.25651    48.171063   -855.08545    1725.3128    -65900.62    1.8918427    16.829122 
   21000   -900.01241    48.282554   -851.72986     1729.306   -65060.748    1.8918427    19.005097 
   21100   -899.00645     53.63078   -845.37567      1920.86    -60299.57    1.8918427    15.854846 
   21200   -900.10434    48.136665   -851.96768    1724.0808   -66225.352    1.8918427    18.100858 
   21300    -902.5941    55.383146   -847.21095    1983.6234   -67053.438    1.8918427    19.560624 
   21400   -906.56153    49.638137    -856.9234    1777.8581   -70197.205    1.8918427    29.024004 
   21500   -898.82635     43.89351   -854.93284    1572.1063   -64775.974    1.8918427    35.652661 
   21600   -903.74221    51.545839   -852.19637     1846.185   -68215.916    1.8918427    34.308845 
   21700   -907.69124    53.432891   -854.25835    1913.7724   -70733.783    1.8918427    39.035622 
   21800   -900.97118    51.067414   -849.90377    1829.0496   -64970.295    1.8918427    41.420074 
   21900   -902.88569    53.828011   -849.05768    1927.9242   -65617.441    1.8918427    36.677835 
   22000   -902.82727    48.557678   -854.26959    1739.1599   -64605.123    1.8918427    38.842866 
   22100    -901.3991      50.6576   -850.74149    1814.3715   -64174.551    1.8918427    40.235328 
   22200   -901.70562    50.369257   -851.33636    1804.0441   -65869.794    1.8918427    43.961368 
   22300   -908.63641    55.819903   -852.81651    1999.2665       -69124    1.8918427    38.849035 
   22400   -904.84793    50.564975   -854.28296     1811.054   -67028.694    1.8918427    39.464721 
   22500   -903.57745    42.324403   -861.25305    1515.9066   -68708.747    1.8918427    44.052137 
   22600   -900.35217    47.354854   -852.99731    1696.0791   -64901.073    1.8918427    43.181462 
   22700   -903.73804    55.182304   -848.55573      1976.43   -64623.991    1.8918427    21.729522 
   22800   -900.78012    48.017694   -852.76243    1719.8197   -63701.808    1.8918427     20.82076 
   22900   -903.21553    47.960927    -855.2546    1717.7865   -66351.777    1.8918427    14.895602 
   23000   -903.75093    52.160428    -851.5905    1868.1974   -65670.289    1.8918427    16.839281 
   23100   -899.80734    47.737666   -852.06968    1709.7901   -64403.491    1.8918427    21.111055 
   23200   -906.39574     48.22302   -858.17272    1727.1737   -70448.721    1.8918427    23.127075 
   23300   -906.73011    50.682605   -856.04751    1815.2671   -71928.746    1.8918427    29.581113 
   23400   -902.86081    51.913538   -850.94727    1859.3547   -65799.392    1.8918427    35.239618 
   23500   -901.81846    51.009867    -850.8086    1826.9884   -65035.038    1.8918427    35.022836 
   23600   -904.36645    46.676515   -857.68993    1671.7835    -69715.33    1.8918427    31.918465 
   23700   -901.05402    50.995076   -850.05895    1826.4587   -62431.741    1.8918427    29.065405 
   23800   -898.92255    45.782763   -853.13979    1639.7725   -62765.862    1.8918427    24.276166 
   23900   -900.75017    51.905068   -848.84511    1859.0513   -64101.587    1.8918427    24.870761 
   24000    -900.7286    42.385174   -858.34343    1518.0832   -69417.721    1.8918427    24.599363 
   24100   -902.36113    50.182057   -852.17907    1797.3393   -65375.957    1.8918427    36.156027 
   24200   -901.87072    59.894423    -841.9763     2145.201   -65005.558    1.8918427    31.339863 
   24300   -903.65223    52.011808   -851.64042    1862.8743   -68989.494    1.8918427    33.353658 
   24400   -902.04986    47.424747   -854.62511    1698.5825   -66489.923    1.8918427    31.921787 
   24500   -902.56723    51.643558   -850.92367     1849.685   -66539.018    1.8918427    31.249245 
   24600   -900.30492    51.337986   -848.96693    1838.7405   -66686.585    1.8918427    28.154596 
   24700   -905.83922    51.034469   -854.80475    1827.8696   -68051.863    1.8918427    21.668553 
   24800   -902.49708    48.895702   -853.60138    1751.2667   -64738.661    1.8918427    16.970359 
   24900   -900.79747     48.99596   -851.80151    1754.8576   -65137.066    1.8918427    25.365828 
   25000   -905.50312    47.058761   -858.44436    1685.4742   -70157.884    1.8918427    30.989338 
   25100   -902.91337    51.090673   -851.82269    1829.8826   -67358.379    1.8918427    32.917966 
   25200   -900.40888    49.384548   -851.02433    1768.7754   -64915.215    1.8918427     35.62947 
   25300   -903.39052    43.669956   -859.72057    1564.0995   -68641.993    1.8918427    27.723687 
   25400   -903.70843    50.660247   -853.04818    1814.4663   -68319.482    1.8918427    23.520705 
   25500    -902.1437     50.83101   -851.31269    1820.5824   -61113.857    1.8918427    27.947624 
   25600   -905.09457    45.629466   -859.46511     1634.282   -68992.833    1.8918427     26.17335 
   25700   -901.89938    52.344637   -849.55474    1874.7951   -65358.445    1.8918427    19.464547 
   25800   -899.68571     49.92119   -849.76452     1787.996   -60652.027    1.8918427    20.300015 
   25900   -905.46619    46.312117   -859.15407    1658.7321   -69452.568    1.8918427    16.608052 
   26000   -902.82138    50.656814   -852.16456    1814.3434   -65167.165    1.8918427     18.19332 
   26100   -898.76843    50.993264   -847.77517    1826.3938   -63827.456    1.8918427    17.444019 
   26200   -902.24248    53.044857   -849.19763    1899.8744   -65683.619    1.8918427    18.256644 
   26300    -904.3401    47.516539   -856.82356    1701.8701   -66321.316    1.8918427    19.621997 
   26400   -902.42901    53.718963   -848.71005    1924.0184   -63711.574    1.8918427    16.252653 
   26500   -904.14801    54.383465   -849.76455    1947.8185   -68325.608    1.8918427    20.897187 
   26577   -904.97508    50.316649   -854.65843    1802.1599   -69850.481    1.8918427    17.545259 
Loop time of 14.3651 on 1 procs for 26577 steps with 217 atoms

Performance: 90.222 ns/day, 0.266 hours/ns, 1850.104 timesteps/s
100.0% CPU use with 1 MPI tasks x no OpenMP threads

MPI task timing breakdown:
Section |  min time  |  avg time  |  max time  |%varavg| %total
---------------------------------------------------------------
Pair    | 13.972     | 13.972     | 13.972     |   0.0 | 97.26
Neigh   | 0.12812    | 0.12812    | 0.12812    |   0.0 |  0.89
Comm    | 0.11233    | 0.11233    | 0.11233    |   0.0 |  0.78
Output  | 0.0079103  | 0.0079103  | 0.0079103  |   0.0 |  0.06
Modify  | 0.11219    | 0.11219    | 0.11219    |   0.0 |  0.78
Other   |            | 0.03309    |            |       |  0.23

Nlocal:    217 ave 217 max 217 min
Histogram: 1 0 0 0 0 0 0 0 0 0
Nghost:    884 ave 884 max 884 min
Histogram: 1 0 0 0 0 0 0 0 0 0
Neighs:    3627 ave 3627 max 3627 min
Histogram: 1 0 0 0 0 0 0 0 0 0
FullNghs:  7254 ave 7254 max 7254 min
Histogram: 1 0 0 0 0 0 0 0 0 0

Total # of neighbors = 7254
Ave neighs/atom = 33.4286
Neighbor list builds = 235
Dangerous builds = 0
Total wall time: 0:00:14
