LAMMPS (3 Mar 2020)
Reading data file ...
  orthogonal box = (0 0 0) to (17.469 17.469 17.469)
  1 by 1 by 1 MPI processor grid
  reading atoms ...
  217 atoms
  read_data CPU = 0.000963699 secs
Reading potential file library.meam with DATE: 2012-06-29
Reading potential file LiSi.meam with DATE: 2020-11-07
1 atoms in group Li
Neighbor list info ...
  update every 1 steps, delay 10 steps, check yes
  max neighbors/atom: 2000, page size: 100000
  master list distance cutoff = 6
  ghost atom cutoff = 6
  binsize = 3, bins = 6 6 6
  2 neighbor lists, perpetual/occasional/extra = 2 0 0
  (1) pair meam/c, perpetual
      attributes: full, newton on
      pair build: full/bin/atomonly
      stencil: full/bin/3d
      bin: standard
  (2) pair meam/c, perpetual, half/full from (1)
      attributes: half, newton on
      pair build: halffull/newton
      stencil: none
      bin: none
Setting up Verlet run ...
  Unit style    : metal
  Current step  : 0
  Time step     : 0.00131833
Per MPI rank memory allocation (min/avg/max) = 9.27 | 9.27 | 9.27 Mbytes
Step PotEng KinEng TotEng Temp Press Density c_msdli[4] 
       0   -951.04357    50.256344   -900.78722         1800   -114161.75    1.8918427            0 
     100   -919.47699    34.917275   -884.55972    1250.6102   -84106.804    1.8918427  0.071389717 
     200   -904.99997    45.426592   -859.57337    1627.0158   -67805.712    1.8918427   0.15990414 
     300   -899.61714    54.478899   -845.13824    1951.2366   -58186.053    1.8918427   0.42208941 
     400   -905.18474    50.207426   -854.97731    1798.2479    -64596.88    1.8918427  0.085009236 
     500   -907.56856    48.271013   -859.29755    1728.8926   -68046.645    1.8918427   0.10824138 
     600   -902.23922    52.715521    -849.5237    1888.0788   -64531.957    1.8918427  0.014964664 
     700   -899.73549    46.442563   -853.29292    1663.4042   -64236.936    1.8918427   0.18523169 
     800   -905.12282    46.602412    -858.5204    1669.1294    -65387.11    1.8918427   0.22733682 
     900   -902.95593    53.400011   -849.55592    1912.5947   -62607.071    1.8918427  0.064607344 
    1000   -903.60331    51.627662   -851.97565    1849.1156   -63988.678    1.8918427   0.21103912 
    1100   -904.14844    46.389937    -857.7585    1661.5193   -64888.472    1.8918427   0.13247329 
    1200   -909.56916    46.518689   -863.05047    1666.1307   -68735.752    1.8918427  0.071190661 
    1300   -902.36299    49.674436   -852.68855    1779.1581   -63519.817    1.8918427  0.029074595 
    1400   -904.30194    50.963222   -853.33872    1825.3178    -67179.31    1.8918427    1.1846696 
    1500   -901.81012    48.862881   -852.94724    1750.0912   -63976.252    1.8918427   0.94125856 
    1600   -902.15066    54.121483   -848.02917    1938.4352   -64475.062    1.8918427   0.62649489 
    1700   -904.61179    51.566825   -853.04497    1846.9367   -67574.836    1.8918427    1.3886389 
    1800   -904.02838     48.08436   -855.94402    1722.2074   -66184.079    1.8918427    5.5108973 
    1900   -897.71912    50.789438   -846.92968    1819.0935   -59893.011    1.8918427    8.9149341 
    2000    -903.6387    46.807493   -856.83121    1676.4747   -67761.032    1.8918427    6.4755807 
    2100   -905.94429    50.964763   -854.97953     1825.373   -67310.668    1.8918427    4.0617484 
    2200   -900.42838    52.580798   -847.84758    1883.2535   -61410.739    1.8918427    4.8240384 
    2300   -901.41981    44.504013    -856.9158    1593.9723   -65411.054    1.8918427    4.8058416 
    2400   -905.71684     49.61846   -856.09838    1777.1533    -69882.65    1.8918427    6.7844929 
    2500   -903.31561    52.831991   -850.48362    1892.2503   -63935.207    1.8918427    12.593585 
    2600   -899.47386    52.288029   -847.18583    1872.7676   -61968.629    1.8918427    7.2228471 
    2700   -905.82322    48.306596   -857.51663    1730.1671   -70650.407    1.8918427    6.0793427 
    2800   -899.15691     47.47562   -851.68129    1700.4045   -63541.268    1.8918427    3.9367625 
    2900   -902.66937    52.900389   -849.76898    1894.7001   -65160.584    1.8918427    7.2847241 
    3000   -906.66978    51.308694   -855.36108    1837.6913   -71865.747    1.8918427    9.3184076 
    3100   -906.85184    45.770118   -861.08173    1639.3196     -71988.7    1.8918427    7.0949953 
    3200   -904.35133    53.135758   -851.21557    1903.1302   -65587.328    1.8918427    5.3057242 
    3300   -900.90225     51.86274   -849.03951    1857.5353   -64243.374    1.8918427    4.8226444 
    3400    -909.3042    51.333938   -857.97026    1838.5955   -71886.561    1.8918427    6.7809922 
    3500    -899.3242    47.852739   -851.47146    1713.9116   -64413.289    1.8918427    6.1879054 
    3600   -901.47958    51.506035   -849.97354    1844.7594   -65444.826    1.8918427    6.7611443 
    3700   -902.14117    46.777469    -855.3637    1675.3993   -64419.687    1.8918427    6.4355047 
    3800    -905.7497    54.985075   -850.76462     1969.366   -67454.147    1.8918427    4.6611566 
    3900   -899.38211    52.117453   -847.26466    1866.6581   -63713.982    1.8918427    4.2577633 
    4000   -905.21617    47.684362   -857.53181    1707.8809   -68585.968    1.8918427    12.256245 
    4100   -900.58921    49.354024   -851.23519    1767.6822   -64362.052    1.8918427    8.1376733 
    4200   -900.86483    49.569964   -851.29487    1775.4164   -64733.758    1.8918427    5.8578676 
    4300   -902.10522    49.077339   -853.02788    1757.7723   -66311.382    1.8918427    8.3876048 
    4400    -903.9193    51.756267   -852.16304    1853.7218   -66930.515    1.8918427    6.0329231 
    4500   -899.49208    47.215354   -852.27672    1691.0828   -61784.455    1.8918427    3.6237774 
    4600    -897.6852    50.715847   -846.96936    1816.4577    -60193.21    1.8918427    9.4782663 
    4700   -903.86429    48.164635   -855.69965    1725.0826   -68367.636    1.8918427    7.4754722 
    4800   -904.91023    51.012947   -853.89728    1827.0987   -67204.722    1.8918427    12.149206 
    4900   -901.10607    50.296546   -850.80953    1801.4399    -64601.17    1.8918427    18.177906 
    5000   -906.87695    55.345021   -851.53193    1982.2579   -70533.468    1.8918427    22.160129 
    5100   -908.16865    49.068773   -859.09987    1757.4655   -71945.998    1.8918427    15.441965 
    5200   -900.84151    49.593596   -851.24792    1776.2628   -66255.921    1.8918427    20.416833 
    5300   -901.28534    49.410226   -851.87511    1769.6951   -68182.321    1.8918427    18.466468 
    5400   -909.66125    53.747571   -855.91367    1925.0431   -73393.576    1.8918427    18.875055 
    5500   -908.14435    52.291425   -855.85292    1872.8892   -72755.521    1.8918427    15.623104 
    5600   -899.96023    50.672772   -849.28746    1814.9149   -66458.185    1.8918427    20.541899 
    5700   -907.09731    50.582147   -856.51517    1811.6691   -69685.129    1.8918427    24.109123 
    5800   -908.43074    51.041404   -857.38934     1828.118   -70256.253    1.8918427    25.548824 
    5900   -905.21923    53.862926   -851.35631    1929.1747   -67768.927    1.8918427    21.663306 
    6000   -900.99461    49.015621   -851.97899    1755.5618   -65496.829    1.8918427    22.262162 
    6100   -905.40788    46.496326   -858.91155    1665.3298   -69767.306    1.8918427    23.670383 
    6200   -899.74331    50.685206    -849.0581    1815.3603   -62428.041    1.8918427    22.260973 
    6300   -900.60533    48.194267   -852.41106    1726.1439   -66255.129    1.8918427    23.316646 
    6400   -901.30124     41.20425   -860.09699    1475.7868   -68663.774    1.8918427    22.032582 
    6500   -907.83398    48.691075   -859.14291    1743.9377   -72237.215    1.8918427    25.342105 
    6600   -901.37283    51.172623    -850.2002    1832.8178   -66706.723    1.8918427    23.699652 
    6700   -901.59169    47.880369   -853.71132    1714.9012   -66232.694    1.8918427    23.396371 
    6800   -906.25867    48.352143   -857.90652    1731.7984   -70251.148    1.8918427    23.384604 
    6900   -900.47394    52.406693   -848.06724    1877.0177    -64366.81    1.8918427    24.906778 
    7000   -902.54373    48.024248   -854.51949    1720.0544   -64290.833    1.8918427    24.652555 
    7100   -907.19582    52.948309   -854.24751    1896.4164   -70005.151    1.8918427    23.350814 
    7200   -897.62267    49.353703   -848.26897    1767.6707   -61532.266    1.8918427    24.405853 
    7300   -904.58859    48.644413   -855.94417    1742.2665   -66440.761    1.8918427    25.009569 
    7400   -905.71299    53.249235   -852.46375    1907.1945   -69273.283    1.8918427    28.819053 
    7500   -898.51909    59.283742   -839.23535    2123.3287   -61528.711    1.8918427    21.346579 
    7600   -901.97367    53.275706   -848.69796    1908.1426   -64059.835    1.8918427    28.375124 
    7700   -900.60607    45.935796   -854.67028    1645.2536   -63961.452    1.8918427    24.527896 
    7800   -900.65225    50.123666   -850.52859    1795.2479   -65330.108    1.8918427    26.203162 
    7900   -901.43358    55.791299   -845.64228     1998.242   -65310.569    1.8918427    19.222357 
    8000   -905.83671    51.059312    -854.7774    1828.7594   -69433.775    1.8918427     27.07556 
    8100   -902.19509    50.449896   -851.74519    1806.9323   -68818.461    1.8918427     22.45104 
    8200   -902.37471    54.797908   -847.57681    1962.6623   -63904.482    1.8918427    24.329504 
    8300   -909.82098    53.409589   -856.41139    1912.9378    -72054.27    1.8918427    23.716147 
    8400   -899.22986     49.58783   -849.64203    1776.0562   -63142.618    1.8918427    26.730736 
    8500   -901.40681    50.990235   -850.41658    1826.2853   -64739.926    1.8918427    20.864596 
    8600    -902.8736    49.713581   -853.16002    1780.5602   -67986.371    1.8918427    24.994886 
    8700   -904.40416     51.79797   -852.60619    1855.2155   -66674.942    1.8918427    19.917141 
    8800   -902.94901    50.521116    -852.4279    1809.4832   -66743.881    1.8918427    25.194054 
    8900   -902.08878    48.673226   -853.41555    1743.2984   -66270.285    1.8918427    23.083082 
    9000   -903.16882    47.937892   -855.23093    1716.9615   -68040.823    1.8918427    22.861475 
    9100     -901.887    52.072212   -849.81479    1865.0378   -64543.291    1.8918427    24.201409 
    9200   -902.10337    50.590714   -851.51265    1811.9759   -64611.786    1.8918427    25.790842 
    9300   -902.96876    45.381861    -857.5869    1625.4137   -68502.789    1.8918427    22.968643 
    9400   -901.50322    50.842627   -850.66059    1820.9985   -66525.234    1.8918427    27.623372 
    9500   -903.91988    51.052277   -852.86761    1828.5074   -68223.903    1.8918427    21.491514 
    9600   -905.93353      49.2299   -856.70363    1763.2365   -69852.208    1.8918427    25.228368 
    9700   -897.53501    43.395531   -854.13948    1554.2705   -63252.494    1.8918427    24.854029 
    9800   -901.74054    52.206995   -849.53355    1869.8652    -68530.59    1.8918427    25.964913 
    9900   -906.41044    47.398887   -859.01155    1697.6562   -72461.929    1.8918427    22.436901 
   10000   -904.51935    49.193763   -855.32559    1761.9422   -68574.446    1.8918427    22.619706 
   10100   -898.46981    46.344416    -852.1254    1659.8889   -65166.717    1.8918427    21.943833 
   10200   -903.96056    51.536746   -852.42381    1845.8593   -67684.174    1.8918427    23.742836 
   10300   -903.74414    45.357913   -858.38622    1624.5559   -67932.932    1.8918427    23.436416 
   10400   -899.59839    49.568263   -850.03012    1775.3554   -63395.609    1.8918427    26.692621 
   10500   -904.61857    55.162303   -849.45627    1975.7137   -68951.741    1.8918427    24.149181 
   10600   -906.45282    47.228149   -859.22467     1691.541   -71605.126    1.8918427    22.801185 
   10700   -902.27901    50.035223   -852.24379    1792.0802   -67692.116    1.8918427    22.581851 
   10800   -901.22619    53.458801   -847.76739    1914.7004   -64088.414    1.8918427    25.498959 
   10900   -902.21392     44.49846   -857.71546    1593.7735   -65642.657    1.8918427    20.683273 
   11000   -900.71715    47.714806   -853.00235    1708.9713   -66613.212    1.8918427    22.308885 
   11100   -900.22477    49.877361   -850.34741    1786.4262   -66918.643    1.8918427    22.028125 
   11200   -906.02924      48.6406   -857.38864    1742.1299   -68943.132    1.8918427    25.802578 
   11300   -906.08181    55.861818      -850.22    2000.7677   -69371.167    1.8918427    21.843204 
   11400   -900.64303    50.666055   -849.97697    1814.6743   -65681.388    1.8918427    24.681245 
   11500   -906.88522    49.485173   -857.40005    1772.3795   -69893.234    1.8918427     24.13952 
   11600   -902.60222    51.946942   -850.65528    1860.5511    -66729.15    1.8918427    22.992956 
   11700   -901.77668    50.364984    -851.4117    1803.8911   -66270.231    1.8918427    22.262548 
   11800   -901.59232    44.181502   -857.41082    1582.4212   -68473.241    1.8918427    22.242824 
   11900   -901.70912    52.852905   -848.85621    1892.9994   -66261.915    1.8918427    25.606001 
   12000   -901.24365    50.853451    -850.3902    1821.3862   -65500.278    1.8918427    32.147784 
   12100   -904.36148    49.143172    -855.2183    1760.1302   -68148.303    1.8918427    26.774439 
   12200   -904.79706    51.922868    -852.8742    1859.6888   -67829.937    1.8918427    28.608154 
   12300   -901.94647     50.06264   -851.88383    1793.0622   -64522.757    1.8918427     27.39103 
   12400    -906.8952    47.421322   -859.47387    1698.4598   -68176.583    1.8918427    23.869974 
   12500   -903.58506    52.435772   -851.14929    1878.0592   -67346.729    1.8918427    29.210247 
   12600   -899.57157    48.438024   -851.13355    1734.8744   -62001.557    1.8918427     37.36577 
   12700   -906.22317    46.053738   -860.16943    1649.4779   -71047.653    1.8918427    38.523085 
   12800   -903.58826    49.117477   -854.47078    1759.2099   -64745.172    1.8918427    40.660237 
   12900    -902.1234    50.891898    -851.2315    1822.7632   -64772.677    1.8918427    41.218122 
   13000   -907.55084    49.234176   -858.31666    1763.3896   -69979.817    1.8918427    44.275802 
   13100   -902.49349    46.659979   -855.83351    1671.1912   -65823.079    1.8918427    43.577102 
   13200   -901.10991    49.059393   -852.05051    1757.1295   -65469.741    1.8918427    36.619686 
   13300   -905.66427    48.980678   -856.68359    1754.3103   -69526.172    1.8918427    39.938789 
   13400   -906.17107    52.419407   -853.75166    1877.4731   -69252.059    1.8918427    38.128364 
   13500   -898.24917    49.230135   -849.01904    1763.2449   -62878.245    1.8918427    41.157563 
   13600   -906.27941    49.968047   -856.31137    1789.6742   -70524.281    1.8918427     40.18053 
   13700   -905.18972     50.38749   -854.80223    1804.6972   -67755.841    1.8918427    43.873648 
   13800   -901.71343     52.70042   -849.01301    1887.5379   -65263.046    1.8918427    39.652876 
   13900   -907.71675    49.747708   -857.96904    1781.7825   -70508.311    1.8918427    37.004469 
   14000   -902.53444    46.526596   -856.00784    1666.4139   -66434.403    1.8918427    39.563907 
   14100   -901.31877    48.412284   -852.90649    1733.9524   -65696.475    1.8918427    40.864259 
   14200   -903.06323    49.229636   -853.83359     1763.227   -67981.516    1.8918427    36.736923 
   14300   -900.72751    48.848263   -851.87925    1749.5676   -63873.668    1.8918427    43.296972 
   14400   -900.58281    50.087021   -850.49578    1793.9355   -64568.852    1.8918427    39.120466 
   14500   -904.69676    45.741539   -858.95522    1638.2961   -68438.785    1.8918427    41.344705 
   14600   -900.36434    51.594403   -848.76994    1847.9244   -65341.282    1.8918427     45.18446 
   14700   -901.43171    49.599863   -851.83184    1776.4872   -64771.928    1.8918427    36.536299 
   14800   -906.63037    50.155522   -856.47485    1796.3889    -69382.61    1.8918427    41.281053 
   14900   -896.11286     51.52534   -844.58752    1845.4508   -58353.343    1.8918427    44.557018 
   15000   -903.04651    50.044477   -853.00204    1792.4117   -65286.819    1.8918427     42.41649 
   15100   -902.27568    47.053085   -855.22259    1685.2709    -66164.41    1.8918427    36.774781 
   15171   -898.74915    51.077788   -847.67136    1829.4211   -63525.674    1.8918427    39.271999 
Loop time of 8.28648 on 1 procs for 15171 steps with 217 atoms

Performance: 208.536 ns/day, 0.115 hours/ns, 1830.815 timesteps/s
100.0% CPU use with 1 MPI tasks x no OpenMP threads

MPI task timing breakdown:
Section |  min time  |  avg time  |  max time  |%varavg| %total
---------------------------------------------------------------
Pair    | 7.9769     | 7.9769     | 7.9769     |   0.0 | 96.26
Neigh   | 0.16007    | 0.16007    | 0.16007    |   0.0 |  1.93
Comm    | 0.064381   | 0.064381   | 0.064381   |   0.0 |  0.78
Output  | 0.0042462  | 0.0042462  | 0.0042462  |   0.0 |  0.05
Modify  | 0.062522   | 0.062522   | 0.062522   |   0.0 |  0.75
Other   |            | 0.01839    |            |       |  0.22

Nlocal:    217 ave 217 max 217 min
Histogram: 1 0 0 0 0 0 0 0 0 0
Nghost:    901 ave 901 max 901 min
Histogram: 1 0 0 0 0 0 0 0 0 0
Neighs:    3600 ave 3600 max 3600 min
Histogram: 1 0 0 0 0 0 0 0 0 0
FullNghs:  7200 ave 7200 max 7200 min
Histogram: 1 0 0 0 0 0 0 0 0 0

Total # of neighbors = 7200
Ave neighs/atom = 33.1797
Neighbor list builds = 293
Dangerous builds = 0
Total wall time: 0:00:08
