ITEM: TIMESTEP
215
ITEM: NUMBER OF ATOMS
217
ITEM: BOX BOUNDS pp pp pp
1.4329546048572188e+00 1.7770645395142974e+01
1.4329546048572188e+00 1.7770645395142974e+01
1.4329546048572188e+00 1.7770645395142974e+01
ITEM: ATOMS id type xs ys zs
1 2 -2.17455e-16 -2.8541e-16 -3.12592e-16
6 2 0.0831942 0.0831942 0.0831942
73 2 0.332954 -1.08728e-16 -6.79547e-17
78 2 0.416684 0.0827483 0.0827483
145 2 0.667046 -4.07728e-17 1.495e-16
150 2 0.750241 0.0831935 0.0831935
3 2 0.166335 0.166335 -0.000201398
8 2 0.249522 0.249522 0.0828482
75 2 0.5 0.166142 4.07728e-17
80 2 0.583671 0.249334 0.0827302
147 2 0.833665 0.166335 0.000201398
152 2 0.916806 0.249759 0.0831935
25 2 0 0.332954 4.07728e-17
30 2 0.0827483 0.416684 0.0827483
97 2 0.332984 0.332984 1.00004
102 2 0.416449 0.416449 0.082942
169 2 0.667016 0.332984 -3.78792e-05
174 2 0.750666 0.416329 0.0827302
27 2 0.166142 0.5 -1.63091e-16
32 2 0.249334 0.583671 0.0827302
99 2 0.5 0.5 -8.15457e-17
104 2 0.583551 0.583551 0.082942
171 2 0.833858 0.5 -1.63091e-16
176 2 0.917252 0.583316 0.0827483
49 2 0 0.667046 0
54 2 0.0831935 0.750241 0.0831935
121 2 0.332984 0.667016 -3.78792e-05
126 2 0.416329 0.750666 0.0827302
193 2 0.667016 0.667016 1.00004
198 2 0.750478 0.750478 0.0828482
51 2 0.166335 0.833665 0.000201398
56 2 0.249759 0.916806 0.0831935
123 2 0.5 0.833858 5.43638e-17
128 2 0.583316 0.917252 0.0827483
195 2 0.833665 0.833665 -0.000201398
200 2 0.916806 0.916806 0.0831942
4 2 0.166335 -0.000201398 0.166335
5 2 0.249522 0.0828482 0.249522
76 2 0.5 -8.15457e-17 0.166142
77 2 0.583671 0.0827302 0.249334
148 2 0.833665 0.000201398 0.166335
149 2 0.916806 0.0831935 0.249759
2 2 -0.000201398 0.166335 0.166335
7 2 0.0828482 0.249522 0.249522
74 2 0.33252 0.165205 0.165205
79 2 0.416652 0.247542 0.247542
146 2 0.666881 0.166319 0.166319
151 2 0.75066 0.24934 0.24934
28 2 0.165205 0.33252 0.165205
29 2 0.247542 0.416652 0.247542
100 2 0.499851 0.332297 0.16542
101 2 0.585098 0.414902 0.247313
172 2 0.833681 0.333119 0.166319
173 2 0.91727 0.416329 0.249334
26 2 -1.22318e-16 0.5 0.166142
31 2 0.0827302 0.583671 0.249334
98 2 0.332297 0.499851 0.16542
103 2 0.414902 0.585098 0.247313
170 2 0.667703 0.500149 0.16542
175 2 0.752458 0.583348 0.247542
52 2 0.166319 0.666881 0.166319
53 2 0.24934 0.75066 0.24934
124 2 0.500149 0.667703 0.16542
125 2 0.583348 0.752458 0.247542
196 2 0.834795 0.66748 0.165205
197 2 0.917152 0.750478 0.249522
50 2 0.000201398 0.833665 0.166335
55 2 0.0831935 0.916806 0.249759
122 2 0.333119 0.833681 0.166319
127 2 0.416329 0.91727 0.249334
194 2 0.66748 0.834795 0.165205
199 2 0.750478 0.917152 0.249522
9 2 -1.35909e-17 -1.08728e-16 0.332954
14 2 0.0827483 0.0827483 0.416684
81 2 0.332984 1.00004 0.332984
86 2 0.416449 0.082942 0.416449
153 2 0.667016 -3.78792e-05 0.332984
158 2 0.750666 0.0827302 0.416329
11 2 0.165205 0.165205 0.33252
16 2 0.247542 0.247542 0.416652
83 2 0.499851 0.16542 0.332297
88 2 0.585098 0.247313 0.414902
155 2 0.833681 0.166319 0.333119
160 2 0.91727 0.249334 0.416329
33 2 1.00004 0.332984 0.332984
38 2 0.082942 0.416449 0.416449
105 2 0.32712 0.32712 0.32712
110 2 0.410693 0.410693 0.410693
177 2 0.667513 0.332487 0.332487
182 2 0.752687 0.414902 0.414902
35 2 0.16542 0.499851 0.332297
40 2 0.247313 0.585098 0.414902
107 2 0.5 0.5 0.326423
112 2 0.589307 0.589307 0.410693
179 2 0.83458 0.500149 0.332297
184 2 0.917058 0.583551 0.416449
57 2 -3.78792e-05 0.667016 0.332984
62 2 0.0827302 0.750666 0.416329
129 2 0.332487 0.667513 0.332487
134 2 0.414902 0.752687 0.414902
201 2 0.67288 0.67288 0.32712
206 2 0.752458 0.752458 0.416652
59 2 0.166319 0.833681 0.333119
64 2 0.249334 0.91727 0.416329
131 2 0.500149 0.83458 0.332297
136 2 0.583551 0.917058 0.416449
203 2 0.834795 0.834795 0.33252
208 2 0.917252 0.917252 0.416684
12 2 0.166142 5.43638e-17 0.5
13 2 0.249334 0.0827302 0.583671
84 2 0.5 -6.79547e-17 0.5
85 2 0.583551 0.082942 0.583551
156 2 0.833858 -1.35909e-17 0.5
157 2 0.917252 0.0827483 0.583316
10 2 0 0.166142 0.5
15 2 0.0827302 0.249334 0.583671
82 2 0.332297 0.16542 0.499851
87 2 0.414902 0.247313 0.585098
154 2 0.667703 0.16542 0.500149
159 2 0.752458 0.247542 0.583348
36 2 0.16542 0.332297 0.499851
37 2 0.247313 0.414902 0.585098
108 2 0.5 0.326423 0.5
109 2 0.589307 0.410693 0.589307
180 2 0.83458 0.332297 0.500149
181 2 0.917058 0.416449 0.583551
34 2 -1.76682e-16 0.5 0.5
39 2 0.082942 0.583551 0.583551
106 2 0.326423 0.5 0.5
111 2 0.410693 0.589307 0.589307
217 1 0.5 0.5 0.5
178 2 0.673577 0.5 0.5
183 2 0.752687 0.585098 0.585098
60 2 0.16542 0.667703 0.500149
61 2 0.247542 0.752458 0.583348
132 2 0.5 0.673577 0.5
133 2 0.585098 0.752687 0.585098
204 2 0.83458 0.667703 0.499851
205 2 0.91727 0.750666 0.583671
58 2 4.07728e-17 0.833858 0.5
63 2 0.0827483 0.917252 0.583316
130 2 0.332297 0.83458 0.500149
135 2 0.416449 0.917058 0.583551
202 2 0.667703 0.83458 0.499851
207 2 0.750666 0.91727 0.583671
17 2 4.07728e-17 2.71819e-17 0.667046
22 2 0.0831935 0.0831935 0.750241
89 2 0.332984 -3.78792e-05 0.667016
94 2 0.416329 0.0827302 0.750666
161 2 0.667016 1.00004 0.667016
166 2 0.750478 0.0828482 0.750478
19 2 0.166319 0.166319 0.666881
24 2 0.24934 0.24934 0.75066
91 2 0.500149 0.16542 0.667703
96 2 0.583348 0.247542 0.752458
163 2 0.834795 0.165205 0.66748
168 2 0.917152 0.249522 0.750478
41 2 -3.78792e-05 0.332984 0.667016
46 2 0.0827302 0.416329 0.750666
113 2 0.332487 0.332487 0.667513
118 2 0.414902 0.414902 0.752687
185 2 0.67288 0.32712 0.67288
190 2 0.752458 0.416652 0.752458
43 2 0.16542 0.500149 0.667703
48 2 0.247542 0.583348 0.752458
115 2 0.5 0.5 0.673577
120 2 0.585098 0.585098 0.752687
187 2 0.83458 0.499851 0.667703
192 2 0.91727 0.583671 0.750666
65 2 1.00004 0.667016 0.667016
70 2 0.0828482 0.750478 0.750478
137 2 0.32712 0.67288 0.67288
142 2 0.416652 0.752458 0.752458
209 2 0.667513 0.667513 0.667513
214 2 0.75066 0.75066 0.75066
67 2 0.165205 0.834795 0.66748
72 2 0.249522 0.917152 0.750478
139 2 0.499851 0.83458 0.667703
144 2 0.583671 0.91727 0.750666
211 2 0.833681 0.833681 0.666881
216 2 0.916806 0.916806 0.750241
20 2 0.166335 0.000201398 0.833665
21 2 0.249759 0.0831935 0.916806
92 2 0.5 1.35909e-16 0.833858
93 2 0.583316 0.0827483 0.917252
164 2 0.833665 -0.000201398 0.833665
165 2 0.916806 0.0831942 0.916806
18 2 0.000201398 0.166335 0.833665
23 2 0.0831935 0.249759 0.916806
90 2 0.333119 0.166319 0.833681
95 2 0.416329 0.249334 0.91727
162 2 0.66748 0.165205 0.834795
167 2 0.750478 0.249522 0.917152
44 2 0.166319 0.333119 0.833681
45 2 0.249334 0.416329 0.91727
116 2 0.500149 0.332297 0.83458
117 2 0.583551 0.416449 0.917058
188 2 0.834795 0.33252 0.834795
189 2 0.917252 0.416684 0.917252
42 2 -4.07728e-17 0.5 0.833858
47 2 0.0827483 0.583316 0.917252
114 2 0.332297 0.500149 0.83458
119 2 0.416449 0.583551 0.917058
186 2 0.667703 0.499851 0.83458
191 2 0.750666 0.583671 0.91727
68 2 0.165205 0.66748 0.834795
69 2 0.249522 0.750478 0.917152
140 2 0.499851 0.667703 0.83458
141 2 0.583671 0.750666 0.91727
212 2 0.833681 0.666881 0.833681
213 2 0.916806 0.750241 0.916806
66 2 -0.000201398 0.833665 0.833665
71 2 0.0831942 0.916806 0.916806
138 2 0.33252 0.834795 0.834795
143 2 0.416684 0.917252 0.917252
210 2 0.666881 0.833681 0.833681
215 2 0.750241 0.916806 0.916806
