ITEM: TIMESTEP
0
ITEM: NUMBER OF ATOMS
217
ITEM: BOX BOUNDS pp pp pp
0.0000000000000000e+00 1.9203600000000002e+01
0.0000000000000000e+00 1.9203600000000002e+01
0.0000000000000000e+00 1.9203600000000002e+01
ITEM: ATOMS id type xs ys zs
1 2 0 0 0
2 2 0 0.166667 0.166667
3 2 0.166667 0.166667 0
4 2 0.166667 0 0.166667
5 2 0.25 0.0833333 0.25
6 2 0.0833333 0.0833333 0.0833333
7 2 0.0833333 0.25 0.25
8 2 0.25 0.25 0.0833333
9 2 0 0 0.333333
10 2 0 0.166667 0.5
11 2 0.166667 0.166667 0.333333
12 2 0.166667 0 0.5
13 2 0.25 0.0833333 0.583333
14 2 0.0833333 0.0833333 0.416667
15 2 0.0833333 0.25 0.583333
16 2 0.25 0.25 0.416667
17 2 0 0 0.666667
18 2 0 0.166667 0.833333
19 2 0.166667 0.166667 0.666667
20 2 0.166667 0 0.833333
21 2 0.25 0.0833333 0.916667
22 2 0.0833333 0.0833333 0.75
23 2 0.0833333 0.25 0.916667
24 2 0.25 0.25 0.75
25 2 0 0.333333 0
26 2 0 0.5 0.166667
27 2 0.166667 0.5 0
28 2 0.166667 0.333333 0.166667
29 2 0.25 0.416667 0.25
30 2 0.0833333 0.416667 0.0833333
31 2 0.0833333 0.583333 0.25
32 2 0.25 0.583333 0.0833333
33 2 0 0.333333 0.333333
34 2 0 0.5 0.5
35 2 0.166667 0.5 0.333333
36 2 0.166667 0.333333 0.5
37 2 0.25 0.416667 0.583333
38 2 0.0833333 0.416667 0.416667
39 2 0.0833333 0.583333 0.583333
40 2 0.25 0.583333 0.416667
41 2 0 0.333333 0.666667
42 2 0 0.5 0.833333
43 2 0.166667 0.5 0.666667
44 2 0.166667 0.333333 0.833333
45 2 0.25 0.416667 0.916667
46 2 0.0833333 0.416667 0.75
47 2 0.0833333 0.583333 0.916667
48 2 0.25 0.583333 0.75
49 2 0 0.666667 0
50 2 0 0.833333 0.166667
51 2 0.166667 0.833333 0
52 2 0.166667 0.666667 0.166667
53 2 0.25 0.75 0.25
54 2 0.0833333 0.75 0.0833333
55 2 0.0833333 0.916667 0.25
56 2 0.25 0.916667 0.0833333
57 2 0 0.666667 0.333333
58 2 0 0.833333 0.5
59 2 0.166667 0.833333 0.333333
60 2 0.166667 0.666667 0.5
61 2 0.25 0.75 0.583333
62 2 0.0833333 0.75 0.416667
63 2 0.0833333 0.916667 0.583333
64 2 0.25 0.916667 0.416667
65 2 0 0.666667 0.666667
66 2 0 0.833333 0.833333
67 2 0.166667 0.833333 0.666667
68 2 0.166667 0.666667 0.833333
69 2 0.25 0.75 0.916667
70 2 0.0833333 0.75 0.75
71 2 0.0833333 0.916667 0.916667
72 2 0.25 0.916667 0.75
73 2 0.333333 0 0
74 2 0.333333 0.166667 0.166667
75 2 0.5 0.166667 0
76 2 0.5 0 0.166667
77 2 0.583333 0.0833333 0.25
78 2 0.416667 0.0833333 0.0833333
79 2 0.416667 0.25 0.25
80 2 0.583333 0.25 0.0833333
81 2 0.333333 0 0.333333
82 2 0.333333 0.166667 0.5
83 2 0.5 0.166667 0.333333
84 2 0.5 0 0.5
85 2 0.583333 0.0833333 0.583333
86 2 0.416667 0.0833333 0.416667
87 2 0.416667 0.25 0.583333
88 2 0.583333 0.25 0.416667
89 2 0.333333 0 0.666667
90 2 0.333333 0.166667 0.833333
91 2 0.5 0.166667 0.666667
92 2 0.5 0 0.833333
93 2 0.583333 0.0833333 0.916667
94 2 0.416667 0.0833333 0.75
95 2 0.416667 0.25 0.916667
96 2 0.583333 0.25 0.75
97 2 0.333333 0.333333 0
98 2 0.333333 0.5 0.166667
99 2 0.5 0.5 0
100 2 0.5 0.333333 0.166667
101 2 0.583333 0.416667 0.25
102 2 0.416667 0.416667 0.0833333
103 2 0.416667 0.583333 0.25
104 2 0.583333 0.583333 0.0833333
105 2 0.333333 0.333333 0.333333
106 2 0.333333 0.5 0.5
107 2 0.5 0.5 0.333333
108 2 0.5 0.333333 0.5
109 2 0.583333 0.416667 0.583333
110 2 0.416667 0.416667 0.416667
111 2 0.416667 0.583333 0.583333
112 2 0.583333 0.583333 0.416667
113 2 0.333333 0.333333 0.666667
114 2 0.333333 0.5 0.833333
115 2 0.5 0.5 0.666667
116 2 0.5 0.333333 0.833333
117 2 0.583333 0.416667 0.916667
118 2 0.416667 0.416667 0.75
119 2 0.416667 0.583333 0.916667
120 2 0.583333 0.583333 0.75
121 2 0.333333 0.666667 0
122 2 0.333333 0.833333 0.166667
123 2 0.5 0.833333 0
124 2 0.5 0.666667 0.166667
125 2 0.583333 0.75 0.25
126 2 0.416667 0.75 0.0833333
127 2 0.416667 0.916667 0.25
128 2 0.583333 0.916667 0.0833333
129 2 0.333333 0.666667 0.333333
130 2 0.333333 0.833333 0.5
131 2 0.5 0.833333 0.333333
132 2 0.5 0.666667 0.5
133 2 0.583333 0.75 0.583333
134 2 0.416667 0.75 0.416667
135 2 0.416667 0.916667 0.583333
136 2 0.583333 0.916667 0.416667
137 2 0.333333 0.666667 0.666667
138 2 0.333333 0.833333 0.833333
139 2 0.5 0.833333 0.666667
140 2 0.5 0.666667 0.833333
141 2 0.583333 0.75 0.916667
142 2 0.416667 0.75 0.75
143 2 0.416667 0.916667 0.916667
144 2 0.583333 0.916667 0.75
145 2 0.666667 0 0
146 2 0.666667 0.166667 0.166667
147 2 0.833333 0.166667 0
148 2 0.833333 0 0.166667
149 2 0.916667 0.0833333 0.25
150 2 0.75 0.0833333 0.0833333
151 2 0.75 0.25 0.25
152 2 0.916667 0.25 0.0833333
153 2 0.666667 0 0.333333
154 2 0.666667 0.166667 0.5
155 2 0.833333 0.166667 0.333333
156 2 0.833333 0 0.5
157 2 0.916667 0.0833333 0.583333
158 2 0.75 0.0833333 0.416667
159 2 0.75 0.25 0.583333
160 2 0.916667 0.25 0.416667
161 2 0.666667 0 0.666667
162 2 0.666667 0.166667 0.833333
163 2 0.833333 0.166667 0.666667
164 2 0.833333 0 0.833333
165 2 0.916667 0.0833333 0.916667
166 2 0.75 0.0833333 0.75
167 2 0.75 0.25 0.916667
168 2 0.916667 0.25 0.75
169 2 0.666667 0.333333 0
170 2 0.666667 0.5 0.166667
171 2 0.833333 0.5 0
172 2 0.833333 0.333333 0.166667
173 2 0.916667 0.416667 0.25
174 2 0.75 0.416667 0.0833333
175 2 0.75 0.583333 0.25
176 2 0.916667 0.583333 0.0833333
177 2 0.666667 0.333333 0.333333
178 2 0.666667 0.5 0.5
179 2 0.833333 0.5 0.333333
180 2 0.833333 0.333333 0.5
181 2 0.916667 0.416667 0.583333
182 2 0.75 0.416667 0.416667
183 2 0.75 0.583333 0.583333
184 2 0.916667 0.583333 0.416667
185 2 0.666667 0.333333 0.666667
186 2 0.666667 0.5 0.833333
187 2 0.833333 0.5 0.666667
188 2 0.833333 0.333333 0.833333
189 2 0.916667 0.416667 0.916667
190 2 0.75 0.416667 0.75
191 2 0.75 0.583333 0.916667
192 2 0.916667 0.583333 0.75
193 2 0.666667 0.666667 0
194 2 0.666667 0.833333 0.166667
195 2 0.833333 0.833333 0
196 2 0.833333 0.666667 0.166667
197 2 0.916667 0.75 0.25
198 2 0.75 0.75 0.0833333
199 2 0.75 0.916667 0.25
200 2 0.916667 0.916667 0.0833333
201 2 0.666667 0.666667 0.333333
202 2 0.666667 0.833333 0.5
203 2 0.833333 0.833333 0.333333
204 2 0.833333 0.666667 0.5
205 2 0.916667 0.75 0.583333
206 2 0.75 0.75 0.416667
207 2 0.75 0.916667 0.583333
208 2 0.916667 0.916667 0.416667
209 2 0.666667 0.666667 0.666667
210 2 0.666667 0.833333 0.833333
211 2 0.833333 0.833333 0.666667
212 2 0.833333 0.666667 0.833333
213 2 0.916667 0.75 0.916667
214 2 0.75 0.75 0.75
215 2 0.75 0.916667 0.916667
216 2 0.916667 0.916667 0.75
217 1 0.5 0.5 0.5
