Header of the LAMMPS data file 

217 atoms 
2 atom types

0.0 19.2036  xlo xhi
0.0 19.2036  ylo yhi
0.0 19.2036  zlo zhi

Masses 

1  6.94
2  28.085

Atoms # atomic 

1 2 0.00000 0.00000 0.00000 
2 2 0.00000 3.20060 3.20060 
3 2 3.20060 3.20060 0.00000 
4 2 3.20060 0.00000 3.20060 
5 2 4.80090 1.60030 4.80090 
6 2 1.60030 1.60030 1.60030 
7 2 1.60030 4.80090 4.80090 
8 2 4.80090 4.80090 1.60030 
9 2 0.00000 0.00000 6.40120 
10 2 0.00000 3.20060 9.60180 
11 2 3.20060 3.20060 6.40120 
12 2 3.20060 0.00000 9.60180 
13 2 4.80090 1.60030 11.20210 
14 2 1.60030 1.60030 8.00150 
15 2 1.60030 4.80090 11.20210 
16 2 4.80090 4.80090 8.00150 
17 2 0.00000 0.00000 12.80240 
18 2 0.00000 3.20060 16.00300 
19 2 3.20060 3.20060 12.80240 
20 2 3.20060 0.00000 16.00300 
21 2 4.80090 1.60030 17.60330 
22 2 1.60030 1.60030 14.40270 
23 2 1.60030 4.80090 17.60330 
24 2 4.80090 4.80090 14.40270 
25 2 0.00000 6.40120 0.00000 
26 2 0.00000 9.60180 3.20060 
27 2 3.20060 9.60180 0.00000 
28 2 3.20060 6.40120 3.20060 
29 2 4.80090 8.00150 4.80090 
30 2 1.60030 8.00150 1.60030 
31 2 1.60030 11.20210 4.80090 
32 2 4.80090 11.20210 1.60030 
33 2 0.00000 6.40120 6.40120 
34 2 0.00000 9.60180 9.60180 
35 2 3.20060 9.60180 6.40120 
36 2 3.20060 6.40120 9.60180 
37 2 4.80090 8.00150 11.20210 
38 2 1.60030 8.00150 8.00150 
39 2 1.60030 11.20210 11.20210 
40 2 4.80090 11.20210 8.00150 
41 2 0.00000 6.40120 12.80240 
42 2 0.00000 9.60180 16.00300 
43 2 3.20060 9.60180 12.80240 
44 2 3.20060 6.40120 16.00300 
45 2 4.80090 8.00150 17.60330 
46 2 1.60030 8.00150 14.40270 
47 2 1.60030 11.20210 17.60330 
48 2 4.80090 11.20210 14.40270 
49 2 0.00000 12.80240 0.00000 
50 2 0.00000 16.00300 3.20060 
51 2 3.20060 16.00300 0.00000 
52 2 3.20060 12.80240 3.20060 
53 2 4.80090 14.40270 4.80090 
54 2 1.60030 14.40270 1.60030 
55 2 1.60030 17.60330 4.80090 
56 2 4.80090 17.60330 1.60030 
57 2 0.00000 12.80240 6.40120 
58 2 0.00000 16.00300 9.60180 
59 2 3.20060 16.00300 6.40120 
60 2 3.20060 12.80240 9.60180 
61 2 4.80090 14.40270 11.20210 
62 2 1.60030 14.40270 8.00150 
63 2 1.60030 17.60330 11.20210 
64 2 4.80090 17.60330 8.00150 
65 2 0.00000 12.80240 12.80240 
66 2 0.00000 16.00300 16.00300 
67 2 3.20060 16.00300 12.80240 
68 2 3.20060 12.80240 16.00300 
69 2 4.80090 14.40270 17.60330 
70 2 1.60030 14.40270 14.40270 
71 2 1.60030 17.60330 17.60330 
72 2 4.80090 17.60330 14.40270 
73 2 6.40120 0.00000 0.00000 
74 2 6.40120 3.20060 3.20060 
75 2 9.60180 3.20060 0.00000 
76 2 9.60180 0.00000 3.20060 
77 2 11.20210 1.60030 4.80090 
78 2 8.00150 1.60030 1.60030 
79 2 8.00150 4.80090 4.80090 
80 2 11.20210 4.80090 1.60030 
81 2 6.40120 0.00000 6.40120 
82 2 6.40120 3.20060 9.60180 
83 2 9.60180 3.20060 6.40120 
84 2 9.60180 0.00000 9.60180 
85 2 11.20210 1.60030 11.20210 
86 2 8.00150 1.60030 8.00150 
87 2 8.00150 4.80090 11.20210 
88 2 11.20210 4.80090 8.00150 
89 2 6.40120 0.00000 12.80240 
90 2 6.40120 3.20060 16.00300 
91 2 9.60180 3.20060 12.80240 
92 2 9.60180 0.00000 16.00300 
93 2 11.20210 1.60030 17.60330 
94 2 8.00150 1.60030 14.40270 
95 2 8.00150 4.80090 17.60330 
96 2 11.20210 4.80090 14.40270 
97 2 6.40120 6.40120 0.00000 
98 2 6.40120 9.60180 3.20060 
99 2 9.60180 9.60180 0.00000 
100 2 9.60180 6.40120 3.20060 
101 2 11.20210 8.00150 4.80090 
102 2 8.00150 8.00150 1.60030 
103 2 8.00150 11.20210 4.80090 
104 2 11.20210 11.20210 1.60030 
105 2 6.40120 6.40120 6.40120 
106 2 6.40120 9.60180 9.60180 
107 2 9.60180 9.60180 6.40120 
108 2 9.60180 6.40120 9.60180 
109 2 11.20210 8.00150 11.20210 
110 2 8.00150 8.00150 8.00150 
111 2 8.00150 11.20210 11.20210 
112 2 11.20210 11.20210 8.00150 
113 2 6.40120 6.40120 12.80240 
114 2 6.40120 9.60180 16.00300 
115 2 9.60180 9.60180 12.80240 
116 2 9.60180 6.40120 16.00300 
117 2 11.20210 8.00150 17.60330 
118 2 8.00150 8.00150 14.40270 
119 2 8.00150 11.20210 17.60330 
120 2 11.20210 11.20210 14.40270 
121 2 6.40120 12.80240 0.00000 
122 2 6.40120 16.00300 3.20060 
123 2 9.60180 16.00300 0.00000 
124 2 9.60180 12.80240 3.20060 
125 2 11.20210 14.40270 4.80090 
126 2 8.00150 14.40270 1.60030 
127 2 8.00150 17.60330 4.80090 
128 2 11.20210 17.60330 1.60030 
129 2 6.40120 12.80240 6.40120 
130 2 6.40120 16.00300 9.60180 
131 2 9.60180 16.00300 6.40120 
132 2 9.60180 12.80240 9.60180 
133 2 11.20210 14.40270 11.20210 
134 2 8.00150 14.40270 8.00150 
135 2 8.00150 17.60330 11.20210 
136 2 11.20210 17.60330 8.00150 
137 2 6.40120 12.80240 12.80240 
138 2 6.40120 16.00300 16.00300 
139 2 9.60180 16.00300 12.80240 
140 2 9.60180 12.80240 16.00300 
141 2 11.20210 14.40270 17.60330 
142 2 8.00150 14.40270 14.40270 
143 2 8.00150 17.60330 17.60330 
144 2 11.20210 17.60330 14.40270 
145 2 12.80240 0.00000 0.00000 
146 2 12.80240 3.20060 3.20060 
147 2 16.00300 3.20060 0.00000 
148 2 16.00300 0.00000 3.20060 
149 2 17.60330 1.60030 4.80090 
150 2 14.40270 1.60030 1.60030 
151 2 14.40270 4.80090 4.80090 
152 2 17.60330 4.80090 1.60030 
153 2 12.80240 0.00000 6.40120 
154 2 12.80240 3.20060 9.60180 
155 2 16.00300 3.20060 6.40120 
156 2 16.00300 0.00000 9.60180 
157 2 17.60330 1.60030 11.20210 
158 2 14.40270 1.60030 8.00150 
159 2 14.40270 4.80090 11.20210 
160 2 17.60330 4.80090 8.00150 
161 2 12.80240 0.00000 12.80240 
162 2 12.80240 3.20060 16.00300 
163 2 16.00300 3.20060 12.80240 
164 2 16.00300 0.00000 16.00300 
165 2 17.60330 1.60030 17.60330 
166 2 14.40270 1.60030 14.40270 
167 2 14.40270 4.80090 17.60330 
168 2 17.60330 4.80090 14.40270 
169 2 12.80240 6.40120 0.00000 
170 2 12.80240 9.60180 3.20060 
171 2 16.00300 9.60180 0.00000 
172 2 16.00300 6.40120 3.20060 
173 2 17.60330 8.00150 4.80090 
174 2 14.40270 8.00150 1.60030 
175 2 14.40270 11.20210 4.80090 
176 2 17.60330 11.20210 1.60030 
177 2 12.80240 6.40120 6.40120 
178 2 12.80240 9.60180 9.60180 
179 2 16.00300 9.60180 6.40120 
180 2 16.00300 6.40120 9.60180 
181 2 17.60330 8.00150 11.20210 
182 2 14.40270 8.00150 8.00150 
183 2 14.40270 11.20210 11.20210 
184 2 17.60330 11.20210 8.00150 
185 2 12.80240 6.40120 12.80240 
186 2 12.80240 9.60180 16.00300 
187 2 16.00300 9.60180 12.80240 
188 2 16.00300 6.40120 16.00300 
189 2 17.60330 8.00150 17.60330 
190 2 14.40270 8.00150 14.40270 
191 2 14.40270 11.20210 17.60330 
192 2 17.60330 11.20210 14.40270 
193 2 12.80240 12.80240 0.00000 
194 2 12.80240 16.00300 3.20060 
195 2 16.00300 16.00300 0.00000 
196 2 16.00300 12.80240 3.20060 
197 2 17.60330 14.40270 4.80090 
198 2 14.40270 14.40270 1.60030 
199 2 14.40270 17.60330 4.80090 
200 2 17.60330 17.60330 1.60030 
201 2 12.80240 12.80240 6.40120 
202 2 12.80240 16.00300 9.60180 
203 2 16.00300 16.00300 6.40120 
204 2 16.00300 12.80240 9.60180 
205 2 17.60330 14.40270 11.20210 
206 2 14.40270 14.40270 8.00150 
207 2 14.40270 17.60330 11.20210 
208 2 17.60330 17.60330 8.00150 
209 2 12.80240 12.80240 12.80240 
210 2 12.80240 16.00300 16.00300 
211 2 16.00300 16.00300 12.80240 
212 2 16.00300 12.80240 16.00300 
213 2 17.60330 14.40270 17.60330 
214 2 14.40270 14.40270 14.40270 
215 2 14.40270 17.60330 17.60330 
216 2 17.60330 17.60330 14.40270 
217 1 9.60180 9.60180 9.60180 
