LAMMPS (3 Mar 2020)

# ---------- 1. Initialize simulation ----------
units metal
atom_style atomic
dimension 3
boundary p p p
read_data /home/modeler/RemLabs/Project/eval_timestep_nvt/n3_T1800_timestep1.679909e-03_steps8930/20201205-225050/lammps.data
  orthogonal box = (0 0 0) to (17.469 17.469 17.469)
  1 by 1 by 1 MPI processor grid
  reading atoms ...
  217 atoms
  read_data CPU = 0.0010051 secs

pair_style meam/c
pair_coeff * * library.meam Li Si LiSi.meam Li Si
Reading potential file library.meam with DATE: 2012-06-29
Reading potential file LiSi.meam with DATE: 2020-11-07

group Li type 1
1 atoms in group Li

velocity all create 1800 3320 dist gaussian

# ---------- 2. Describe computed properties----------
compute msdli Li msd
thermo_style custom step pe ke etotal temp press density c_msdli[4]
thermo 100

# ---------- 3. Specify ensemble  ----------
# fix 1 all npt temp 1800 1800 0.08399545715709451 tchain 2 iso 1.0 1.0 1.0 pchain 2
fix 1 all nvt temp 1800 1800 0.08399545715709451
# fix 1 all nve

# ---------- 4. Run -------------
timestep 0.0016799091431418903
run 8930
Neighbor list info ...
  update every 1 steps, delay 10 steps, check yes
  max neighbors/atom: 2000, page size: 100000
  master list distance cutoff = 6
  ghost atom cutoff = 6
  binsize = 3, bins = 6 6 6
  2 neighbor lists, perpetual/occasional/extra = 2 0 0
  (1) pair meam/c, perpetual
      attributes: full, newton on
      pair build: full/bin/atomonly
      stencil: full/bin/3d
      bin: standard
  (2) pair meam/c, perpetual, half/full from (1)
      attributes: half, newton on
      pair build: halffull/newton
      stencil: none
      bin: none
Per MPI rank memory allocation (min/avg/max) = 9.27 | 9.27 | 9.27 Mbytes
Step PotEng KinEng TotEng Temp Press Density c_msdli[4] 
       0   -951.04357    50.256344   -900.78722         1800   -114161.75    1.8918427            0 
     100   -920.86669    36.528667   -884.33803    1308.3244   -84046.296    1.8918427  0.080609456 
     200   -908.69234     49.45067   -859.24167    1771.1437   -69791.654    1.8918427   0.16677935 
     300   -900.55979    54.262527   -846.29727    1943.4869   -60694.092    1.8918427   0.11831039 
     400   -904.89241    48.153487   -856.73892    1724.6833   -65947.018    1.8918427  0.036145456 
     500   -905.31496    48.698882   -856.61608    1744.2174    -65891.69    1.8918427  0.043451273 
     600   -900.27796    51.952052   -848.32591    1860.7341   -59846.622    1.8918427   0.10438523 
     700   -906.96418    51.641772   -855.32241     1849.621    -66762.09    1.8918427   0.30228318 
     800   -904.07822    47.963458   -856.11477    1717.8771   -64020.426    1.8918427   0.29854225 
     900   -898.19209    49.148451   -849.04364    1760.3193   -59493.444    1.8918427  0.056041927 
    1000   -903.51632    45.457974   -858.05835    1628.1398    -65618.62    1.8918427    0.2809262 
    1100   -902.01884    48.563827   -853.45502    1739.3802   -64523.144    1.8918427  0.063769856 
    1200   -904.81442    54.006551   -850.80787    1934.3188    -64858.27    1.8918427  0.082952729 
    1300   -905.01423    51.398066   -853.61616    1840.8923    -67233.22    1.8918427   0.74626307 
    1400   -903.38749    50.940525   -852.44697    1824.5049   -65186.709    1.8918427   0.46592494 
    1500     -900.992    48.557149   -852.43485     1739.141   -62793.226    1.8918427    0.1659377 
    1600   -900.53199    48.611038   -851.92095    1741.0711    -63508.78    1.8918427    4.6133395 
    1700   -903.49108    49.868015   -853.62307    1786.0914    -68480.33    1.8918427    5.1732844 
    1800   -900.42644    43.561297   -856.86515    1560.2077   -66201.526    1.8918427    8.0402032 
    1900   -897.84105    50.222371   -847.61868    1798.7832   -60796.672    1.8918427     5.537187 
    2000   -903.15441    49.873689   -853.28072    1786.2947   -68183.274    1.8918427    5.6968142 
    2100   -905.58779    50.638843   -854.94895    1813.6997   -67478.438    1.8918427    6.9107366 
    2200   -898.53777    50.448662    -848.0891    1806.8881   -62141.805    1.8918427    14.892516 
    2300   -902.48671    51.212593   -851.27412    1834.2494   -64316.905    1.8918427      15.7474 
    2400    -903.5062     47.62794   -855.87826    1705.8601    -68531.46    1.8918427     10.18346 
    2500   -899.01492     50.94592     -848.069    1824.6981   -64398.948    1.8918427    10.665738 
    2600   -903.41396    51.698116   -851.71584     1851.639   -69157.738    1.8918427    9.0250757 
    2700   -899.96347     48.12581   -851.83766     1723.692   -64082.109    1.8918427    15.221209 
    2800   -899.56732    49.022503   -850.54481    1755.8083   -64769.602    1.8918427    18.085852 
    2900   -902.52898    44.503282    -858.0257    1593.9462   -66511.192    1.8918427    15.234505 
    3000   -898.67584    48.347044   -850.32879    1731.6158   -61185.882    1.8918427     16.48807 
    3100   -903.64443     52.95269   -850.69174    1896.5733    -66359.68    1.8918427    15.035935 
    3200   -904.56399    45.474123   -859.08987    1628.7182   -71465.214    1.8918427     13.32508 
    3300   -904.32843    48.285877   -856.04255     1729.425     -71281.4    1.8918427    13.567441 
    3400   -898.38341    50.042588   -848.34082     1792.344   -66310.265    1.8918427    11.705694 
    3500   -905.78971    50.611907   -855.17781     1812.735   -73117.228    1.8918427    9.9455709 
    3600   -904.20149    44.891562   -859.30992    1607.8529   -71561.893    1.8918427    12.937261 
    3700   -901.10265     52.89317   -848.20948    1894.4415   -65158.662    1.8918427    14.598007 
    3800   -898.55029    45.370645   -853.17964     1625.012   -62136.489    1.8918427    19.555306 
    3900   -905.49602      49.8464   -855.64962    1785.3173   -69449.351    1.8918427    18.177363 
    4000   -900.83731     53.13765   -847.69966    1903.1979   -64943.815    1.8918427    25.242404 
    4100   -902.95694     46.42658   -856.53036    1662.8317   -68510.401    1.8918427    19.869539 
    4200   -902.58814    48.619925   -853.96821    1741.3894   -66088.791    1.8918427    26.057592 
    4300   -903.42056     52.39372   -851.02684    1876.5531   -66055.226    1.8918427     26.33033 
    4400   -905.07665    53.336956   -851.73969    1910.3363   -67489.806    1.8918427    22.832469 
    4500   -903.56044    50.408477   -853.15196    1805.4488     -67228.2    1.8918427     32.15807 
    4600   -903.80584    46.217935    -857.5879    1655.3588   -68235.199    1.8918427     23.51016 
    4700   -902.66325    53.254411   -849.40884    1907.3799   -67864.381    1.8918427    24.576033 
    4800   -903.66966     52.57942   -851.09024    1883.2042   -66266.575    1.8918427    27.679682 
    4900    -906.5276    48.013754   -858.51384    1719.6786   -69152.878    1.8918427    24.425812 
    5000   -901.16416     49.86914   -851.29502    1786.1317   -65859.655    1.8918427    21.341056 
    5100   -897.97824    49.249372   -848.72887    1763.9339   -62951.077    1.8918427    14.683366 
    5200   -905.86511    46.411699   -859.45341    1662.2987   -70971.495    1.8918427    22.333361 
    5300   -902.56634    50.357598   -852.20874    1803.6265   -64764.345    1.8918427    15.048196 
    5400   -903.21627    52.588832   -850.62743    1883.5412   -66651.944    1.8918427    11.972662 
    5500   -905.69923     45.54281   -860.15643    1631.1783    -70172.32    1.8918427    9.1749624 
    5600   -904.05108    46.596094   -857.45499    1668.9031   -69173.729    1.8918427    14.808067 
    5700   -907.18598    56.675266   -850.51072    2029.9025   -69956.229    1.8918427    14.461513 
    5800   -902.58135    50.393551    -852.1878    1804.9142    -64684.19    1.8918427    16.356185 
    5900   -905.10271    45.796777   -859.30593    1640.2745   -68052.612    1.8918427    19.673391 
    6000   -899.93224     48.54511   -851.38713    1738.7098   -65655.972    1.8918427    13.475964 
    6100   -902.31234    48.803684   -853.50866     1747.971   -65663.017    1.8918427    18.548408 
    6200   -908.28637    45.994439   -862.29193     1647.354   -72437.056    1.8918427    15.917574 
    6300   -901.56737    48.359429   -853.20794    1732.0594   -64324.258    1.8918427    16.705849 
    6400   -898.27808    48.604907   -849.67317    1740.8515   -63225.807    1.8918427    17.360811 
    6500   -902.71438    44.605004   -858.10937    1597.5895   -66375.507    1.8918427    18.912611 
    6600   -899.04987    50.577149   -848.47272      1811.49   -61561.553    1.8918427    16.812471 
    6700   -902.16254     50.61082   -851.55172     1812.696    -65394.99    1.8918427    19.283391 
    6800   -906.79588    49.765306   -857.03058    1782.4128    -67905.92    1.8918427    18.343582 
    6900   -899.11648    52.980286   -846.13619    1897.5617   -59765.806    1.8918427     14.76522 
    7000   -904.32304    53.706386   -850.61666     1923.568   -67007.843    1.8918427    17.985328 
    7100   -904.29947    48.042534   -856.25693    1720.7093    -66271.36    1.8918427    13.650714 
    7200   -899.80188    51.744906   -848.05698    1853.3149   -61095.696    1.8918427    22.162522 
    7300   -901.35496    50.434649   -850.92031    1806.3862   -64142.085    1.8918427    15.138718 
    7400   -904.20335    49.284396   -854.91895    1765.1883    -66489.33    1.8918427    17.435484 
    7500   -906.19727    55.314589   -850.88268     1981.168   -68362.545    1.8918427    19.558232 
    7600   -893.61053    52.489396   -841.12113    1879.9798   -56169.602    1.8918427    15.784176 
    7700   -902.04204    49.917208   -852.12483    1787.8534   -65626.638    1.8918427    16.896972 
    7800   -906.61594    51.735761   -854.88018    1852.9873   -70830.906    1.8918427    15.925113 
    7900   -905.75767    56.040997   -849.71667    2007.1853   -68974.531    1.8918427    15.519208 
    8000   -901.31183    51.701095   -849.61074    1851.7457   -66461.627    1.8918427    17.821474 
    8100   -904.29381    47.760579   -856.53324    1710.6107   -69074.496    1.8918427    16.283724 
    8200   -896.83271    46.700371   -850.13233    1672.6379   -61907.968    1.8918427    20.336799 
    8300   -906.07052    49.115504   -856.95501    1759.1392   -71038.135    1.8918427    16.234698 
    8400   -901.39538    45.451795   -855.94358    1627.9185    -69185.58    1.8918427    19.557728 
    8500   -901.75334    51.773011   -849.98032    1854.3215   -67565.586    1.8918427    18.259337 
    8600   -906.28765     49.73872   -856.54894    1781.4606   -70008.876    1.8918427    19.383875 
    8700   -905.58616    47.568171   -858.01799    1703.7194   -69399.723    1.8918427    15.878727 
    8800   -903.22141    50.729597   -852.49181    1816.9502   -69276.012    1.8918427    13.871226 
    8900   -900.60543    51.487231   -849.11819    1844.0859   -68410.085    1.8918427     19.70397 
    8930    -899.4823    50.274161   -849.20814    1800.6381   -65761.008    1.8918427    17.088698 
Loop time of 4.91604 on 1 procs for 8930 steps with 217 atoms

Performance: 263.655 ns/day, 0.091 hours/ns, 1816.504 timesteps/s
100.0% CPU use with 1 MPI tasks x no OpenMP threads

MPI task timing breakdown:
Section |  min time  |  avg time  |  max time  |%varavg| %total
---------------------------------------------------------------
Pair    | 4.7126     | 4.7126     | 4.7126     |   0.0 | 95.86
Neigh   | 0.11286    | 0.11286    | 0.11286    |   0.0 |  2.30
Comm    | 0.039572   | 0.039572   | 0.039572   |   0.0 |  0.80
Output  | 0.0026003  | 0.0026003  | 0.0026003  |   0.0 |  0.05
Modify  | 0.037391   | 0.037391   | 0.037391   |   0.0 |  0.76
Other   |            | 0.01102    |            |       |  0.22

Nlocal:    217 ave 217 max 217 min
Histogram: 1 0 0 0 0 0 0 0 0 0
Nghost:    888 ave 888 max 888 min
Histogram: 1 0 0 0 0 0 0 0 0 0
Neighs:    3636 ave 3636 max 3636 min
Histogram: 1 0 0 0 0 0 0 0 0 0
FullNghs:  7272 ave 7272 max 7272 min
Histogram: 1 0 0 0 0 0 0 0 0 0

Total # of neighbors = 7272
Ave neighs/atom = 33.5115
Neighbor list builds = 206
Dangerous builds = 0
Total wall time: 0:00:04
