LAMMPS (3 Mar 2020)

# ---------- 1. Initialize simulation ----------
units metal
atom_style atomic
dimension 3
boundary p p p
read_data /home/modeler/RemLabs/Project/eval_timestep/n3_T1800_timestep1.167861e-03_steps12844/20201204-074942/lammps.data
  orthogonal box = (0 0 0) to (17.469 17.469 17.469)
  1 by 1 by 1 MPI processor grid
  reading atoms ...
  217 atoms
  read_data CPU = 0.00100799 secs

pair_style meam/c
pair_coeff * * library.meam Li Si LiSi.meam Li Si
Reading potential file library.meam with DATE: 2012-06-29
Reading potential file LiSi.meam with DATE: 2020-11-07

group Li type 1
1 atoms in group Li

velocity all create 1800 3320 dist gaussian

# ---------- 2. Describe computed properties----------
compute msdli Li msd
thermo_style custom step pe ke etotal temp press density c_msdli[4]
thermo 100

# ---------- 3. Specify ensemble  ----------
#fix 1 all nve
fix 1 all nvt temp 1800 1800 0.05839303672725303
#fix 1 all npt temp 1800 1800 0.05839303672725303 tchain 2 iso 1.0 1.0 1.0 pchain 2

# ---------- 4. Run -------------
timestep 0.0011678607345450606
run 12844
Neighbor list info ...
  update every 1 steps, delay 10 steps, check yes
  max neighbors/atom: 2000, page size: 100000
  master list distance cutoff = 6
  ghost atom cutoff = 6
  binsize = 3, bins = 6 6 6
  2 neighbor lists, perpetual/occasional/extra = 2 0 0
  (1) pair meam/c, perpetual
      attributes: full, newton on
      pair build: full/bin/atomonly
      stencil: full/bin/3d
      bin: standard
  (2) pair meam/c, perpetual, half/full from (1)
      attributes: half, newton on
      pair build: halffull/newton
      stencil: none
      bin: none
Per MPI rank memory allocation (min/avg/max) = 9.27 | 9.27 | 9.27 Mbytes
Step PotEng KinEng TotEng Temp Press Density c_msdli[4] 
       0   -951.06911    50.256344   -900.81276         1800    -114182.3    1.8918427            0 
     100   -918.81635    34.009289   -884.80706    1218.0894    -79708.95    1.8918427  0.042304398 
     200    -908.0819    48.187806   -859.89409    1725.9124   -69193.871    1.8918427    0.1183641 
     300   -896.43285    49.994445    -846.4384    1790.6197    -56731.22    1.8918427   0.19555376 
     400   -902.22974    45.741207   -856.48854    1638.2842   -66032.514    1.8918427   0.17986989 
     500   -907.87489    50.693523   -857.18137    1815.6581   -68687.945    1.8918427   0.03946035 
     600   -901.10664     51.91991   -849.18673    1859.5829   -60243.154    1.8918427    0.1888351 
     700   -905.67957    51.263135   -854.41643    1836.0596   -66641.115    1.8918427  0.058447449 
     800   -905.68106    47.627166    -858.0539    1705.8324   -70888.449    1.8918427   0.26307555 
     900   -901.78202     51.08079   -850.70123    1829.5287    -62278.71    1.8918427  0.048382394 
    1000   -902.81429    46.450053   -856.36424    1663.6725   -64371.575    1.8918427  0.097104831 
    1100      -905.46    47.395053   -858.06495    1697.5189   -66299.666    1.8918427  0.079821612 
    1200   -903.72628    51.589622   -852.13666    1847.7532   -63266.315    1.8918427   0.22390617 
    1300   -903.49426    46.426581   -857.06768    1662.8318   -65610.199    1.8918427  0.019817166 
    1400   -907.51187    44.756672   -862.75519    1603.0217   -69707.566    1.8918427   0.15077069 
    1500   -902.11527    49.791655   -852.32362    1783.3565   -64213.893    1.8918427   0.27470746 
    1600   -902.63052    50.757826   -851.87269    1817.9613   -63025.626    1.8918427  0.042667991 
    1700   -909.28366    50.342604   -858.94106    1803.0895   -70012.798    1.8918427   0.14052015 
    1800   -900.40385    48.618908   -851.78494     1741.353   -62586.175    1.8918427   0.67411177 
    1900   -899.84391    48.957272   -850.88664    1753.4719   -63099.424    1.8918427    7.1793197 
    2000   -903.01746    45.220924   -857.79654    1619.6495   -63212.554    1.8918427    13.932564 
    2100   -905.93417    47.538586   -858.39559    1702.6598   -69086.668    1.8918427    11.175228 
    2200   -900.87946     51.28069   -849.59877    1836.6884   -62280.829    1.8918427    14.784939 
    2300   -906.33567    51.158084   -855.17758     1832.297   -69300.092    1.8918427    14.399582 
    2400    -907.7101    50.023583   -857.68652    1791.6633   -69815.364    1.8918427    16.731324 
    2500     -902.535    50.673412   -851.86159    1814.9379    -65977.87    1.8918427    22.114998 
    2600   -900.47866    45.746704   -854.73195     1638.481   -64910.556    1.8918427    18.214633 
    2700   -903.23658    47.998303   -855.23828    1719.1252   -66644.268    1.8918427    15.966148 
    2800   -901.77021    55.300286   -846.46992    1980.6557   -67236.973    1.8918427    15.531813 
    2900   -902.45071    47.401594   -855.04912    1697.7532   -65738.509    1.8918427    10.312513 
    3000   -904.33396    50.095315   -854.23865    1794.2325   -65824.846    1.8918427    14.181531 
    3100   -900.44482    54.106088   -846.33873    1937.8839   -61769.712    1.8918427    10.130634 
    3200   -909.01926    49.940942   -859.07831    1788.7034   -70119.114    1.8918427    11.748278 
    3300   -904.23583    51.647919   -852.58791    1849.8412   -65430.837    1.8918427    13.965603 
    3400   -902.12522    54.165209   -847.96001    1940.0014   -64181.051    1.8918427    2.9035424 
    3500   -906.67098    50.005833   -856.66514    1791.0276   -68724.561    1.8918427    7.5647301 
    3600   -903.94689    50.598597    -853.3483    1812.2583    -67264.72    1.8918427    6.3336015 
    3700   -901.90007    51.758368    -850.1417     1853.797   -63807.708    1.8918427    6.2755972 
    3800   -907.41917     47.69503   -859.72414     1708.263   -71248.808    1.8918427    4.9719028 
    3900   -901.94942    45.184017    -856.7654    1618.3276   -67303.255    1.8918427    4.6239647 
    4000   -899.68443    48.416711   -851.26772     1734.111   -62824.627    1.8918427    4.2025755 
    4100   -907.39072    50.656787   -856.73393    1814.3424   -71749.323    1.8918427    6.0265546 
    4200   -908.98038    52.848272    -856.1321    1892.8334   -70535.993    1.8918427    6.7993035 
    4300   -901.62809    54.274848   -847.35324    1943.9282    -64000.21    1.8918427    7.4231562 
    4400   -905.32024     50.73294    -854.5873    1817.0699   -69956.095    1.8918427    4.4568415 
    4500   -905.06686    47.093871   -857.97299    1686.7317   -68143.501    1.8918427    5.9807623 
    4600   -900.74677    48.162991   -852.58378    1725.0237   -63751.691    1.8918427    5.1272164 
    4700   -904.38697    55.324953   -849.06201    1981.5392   -65712.649    1.8918427    6.5290693 
    4800   -902.56644    51.538897   -851.02754    1845.9364   -67174.967    1.8918427    7.1678477 
    4900   -904.63544    46.340768   -858.29467    1659.7583   -69696.667    1.8918427    6.4668291 
    5000   -901.12296    52.669504   -848.45346    1886.4306   -64996.576    1.8918427    6.0161066 
    5100   -900.74969    48.607501   -852.14219    1740.9444   -64979.342    1.8918427     8.740717 
    5200    -906.9111     50.13095   -856.78015    1795.5088   -68557.438    1.8918427       3.7555 
    5300   -900.05158    55.256819   -844.79476    1979.0989   -65145.691    1.8918427    3.8471989 
    5400   -904.80626    51.478678   -853.32758    1843.7795   -68763.184    1.8918427    15.148269 
    5500   -901.93185    48.889563   -853.04228    1751.0468   -66288.531    1.8918427    7.3582007 
    5600   -899.56294    54.249477   -845.31346    1943.0195   -63657.072    1.8918427    3.9195178 
    5700   -899.21374    45.346807   -853.86693    1624.1582    -63299.67    1.8918427    13.298822 
    5800   -899.85891    45.757463   -854.10145    1638.8664   -63125.517    1.8918427     14.53407 
    5900   -901.23018    52.423866   -848.80631    1877.6328   -63056.009    1.8918427    5.2759474 
    6000   -902.72322     49.87168   -852.85154    1786.2227   -67165.927    1.8918427     7.508039 
    6100    -904.5416    51.883621   -852.65798    1858.2832   -68319.289    1.8918427    5.9246338 
    6200   -902.04911    53.706368   -848.34274    1923.5674   -63213.494    1.8918427    6.9198238 
    6300   -903.52226    48.558323   -854.96394     1739.183   -67549.465    1.8918427    6.1162983 
    6400    -905.1291    49.285409   -855.84369    1765.2246   -68179.223    1.8918427    6.6186104 
    6500   -899.47197    51.635728   -847.83624    1849.4045   -64731.212    1.8918427    11.997668 
    6600   -906.84548    50.375424   -856.47005     1804.265   -73340.604    1.8918427    6.2877141 
    6700   -901.88493    46.803754   -855.08118    1676.3407   -67374.981    1.8918427    2.3736085 
    6800   -903.12131    52.727941   -850.39337    1888.5236   -66265.792    1.8918427    5.6932839 
    6900   -900.93177    47.497645   -853.43412    1701.1934   -65869.206    1.8918427    4.5919592 
    7000   -908.51661    46.309587   -862.20703    1658.6415   -73205.104    1.8918427    6.3921729 
    7100   -899.98755    46.865207   -853.12235    1678.5418   -63466.815    1.8918427    5.4995714 
    7200   -901.35963     50.49742   -850.86221    1808.6345   -63979.558    1.8918427    12.171385 
    7300   -904.35525    45.747945    -858.6073    1638.5255   -68159.667    1.8918427    6.2431835 
    7400   -902.29245    49.233756   -853.05869    1763.3746   -66321.096    1.8918427    5.9285777 
    7500   -900.29344     50.75128   -849.54216    1817.7268    -63401.89    1.8918427    6.4826991 
    7600   -904.25796     46.82727   -857.43068     1677.183   -66726.105    1.8918427    7.4527884 
    7700    -902.3287    52.005946   -850.32275    1862.6644   -66089.608    1.8918427    1.9878386 
    7800   -899.63861    52.768041   -846.87057    1889.9599   -63750.422    1.8918427    4.5768323 
    7900   -902.94453     48.18827   -854.75626    1725.9291   -65606.756    1.8918427    8.4482049 
    8000   -900.40805    51.508125   -848.89993    1844.8343   -63236.389    1.8918427    3.8098492 
    8100   -899.79512    47.542278   -852.25284     1702.792   -64748.116    1.8918427    6.8778074 
    8200   -905.63997    48.304798   -857.33517    1730.1027   -71241.347    1.8918427      6.51162 
    8300   -901.47937     52.06167    -849.4177    1864.6602   -67596.778    1.8918427    5.8945264 
    8400   -906.00078    51.361053   -854.63972    1839.5666   -69797.001    1.8918427    5.0258083 
    8500   -904.45364    47.327542    -857.1261    1695.1009   -70181.003    1.8918427    7.7670516 
    8600   -904.73093    53.640212   -851.09072    1921.1979   -67648.473    1.8918427    3.6624465 
    8700   -900.29167    50.341464    -849.9502    1803.0487     -65074.4    1.8918427    6.2007593 
    8800   -907.92635    51.108119   -856.81823    1830.5075   -71467.381    1.8918427    5.3970854 
    8900   -903.65529     51.28833   -852.36696     1836.962   -65023.011    1.8918427   0.76273629 
    9000   -899.77616    50.436828   -849.33933    1806.4643   -64959.389    1.8918427   0.17179008 
    9100   -905.03828    45.550719   -859.48756    1631.4616    -68904.84    1.8918427   0.36519415 
    9200   -900.86788     49.54665   -851.32123    1774.5813   -64927.053    1.8918427    1.1532618 
    9300   -902.36012    53.122168   -849.23795    1902.6434   -65314.031    1.8918427    1.1905596 
    9400   -905.93435    47.769239   -858.16511    1710.9209   -66358.536    1.8918427   0.71814172 
    9500    -899.1391    48.452785   -850.68631    1735.4031   -65033.851    1.8918427   0.14753892 
    9600   -896.65904    45.747549   -850.91149    1638.5113   -63075.506    1.8918427    1.0941865 
    9700   -897.78008    40.118363   -857.66172    1436.8943    -65107.98    1.8918427    2.1783717 
    9800   -906.12131    44.493672   -861.62764     1593.602    -71658.15    1.8918427   0.44736414 
    9900   -900.41607    50.959219   -849.45685    1825.1744   -66158.359    1.8918427   0.21242931 
   10000   -900.60051    48.109797   -852.49071    1723.1185   -64442.542    1.8918427    3.2517117 
   10100   -904.86001    46.215229   -858.64478    1655.2619   -67961.595    1.8918427    3.1084961 
   10200   -897.30279    48.762616   -848.54017    1746.5001   -60916.366    1.8918427    8.8614798 
   10300    -903.8174    52.054118   -851.76328    1864.3897   -68323.935    1.8918427    8.0643841 
   10400   -904.06156    48.670635   -855.39093    1743.2056   -68136.754    1.8918427    14.589918 
   10500   -901.10865    50.438521   -850.67012    1806.5249   -65892.705    1.8918427    14.114614 
   10600   -903.13892     52.50427   -850.63465    1880.5125   -64587.413    1.8918427    7.6108724 
   10700   -904.87445     49.79663   -855.07782    1783.5347   -67820.987    1.8918427    7.3647947 
   10800   -906.15346    44.106515   -862.04695    1579.7354   -70617.946    1.8918427    13.145111 
   10900   -901.27675    48.925191   -852.35156    1752.3229   -66069.087    1.8918427    7.0925901 
   11000   -896.92684    47.343914   -849.58292    1695.6873   -63242.289    1.8918427    5.8566177 
   11100   -905.60898    49.258599   -856.35038    1764.2644    -68198.52    1.8918427    6.1883402 
   11200   -906.30187    53.186053   -853.11582    1904.9316   -71021.375    1.8918427    9.0708065 
   11300    -902.2038    52.090099    -850.1137    1865.6784   -62472.977    1.8918427    7.1995283 
   11400   -906.63958    49.209937   -857.42964    1762.5215   -69995.201    1.8918427    6.0922381 
   11500   -903.31967    45.926905   -857.39277    1644.9352   -65235.526    1.8918427    6.8772142 
   11600   -902.92862    49.749418    -853.1792    1781.8438   -65948.926    1.8918427     7.432009 
   11700   -903.78556    51.453667   -852.33189    1842.8837   -66312.881    1.8918427    6.3247662 
   11800    -907.4468    49.290148   -858.15665    1765.3943   -69846.337    1.8918427    6.0530282 
   11900   -905.31741    52.387746   -852.92966    1876.3391   -68896.915    1.8918427    6.3732659 
   12000   -904.29697       53.443   -850.85397    1914.1344   -66589.867    1.8918427    6.7463393 
   12100   -902.93587    45.868118   -857.06776    1642.8296   -66905.104    1.8918427    5.7298658 
   12200   -905.89206    44.028139   -861.86393    1576.9283   -70891.135    1.8918427    5.2650053 
   12300   -901.77967    50.284909   -851.49476    1801.0231   -66843.139    1.8918427    7.2732057 
   12400   -901.68265    50.559738   -851.12291    1810.8665   -67006.888    1.8918427    7.0288284 
   12500   -906.72958    46.496767   -860.23281    1665.3456   -70542.098    1.8918427    7.4757352 
   12600   -901.81994    48.386599   -853.43334    1733.0325   -64159.529    1.8918427    4.8587021 
   12700   -902.77137    50.130469    -852.6409    1795.4916   -66950.562    1.8918427    6.9562872 
   12800   -901.74293    47.232695   -854.51024    1691.7038   -65091.974    1.8918427    6.7886623 
   12844   -902.41354    47.670152   -854.74339     1707.372   -64314.024    1.8918427    6.9190758 
Loop time of 7.09263 on 1 procs for 12844 steps with 217 atoms

Performance: 182.725 ns/day, 0.131 hours/ns, 1810.895 timesteps/s
99.9% CPU use with 1 MPI tasks x no OpenMP threads

MPI task timing breakdown:
Section |  min time  |  avg time  |  max time  |%varavg| %total
---------------------------------------------------------------
Pair    | 6.8363     | 6.8363     | 6.8363     |   0.0 | 96.39
Neigh   | 0.12539    | 0.12539    | 0.12539    |   0.0 |  1.77
Comm    | 0.055422   | 0.055422   | 0.055422   |   0.0 |  0.78
Output  | 0.0040381  | 0.0040381  | 0.0040381  |   0.0 |  0.06
Modify  | 0.054294   | 0.054294   | 0.054294   |   0.0 |  0.77
Other   |            | 0.01716    |            |       |  0.24

Nlocal:    217 ave 217 max 217 min
Histogram: 1 0 0 0 0 0 0 0 0 0
Nghost:    891 ave 891 max 891 min
Histogram: 1 0 0 0 0 0 0 0 0 0
Neighs:    3584 ave 3584 max 3584 min
Histogram: 1 0 0 0 0 0 0 0 0 0
FullNghs:  7168 ave 7168 max 7168 min
Histogram: 1 0 0 0 0 0 0 0 0 0

Total # of neighbors = 7168
Ave neighs/atom = 33.0323
Neighbor list builds = 228
Dangerous builds = 0
Total wall time: 0:00:07
