LAMMPS (3 Mar 2020)
Reading data file ...
  orthogonal box = (0 0 0) to (17.469 17.469 17.469)
  1 by 1 by 1 MPI processor grid
  reading atoms ...
  217 atoms
  read_data CPU = 0.00102529 secs
Reading potential file library.meam with DATE: 2012-06-29
Reading potential file LiSi.meam with DATE: 2020-11-07
1 atoms in group Li
216 atoms in group Si
Neighbor list info ...
  update every 1 steps, delay 10 steps, check yes
  max neighbors/atom: 2000, page size: 100000
  master list distance cutoff = 6
  ghost atom cutoff = 6
  binsize = 3, bins = 6 6 6
  2 neighbor lists, perpetual/occasional/extra = 2 0 0
  (1) pair meam/c, perpetual
      attributes: full, newton on
      pair build: full/bin/atomonly
      stencil: full/bin/3d
      bin: standard
  (2) pair meam/c, perpetual, half/full from (1)
      attributes: half, newton on
      pair build: halffull/newton
      stencil: none
      bin: none
Setting up Verlet run ...
  Unit style    : metal
  Current step  : 0
  Time step     : 0.003
Per MPI rank memory allocation (min/avg/max) = 8.895 | 8.895 | 8.895 Mbytes
Step Temp E_pair E_mol TotEng Press Volume 
       0         1800   -951.04357            0   -900.78722   -114161.75    5330.9442 
    3200    1793.7203    -941.0935            0   -891.01249    -26.51401    4673.0079 
Loop time of 2.27222 on 1 procs for 3200 steps with 217 atoms

Performance: 365.034 ns/day, 0.066 hours/ns, 1408.312 timesteps/s
100.0% CPU use with 1 MPI tasks x no OpenMP threads

MPI task timing breakdown:
Section |  min time  |  avg time  |  max time  |%varavg| %total
---------------------------------------------------------------
Pair    | 2.1576     | 2.1576     | 2.1576     |   0.0 | 94.96
Neigh   | 0.06442    | 0.06442    | 0.06442    |   0.0 |  2.84
Comm    | 0.015321   | 0.015321   | 0.015321   |   0.0 |  0.67
Output  | 2.4365e-05 | 2.4365e-05 | 2.4365e-05 |   0.0 |  0.00
Modify  | 0.029679   | 0.029679   | 0.029679   |   0.0 |  1.31
Other   |            | 0.005142   |            |       |  0.23

Nlocal:    217 ave 217 max 217 min
Histogram: 1 0 0 0 0 0 0 0 0 0
Nghost:    957 ave 957 max 957 min
Histogram: 1 0 0 0 0 0 0 0 0 0
Neighs:    4130 ave 4130 max 4130 min
Histogram: 1 0 0 0 0 0 0 0 0 0
FullNghs:  8260 ave 8260 max 8260 min
Histogram: 1 0 0 0 0 0 0 0 0 0

Total # of neighbors = 8260
Ave neighs/atom = 38.0645
Neighbor list builds = 109
Dangerous builds = 5
Setting up Verlet run ...
  Unit style    : metal
  Current step  : 3200
  Time step     : 0.003
Per MPI rank memory allocation (min/avg/max) = 9.663 | 9.663 | 9.663 Mbytes
Step PotEng KinEng TotEng Temp Press Density c_msdli[4] c_msdsi[4] 
    3200    -941.0935    50.081013   -891.01249    1793.7203    -26.51401    2.1582048            0 2.1056834e-32 
    3300   -942.48977    45.021212   -897.46855    1612.4966   -4773.7487    2.1492869  0.069776967   0.10054097 
    3400   -940.39412    52.445494   -887.94862    1878.4074    4527.3953    2.1650076   0.32049771   0.11529615 
    3500     -941.294    54.405418   -886.88858    1948.6048    6703.1408    2.1720604  0.050059152   0.10538304 
    3600   -939.22038    46.143775    -893.0766    1652.7027   -7575.6208    2.1362361   0.45833229   0.12947455 
    3700   -936.25404    48.724758   -887.52928    1745.1441   -1685.7116    2.1475348  0.068294306   0.11483502 
    3800   -939.58743    57.798881   -881.78855    2070.1463    4443.9264    2.1617295   0.41095287   0.11180985 
    3900   -939.85515    49.418122   -890.43702    1769.9779   -4583.3056    2.1434149    0.2926203   0.12466346 
    4000   -939.77995    49.228158   -890.55179    1763.1741    -4264.805    2.1480033   0.07342942   0.12219643 
    4100   -934.55128    52.925892   -881.62538    1895.6135    10281.617    2.1689704    3.5967491   0.15109902 
    4200    -938.1715    52.502789   -885.66872    1880.4595   -2200.5979    2.1503002    3.9738309   0.19076992 
    4300   -940.51586    48.631391   -891.88447    1741.8001   -8277.0862    2.1424469    7.8271632   0.17360937 
    4400   -937.69039    53.279786    -884.4106    1908.2887    8763.6119    2.1749331     2.599426   0.17356258 
    4500   -941.92795    54.054638   -887.87331    1936.0411   -1627.4983    2.1524797    5.6894939   0.16955495 
    4600   -942.50053    47.627297   -894.87323    1705.8371   -10101.974     2.138843    4.4152489   0.17333175 
    4700   -939.32164    52.322795   -886.99884    1874.0128    6085.4201    2.1728177    5.1100165   0.17185069 
    4800   -944.11386    55.270625   -888.84324    1979.5934    2434.5638    2.1700474    8.7675227   0.15470237 
    4900   -941.56501    44.155061   -897.40995    1581.4741   -6370.7836    2.1475407    10.122284   0.14562923 
    5000   -939.22351    49.466194   -889.75732    1771.6997    872.03996    2.1580158    8.6351461   0.14709575 
    5100   -940.65416    53.942171   -886.71199     1932.013    8524.1121    2.1782191    7.9021043   0.15969885 
    5200   -944.36673    48.162607   -896.20412    1725.0099   -5362.6259    2.1575856    6.2467471   0.16016457 
    5300   -937.90212    47.595082   -890.30704    1704.6832   -4199.9362    2.1435965    7.5214041   0.16713028 
    5400   -938.46125    53.397567   -885.06368    1912.5072    7147.9886    2.1719383     8.219804   0.17284007 
    5500   -943.37569    50.096011   -893.27968    1794.2574   -1541.9386    2.1647608    9.5030774   0.17177657 
    5600   -940.21698    50.039441   -890.17753    1792.2313   -7953.1365    2.1418033    8.4062981   0.16593764 
    5700   -934.69778    50.818817   -883.87896    1820.1457    3455.6301    2.1553041    8.7695717   0.16600197 
    5800   -939.15981    47.301687   -891.85812    1694.1749    7480.0172    2.1767491    7.7844385   0.15925066 
    5900   -940.99698    48.663599   -892.33339    1742.9536   -5154.1257    2.1490962    7.4385326   0.15422926 
    6000   -938.50155    55.032439   -883.46911    1971.0624   -6986.3403    2.1359807    6.5592855   0.17745869 
    6100   -943.15092    50.883702   -892.26722    1822.4697    8318.1988    2.1850981    8.0795943   0.15681773 
    6200   -940.48291    47.862492   -892.62042    1714.2609   -2952.6669    2.1516841     9.705174   0.15717735 
    6300   -935.27034    48.764292   -886.50605    1746.5601    -7762.368    2.1266518    8.5053246   0.16488963 
    6400   -942.73277    49.736476   -892.99629    1781.3802    9197.0227    2.1864738    6.7515806   0.14400968 
    6500   -945.45288     50.70346   -894.74942    1816.0141    1213.0331    2.1704691    7.3959466   0.13425895 
    6600   -939.62843    50.449274   -889.17916      1806.91    -12728.53    2.1250301    10.822438   0.15356527 
    6700   -939.76952     53.12491   -886.64461    1902.7416    2970.9376    2.1586601    6.1754194   0.14343293 
    6800   -943.08142    48.226095   -894.85532    1727.2838    13752.242    2.2014574     5.112246   0.15915762 
    6900   -935.78243    47.933153   -887.84927    1716.7917   -11494.923    2.1172907    6.7887551   0.16443238 
    7000    -937.9985       50.657    -887.3415      1814.35   -3728.7201     2.143113    4.9859676   0.14128636 
    7100   -942.00487    51.208249   -890.79662    1834.0938     14848.79    2.1992519    6.8546513   0.13740762 
    7200   -941.31848    45.007754   -896.31072    1612.0145   -4256.6269    2.1518835    9.0397391   0.15262213 
    7300    -938.4331    52.687204    -885.7459    1887.0646    -9652.902    2.1262535    8.8288431   0.15403919 
    7400    -938.1379    49.434843   -888.70306    1770.5768    8131.0083    2.1747176    5.4769543    0.1724832 
    7500   -940.55416    47.175347   -893.37881    1689.6498    858.08767    2.1648905    1.4747071   0.16678272 
    7600    -939.5659    54.968848   -884.59705    1968.7848   -8318.5141    2.1337569    3.9703278   0.17881913 
    7700   -941.86735    52.530727   -889.33662    1881.4601    2450.3873    2.1662861    5.9116575   0.18139525 
    7800   -943.95317    51.029069   -892.92411    1827.6762    2850.6704    2.1713206    4.6821638   0.17613667 
    7900   -935.89778    50.288945   -885.60884    1801.1676   -2905.6939     2.139355    6.4502986   0.18425047 
    8000   -938.21011     50.75185   -887.45826    1817.7472   -2523.1875    2.1475605    3.5311414   0.17982015 
    8100   -941.69869    48.401292    -893.2974    1733.5587    7284.6106    2.1793338    3.9280068   0.16684304 
    8200   -942.06309    56.136789    -885.9263    2010.6162   -5213.6234    2.1472061    5.3657839   0.17818702 
    8300   -943.28527    55.670533   -887.61473    1993.9166   -8648.1178    2.1402228    6.9997564   0.18962864 
    8400   -943.33387    49.251199   -894.08267    1763.9993    5064.9525    2.1802968    3.8117455   0.19267916 
    8500   -939.75799    54.600988   -885.15701    1955.6094    -349.7081    2.1583866    4.4896478   0.17983243 
    8600   -937.26954    49.333976   -887.93557    1766.9641   -7149.2033     2.133625    3.7408595   0.18387254 
    8700   -943.60317    49.396556   -894.20662    1769.2055    486.76371    2.1681567    3.7719045    0.1781309 
    8800   -936.22698    49.741265   -886.48571    1781.5517    13947.343    2.1854938    4.0492271   0.18674848 
    8900   -938.10216    51.728996   -886.37316     1852.745   -9148.1362    2.1326154    7.7367415   0.19050267 
    9000   -943.33497    48.134052   -895.20092    1723.9872   -10972.737    2.1433562    3.7705872   0.17700112 
    9100   -940.10866    51.266244   -888.84242    1836.1709    13050.519    2.1926319    4.5265628   0.20177082 
    9200   -939.62268    54.857053   -884.76562    1964.7807    1468.2499    2.1585533    4.7752036   0.18723756 
    9300   -942.23616    49.823959   -892.41221    1784.5135   -12574.498    2.1332158    3.0102289   0.17440444 
    9400   -940.21092    48.372015    -891.8389    1732.5102    1677.9209    2.1688169    4.7143868     0.186292 
    9500   -938.60802     55.55118   -883.05684    1989.6418     3591.583    2.1666688    2.1563499   0.19427796 
    9600   -941.08522    49.515624   -891.56959    1773.4701   -1789.3652    2.1542293     5.567855   0.18889461 
    9700   -939.56625    46.952118   -892.61413    1681.6546   -911.73566    2.1575255      4.71946   0.18031164 
    9800   -936.03796     52.90289   -883.13507    1894.7897    3405.9843    2.1602436    9.3193647   0.18421382 
    9900   -942.11567    51.941501   -890.17417    1860.3562    1681.9658    2.1662273    10.249748   0.16180487 
   10000   -940.49117     48.56991   -891.92126    1739.5981   -2329.0504    2.1557918    7.1049829   0.16289881 
   10100   -941.30246    57.772706   -883.52975    2069.2088   -1945.6653    2.1564786    14.268199   0.15551977 
   10200   -940.79273    49.284698   -891.50803    1765.1991      2635.16    2.1711502    16.173561   0.16240356 
   10300   -939.97376    47.902026   -892.07173    1715.6768   -5483.7634    2.1499505    13.584412   0.17813444 
   10400   -939.68677    55.441541   -884.24523    1985.7149   -6122.2636    2.1452494    15.294919   0.17406744 
   10500   -943.00008    51.528506   -891.47158    1845.5642    7093.3845    2.1854061    12.010708   0.14943805 
   10600   -940.06007     45.68707     -894.373    1636.3452   -3238.3032    2.1594164    12.875989    0.1643968 
   10700   -940.37009    53.909938   -886.46016    1930.8585    -12529.44    2.1338426    12.678897   0.17788697 
   10800   -939.52976     49.39708   -890.13268    1769.2243    12906.454    2.1961279    13.803408   0.17183982 
   10900    -941.7525    47.422598    -894.3299    1698.5055    3738.7034    2.1772124    13.063871    0.1703032 
   11000   -937.47534    48.651568   -888.82377    1742.5227   -16664.032     2.119664    14.489654   0.17141305 
   11100   -934.59821    49.408039   -885.19017    1769.6168    7431.2412    2.1688933    13.627453   0.17205693 
   11200   -942.03511    49.014306   -893.02081    1755.5147    14332.627    2.2032112    13.616844   0.16762389 
   11300   -940.81323     50.49411   -890.31912    1808.5159   -13331.578    2.1313351    13.498606   0.17658238 
   11400   -933.79391    48.336695   -885.45722    1731.2451   -2038.1011    2.1422659    14.200237   0.15800606 
   11500     -943.838    51.993155   -891.84485    1862.2063    8873.0995    2.1898271    13.279066   0.16282496 
   11600   -943.14734    48.988706   -894.15863    1754.5978   -2716.0008    2.1608345    15.823529   0.15937102 
   11700   -937.31471    52.363223   -884.95149    1875.4607   -7206.9131     2.132961    12.296462   0.17083623 
   11800   -943.20421    51.018306    -892.1859    1827.2907    4764.8041    2.1783371     13.08603   0.16006349 
   11900     -942.172    48.920692   -893.25131    1752.1618    2110.0282    2.1694928    12.272029   0.16142704 
   12000   -937.26336    51.818246   -885.44512    1855.9416   -5648.7091    2.1348975    14.551315   0.16569055 
   12100   -940.99854    47.822351   -893.17619    1712.8232    1693.7013    2.1654185    13.493492    0.1450701 
   12200   -941.47406     48.40889   -893.06517    1733.8309    6128.6216    2.1756483    15.601278    0.1478386 
   12300   -938.06553    51.935862   -886.12967    1860.1542   -4022.7004    2.1443371    15.276267   0.15760765 
   12400   -943.35444    51.238755   -892.11568    1835.1864   -5481.9497    2.1510361    16.262585   0.16039464 
   12500    -944.7563    50.846998    -893.9093    1821.1551    5896.3186    2.1811027    14.192165   0.15696017 
   12600   -941.17048    55.724709   -885.44577     1995.857     252.9339    2.1554355    11.204525   0.14571036 
   12700    -938.9229     47.79704   -891.12586    1711.9166    -9714.603     2.132982    13.810787   0.15476837 
   12800   -941.48385     47.43868   -894.04517    1699.0815      6443.48    2.1782256    12.502771   0.14533344 
   12900   -941.74751    57.983734   -883.76377    2076.7671    8266.4456    2.1759458    14.259133   0.15650011 
   13000   -940.03197    51.080492   -888.95148     1829.518   -10953.784    2.1274211    14.495981   0.14720114 
   13100   -939.42487    45.108024   -894.31684    1615.6058   -144.39452    2.1554678    15.014669   0.15062433 
   13200   -939.54684     49.96558   -889.58126    1789.5859    18649.606    2.1996137    13.129475   0.14472292 
   13300    -932.6337     47.09585   -885.53785    1686.8025   -1865.5802    2.1352126    12.892953   0.15435272 
   13400   -939.97682    45.124811     -894.852    1616.2071   -5570.2455    2.1409653    14.165828   0.15787472 
   13500   -940.79082    50.010414   -890.78041    1791.1916    6434.8735    2.1792515    13.001554    0.1590326 
   13600   -933.72788    49.026919   -884.70096    1755.9664    3925.2715    2.1538316    14.677616   0.15809752 
   13700   -940.85765     46.81333   -894.04432    1676.6837   -5086.0237     2.149719    14.476246   0.15859896 
   13800   -941.73205    49.004659   -892.72739    1755.1692   -1161.2124    2.1647379    14.833369   0.15787607 
   13900   -940.54519    55.515105   -885.03008    1988.3497    2154.5061    2.1626939    13.758184   0.15449429 
   14000    -939.0204    46.746643   -892.27376    1674.2952   -3682.8158    2.1493237    15.724105   0.14190463 
   14100    -941.6237    47.470281   -894.15342    1700.2133   -53.923119    2.1607497    12.485247   0.14601905 
   14200   -936.48498    51.638408   -884.84657    1849.5005    5641.8148    2.1659731    13.576264   0.15294065 
   14300   -942.30151    50.809315   -891.49219    1819.8054   -877.83649    2.1581969    12.773261   0.15148187 
   14400   -942.51422      47.6234   -894.89082    1705.6975   -6558.3422    2.1545272    12.052781   0.15982747 
   14500   -936.27946    51.687345   -884.59212    1851.2532    2663.2424    2.1605898    13.442989   0.17596774 
   14600   -940.47909    51.018075   -889.46101    1827.2824    5774.0444    2.1729062    13.249995   0.16083347 
   14700   -945.84516    50.540514   -895.30465    1810.1779   -12261.395    2.1406875     13.17391   0.15778076 
   14800   -937.93328    51.281583   -886.65169    1836.7203    288.54469    2.1520097    17.329431    0.1583743 
   14900   -933.03392     48.16479   -884.86913    1725.0881    21578.577    2.2019122    11.630936   0.16514909 
   15000     -939.489    45.402391   -894.08661     1626.149   -9215.1353    2.1417537    12.188544   0.16848201 
   15100   -939.92621    48.941199   -890.98501    1752.8963   -11800.948    2.1336222    11.345482   0.16780567 
   15200   -932.90124    49.156781   -883.74446    1760.6176    19140.038    2.1861105    14.586454   0.18606738 
   15300   -947.05377    53.617661   -893.43611    1920.3902   -1113.3607    2.1691227    12.903829   0.15513702 
   15400   -939.68465    46.871675   -892.81298    1678.7734   -7833.0907    2.1380406    14.101075   0.16199322 
   15500   -938.63328    53.883212   -884.75007    1929.9013    2010.4323    2.1587633    13.061247   0.16366611 
   15600    -942.8556    51.127421   -891.72818    1831.1988    4487.5335    2.1770866    13.743163   0.15640486 
   15700   -942.12493    47.651125   -894.47381    1706.6905   -4844.5146    2.1532224    13.640055   0.15304789 
   15800   -937.40335    52.289122   -885.11423    1872.8067    -3546.578    2.1431246    12.062309   0.15255215 
   15900   -939.00106    47.452245   -891.54881    1699.5673    8417.0359     2.181616    11.225374   0.16420739 
   16000   -943.86791     49.71542   -894.15249     1780.626   -1229.7174    2.1639215    16.313023   0.14921921 
   16100   -935.79755    50.101079   -885.69647     1794.439   -5167.0417    2.1377785    12.797222   0.16250723 
   16200   -947.61973     55.43338   -892.18635    1985.4226     1593.683    2.1783253    14.033216   0.14850959 
   16300   -944.83975    51.047693   -893.79206    1828.3432    2240.8922    2.1744013    13.047766   0.15800149 
   16400   -937.23217    50.384947   -886.84723    1804.6061    -9470.285    2.1342472     12.77242   0.15695079 
   16500   -938.43337    48.077964   -890.35541    1721.9783    3616.4419    2.1632207    12.310513   0.14960287 
   16600   -944.18252    50.863165   -893.31935    1821.7341    8730.5856    2.1868113    8.2423972    0.1568657 
   16700   -936.93987    51.233112   -885.70676    1834.9843   -9654.5872    2.1270535    13.944223   0.16687936 
   16800   -938.93839    48.617034   -890.32135    1741.2858   -9484.9088    2.1332789    13.285855   0.16673385 
   16900   -940.89784     49.21271   -891.68513    1762.6208    17523.016    2.2052941    13.522128     0.157225 
   17000   -934.41976    49.589459   -884.83031    1776.1146    778.07106    2.1512358     13.31995   0.15986099 
   17100   -939.65539    52.820779   -886.83461    1891.8488   -17349.602    2.1153567    14.276592   0.16769727 
   17200   -940.59933    48.053116   -892.54621    1721.0884    6641.7011    2.1821883    12.517325   0.14981247 
   17300   -940.39261    48.761173   -891.63143    1746.4484    8738.1904    2.1832082    12.532693   0.16718567 
   17400   -933.42487    48.657854   -884.76702    1742.7479   -6506.8816    2.1259291    14.267028    0.1529712 
   17500   -940.52447    46.131788   -894.39269    1652.2733    3785.2332    2.1692802    13.984357    0.1480287 
   17600   -942.78309    51.434441   -891.34865    1842.1952    5644.0295    2.1787865    14.603316   0.15134914 
   17700   -939.28478    53.197466   -886.08732    1905.3403    -5036.876    2.1445588    12.866406   0.15462478 
   17800   -941.92512    47.456665   -894.46846    1699.7256   -4371.1949    2.1589763    12.814356    0.1536812 
   17900   -941.29072    47.884238   -893.40648    1715.0398     6127.519    2.1783362    12.783662   0.15337899 
   18000   -936.37544     49.69887   -886.67657    1780.0333    2083.3721    2.1620243    12.075068   0.16145506 
   18100   -940.73193    48.816772   -891.91516    1748.4397   -5368.5412    2.1460353    14.752252   0.14427271 
   18200    -944.7447    49.432763   -895.31193    1770.5023    4395.7461    2.1773861    10.967997   0.14033853 
   18300   -940.67493    54.858294   -885.81664    1964.8251    5479.0252    2.1713031    13.531829   0.15479011 
   18400   -939.66804    48.802233   -890.86581     1747.919   -6561.5807    2.1448242    14.154547   0.15137476 
   18500   -944.13043    48.249782   -895.88064    1728.1322   -1848.6781    2.1620447    15.344373   0.14548294 
   18600   -944.22601    57.764222   -886.46179    2068.9049     9750.822     2.191288    11.423901   0.14898158 
   18700   -939.10551     51.82125   -887.28426    1856.0492     -3272.92    2.1474348    18.337037   0.14865613 
   18800   -942.51607    48.356092   -894.15998    1731.9399   -17101.212    2.1234619    12.505052   0.16575431 
   18900   -939.59992    50.769415   -888.83051    1818.3763    15062.701    2.1974426    12.814127   0.17664993 
   19000   -935.07912    51.984659   -883.09446     1861.902    5412.9837    2.1651833    14.635593   0.17129977 
   19100   -941.40299    49.418894   -891.98409    1770.0056   -12689.208    2.1288426    13.959697   0.15885937 
   19200   -941.44166    49.452997   -891.98866     1771.227    1522.4758    2.1695918    16.348012   0.15860952 
   19300   -938.41841    52.829789   -885.58862    1892.1715    5178.5703    2.1770742    16.190171    0.1830296 
   19400   -938.94353    50.083448   -888.86008    1793.8075   -10537.169    2.1366778    14.678342   0.17068437 
   19500   -941.55154    46.553403   -894.99814    1667.3741    855.24417    2.1682627    13.189821   0.17116589 
   19600   -942.22616     55.52077   -886.70539    1988.5526    8352.8239     2.178431    11.829397   0.16147633 
   19700   -943.19141    52.900224   -890.29118    1894.6942   -4531.7832     2.151538    12.858052   0.16209103 
   19800   -945.35743    47.545043   -897.81239     1702.891   -5877.8177    2.1621933    14.271007   0.17064183 
   19900   -942.51834    54.443175   -888.07516    1949.9571    1248.0704    2.1711281    16.428314   0.16287482 
   20000   -945.35101    56.344562   -889.00645    2018.0579   -865.98817    2.1657064    13.802073   0.16570001 
   20100   -945.54597    49.559846   -895.98612     1775.054   -7456.5073    2.1523456    12.562487   0.15084004 
   20200   -942.56065     53.49122   -889.06943    1915.8615    4466.9069    2.1683636    13.297413   0.15307837 
   20300   -937.86913    51.635028    -886.2341    1849.3794    7388.5335    2.1713027    12.587509   0.15881545 
   20400   -941.79255    47.968076   -893.82447    1718.0425   -8675.3893    2.1394532    14.619268   0.15010745 
   20500   -942.61678    53.946965   -888.66982    1932.1846   -2127.1064    2.1560821    14.765122   0.15381479 
   20600   -939.71529    58.182456   -881.53283    2083.8846    9592.6337     2.176358     12.80867   0.16113985 
   20700    -939.3885    47.996335   -891.39217    1719.0547    -6067.892    2.1463428    15.009787   0.14822513 
   20800   -942.23787    50.533614   -891.70425    1809.9308   -13532.048    2.1328233    16.603765   0.14936767 
   20900   -939.30917    56.398244   -882.91093    2019.9806    17665.738    2.1977164    16.050915   0.13689113 
   21000   -939.00681    48.945303    -890.0615    1753.0432     1810.192    2.1638139    13.618079   0.15363489 
   21100   -943.07585    46.803657   -896.27219    1676.3373   -17752.494    2.1223994    15.032091   0.15083673 
   21200   -936.22614    47.578496   -888.64764    1704.0892    8143.6968    2.1774887    13.535771    0.1584072 
   21300   -934.45229    46.010889    -888.4414    1647.9432    9228.8243    2.1740689    10.983917   0.16682149 
   21400   -943.12585    45.228205   -897.89764    1619.9103   -7609.8614    2.1506223    15.887776    0.1515675 
   21500   -940.09437    47.002897   -893.09148    1683.4733     -56.5392    2.1610899    13.571407   0.14700068 
   21600   -941.27173    54.316201   -886.95553    1945.4093    4623.2646    2.1739582    13.550324   0.15457157 
   21700   -941.50219    48.273155   -893.22903    1728.9694   -5667.5904    2.1537303    14.359441   0.13711267 
   21800   -943.52664    47.766002   -895.76064     1710.805   -4975.0861    2.1561593    12.173322    0.1448825 
   21900   -934.94606    49.548892   -885.39717    1774.6616    7191.2085    2.1652875    11.553907   0.15649319 
   22000   -940.09595     50.64843   -889.44752    1814.0431    1225.6828    2.1615807    11.819531   0.16577571 
   22100   -943.49856    48.847122   -894.65144    1749.5267   -5191.5661    2.1552242    13.045962   0.16449445 
   22200   -943.26831    56.172974   -887.09534    2011.9122    854.25652    2.1688761    16.432276   0.14501311 
   22300   -938.78601    53.056632   -885.72938    1900.2961    5242.1957    2.1692686    13.105418   0.16160002 
   22400   -944.18023    50.989696   -893.19053     1826.266     -10964.6    2.1401554    12.844058    0.1537949 
   22500   -938.65983    50.227913   -888.43192    1798.9817    1030.2384    2.1628228    12.383202   0.15893564 
   22600   -939.09301    58.434881   -880.65813    2092.9255     5144.493    2.1738896    12.933417   0.17940654 
   22700   -942.24616    51.149254    -891.0969    1831.9808   -7016.2301    2.1468884    15.194146   0.16849261 
   22800   -941.97172     51.62846   -890.34325    1849.1442   -7580.5494    2.1445841    23.274352   0.17915785 
   22900   -934.35814    52.246751   -882.11139    1871.2891    8287.2121    2.1704663    19.608351   0.22051167 
   23000    -941.5123    51.851594    -889.6607    1857.1361    4166.6818    2.1695074    16.749046    0.1525437 
   23100   -939.58926    46.179519   -893.40974    1653.9829   -14671.397    2.1258462    18.137533    0.1657497 
   23200   -937.94384    50.715049   -887.22879    1816.4291    8708.4534    2.1796024    15.700538   0.15502178 
   23300   -940.07609    48.609984   -891.46611    1741.0333    15494.091    2.2001107    15.238409   0.16473811 
   23400   -946.63456      48.1828   -898.45176    1725.7332   -14140.727     2.142591    15.243972   0.15154999 
   23500   -942.01959    50.972339   -891.04725    1825.6443   -3132.8536    2.1570324    11.856602   0.15393324 
   23600   -940.17861    52.695334   -887.48328    1887.3558    8980.1427     2.180299    13.871723   0.16878409 
   23700   -945.17428    49.625758   -895.54852    1777.4147   -6877.8187    2.1563398    13.829698   0.15919757 
   23800   -940.60032    46.014301   -894.58602    1648.0654   -1768.9803    2.1574773    15.069077   0.15294236 
   23900   -942.61586    55.431856     -887.184    1985.3681    3185.8584    2.1664109    13.570759   0.14107257 
   24000   -940.47346    48.642582   -891.83087    1742.2009   -564.45149     2.157205    16.229763   0.14855893 
   24100   -944.30855    46.325103   -897.98345    1659.1972   -3028.2012     2.161862    15.987463   0.14132869 
   24200    -938.4832    50.375193     -888.108    1804.2567    3528.7645    2.1666257    15.304786   0.14957963 
   24300   -939.17191    51.009514    -888.1624    1826.9758    4150.2621    2.1679886    16.044556   0.15852135 
   24400   -943.86379    50.154385   -893.70941    1796.3482   -8680.2185    2.1405398    16.033815   0.14172795 
   24500   -937.00225    49.871819   -887.13044    1786.2277    3770.7419     2.158946    15.102662   0.17419798 
   24600   -938.17698     54.44019   -883.73679    1949.8502    6362.6776    2.1701484    15.372032   0.16543336 
   24700   -942.59581    50.341688   -892.25412    1803.0567   -7451.9329    2.1425146       14.096   0.14756753 
   24800    -940.8177    50.325914   -890.49179    1802.4917   -2003.2911    2.1551657    15.921018   0.16118275 
   24900    -940.0268    58.674103    -881.3527    2101.4936    7919.1404    2.1713731    16.123164   0.13803546 
   25000   -939.47723    51.495827   -887.98141    1844.3938   -6681.1863    2.1400246    20.548892   0.17042322 
   25100   -941.17987    47.758566   -893.42131    1710.5386   -9744.4452    2.1376207    17.399307   0.18594867 
   25200   -939.46956    54.018519   -885.45104    1934.7475    7757.7952    2.1769129    16.546764   0.18511471 
   25300   -938.83576    49.324497   -889.51126    1766.6246    2361.0599    2.1602432    17.394278   0.20282357 
   25400   -943.91278    47.629582    -896.2832    1705.9189    -3724.354    2.1494832    16.724491   0.17525184 
   25500   -938.56007    51.699486   -886.86058    1851.6881    2462.9476    2.1563112    23.839995   0.17738167 
   25600   -940.91805    52.062819   -888.85523    1864.7014    1702.5309    2.1637578    19.054187   0.17857857 
   25700   -943.04863    46.747999   -896.30063    1674.3438   -140.56645    2.1647782     18.32602   0.16264665 
   25800   -933.97864     47.53751   -886.44113    1702.6212   -1756.5605    2.1422408    16.909885   0.19877984 
   25900   -939.77659    52.128846   -887.64774    1867.0662    2785.2006    2.1604087    18.569737   0.17754806 
   26000   -942.19338    48.477136   -893.71624    1736.2752    4618.9119    2.1724131    16.659982   0.18708107 
   26100   -939.70497    55.344492   -884.36047     1982.239   -5609.9338    2.1382394    17.234518   0.19786429 
   26200   -936.15847    48.739161   -887.41931      1745.66    2410.2765    2.1556142    15.817151   0.18860625 
   26300    -943.1499    50.733489   -892.41641    1817.0896   -426.70477    2.1668872    14.629011   0.18686083 
   26400   -936.76332    51.551596   -885.21172    1846.3912   -2745.4188    2.1475934    18.044662    0.2003902 
   26500   -936.95181    50.633043   -886.31876     1813.492   -3840.1136    2.1426106    19.264757   0.18177176 
   26600   -941.23004    48.966461   -892.26358    1753.8011    4069.1346    2.1729675    23.846964   0.19062936 
   26700   -939.87969    53.880535   -885.99915    1929.8054    2390.7515     2.164102    30.297377    0.1400987 
   26800   -941.70907    52.352693   -889.35638    1875.0836   -8927.6862    2.1400009     32.77287   0.14828022 
   26900   -942.88986    47.785549   -895.10431    1711.5051    21.442642    2.1679084    32.006977   0.14822205 
   27000   -936.43662    50.034749   -886.40187    1792.0633    11347.765    2.1796444    31.461211   0.16523561 
   27100   -939.89764    49.262425   -890.63522    1764.4014   -8402.2729    2.1401867    33.643798   0.16339406 
   27200   -947.80551    49.626785   -898.17872    1777.4515   -6659.2389    2.1587625    34.323603   0.13448254 
   27300   -940.65569    51.956023   -888.69967    1860.8763     10779.66    2.1880746    31.466155    0.1508461 
   27400   -939.16869    51.066122   -888.10256    1829.0033    728.94349    2.1589944    32.905847   0.14313803 
   27500   -941.99144    46.556515   -895.43492    1667.4855   -11983.753    2.1391687    33.113708   0.14394006 
   27600   -941.98884    51.373322   -890.61551    1840.0061     3857.364    2.1793708    33.013663   0.16364067 
   27700   -937.58453    52.860434    -884.7241    1893.2691    7118.4384    2.1717768    32.772989   0.14742127 
   27800   -942.48154     48.72422   -893.75732    1745.1249   -7133.2916    2.1467492    33.006132   0.14170388 
   27900   -940.28277    49.983506   -890.29926    1790.2279    35.162333    2.1610637    34.737759   0.15392105 
   28000   -937.33692    54.650622    -882.6863    1957.3871    4252.2314    2.1610074    32.098178   0.15274317 
   28100   -939.66088    46.936848   -892.72403    1681.1077    1094.9098    2.1644998     33.05872   0.17930853 
   28200   -940.17819    48.870209   -891.30798    1750.3537   -4147.6119    2.1547455    35.557663   0.16984911 
   28300   -936.27504    52.802201   -883.47284    1891.1833    995.82179    2.1541525    35.981988   0.16726283 
   28400   -944.14522    50.762638   -893.38258    1818.1336    372.10655    2.1709863    36.958216   0.15581895 
   28500   -940.02482     47.98383   -892.04099    1718.6068   -4957.6269    2.1525548    39.384841    0.1593744 
   28600   -937.34433    52.141791   -885.20254    1867.5299    46.849603    2.1525528    36.404983   0.15936444 
   28700   -944.30182    49.858304   -894.44351    1785.7436    3565.3351    2.1790877    33.722075   0.16667202 
   28800   -941.90881     49.29121    -892.6176    1765.4324    -4355.095    2.1519286    33.678333   0.16319538 
   28900   -935.13166    48.408755    -886.7229    1733.8261    758.05666    2.1487675    37.194555   0.17085951 
   29000   -941.25205    47.414298   -893.83775    1698.2082    7521.0757    2.1848996    33.196434   0.16234746 
   29100   -945.19008     50.61636   -894.57371    1812.8945   -4161.9857    2.1596285    31.782692   0.15146309 
   29200   -939.03695    51.620701   -887.41625    1848.8663   -10361.638    2.1293793    32.576421   0.17308591 
   29300   -938.51273    47.686745   -890.82598    1707.9663    11206.864    2.1893645    30.837575   0.17670624 
   29400   -944.33689    49.504901   -894.83199     1773.086    4595.3557     2.180614    31.940602    0.1502516 
   29500     -932.631     46.60121   -886.02979    1669.0863   -12863.729    2.1149335    36.826961   0.17728368 
   29600   -934.33857    48.785649   -885.55292     1747.325    4733.4265    2.1579307    60.170232   0.18254006 
   29700   -942.08694    50.957294   -891.12964    1825.1055    13700.013    2.1963615    55.016839   0.19248599 
   29800   -937.67205    48.939557   -888.73249    1752.8375   -7608.6841    2.1333854    56.466289   0.19885277 
   29900    -934.5011    50.003382   -884.49772    1790.9398   -8734.1825    2.1330425    61.980337   0.19310565 
   30000   -941.89408    50.741747   -891.15233    1817.3854     9145.409    2.1870682    52.341783    0.1833456 
   30100   -941.45071    49.667633   -891.78307    1778.9145   -1033.9168    2.1621474    48.880666   0.18510514 
   30200   -934.27266    50.575998   -883.69666    1811.4488   -10065.688    2.1254257    44.743784   0.20506684 
   30300   -939.67103    47.654203   -892.01683    1706.8007    4716.7375    2.1764072    60.389465   0.18625818 
   30400   -939.84853    48.808369   -891.04016    1748.1388    6254.8263    2.1742649    58.133684   0.17662279 
   30500   -933.54081    49.112002   -884.42881    1759.0138   -5996.1057    2.1352928    40.825564   0.20791032 
   30600   -939.95386    47.791369   -892.16249    1711.7135   -989.75981    2.1620618    60.008272   0.19154038 
   30700   -938.03568    46.074444   -891.96123    1650.2195    4800.8514    2.1737678    56.264938   0.17142661 
   30800   -937.13295    51.381043   -885.75191    1840.2826    701.56643    2.1517189    58.339089   0.19468427 
   30900   -940.40266    51.055736   -889.34692    1828.6313   -1523.2078     2.156889    55.474901   0.18671655 
   31000   -942.54973    48.853547   -893.69618    1749.7569    4748.7836    2.1772644    55.537747    0.1665916 
   31100   -935.34187    49.958373    -885.3835    1789.3278     2162.693    2.1576096    70.950993   0.17537687 
   31200   -937.77454     48.63672   -889.13782    1741.9909   -7029.6138    2.1396206    52.657664   0.18162468 
   31300   -942.11903    47.249762   -894.86927    1692.3151     2712.762    2.1724133    58.939697   0.19300508 
   31400   -940.45651    56.034658   -884.42186    2006.9582    6659.4899    2.1757406    56.428961   0.19495618 
   31500   -936.59502    48.493338   -888.10168    1736.8555   -6491.6458    2.1339081    67.086701   0.17188688 
   31600   -944.91496    49.774088   -895.14088    1782.7273   -5918.7652    2.1585012    66.951936   0.16226698 
   31700   -943.50749    51.914816   -891.59267    1859.4004    15101.409    2.2012503    66.922423   0.15418603 
   31800   -939.03571     53.81557   -885.22014    1927.4785   -5467.2512    2.1406982    80.923736   0.17967781 
   31900   -939.35595    47.923703   -891.43224    1716.4532   -10622.775    2.1343055    76.461365   0.18303489 
   32000   -943.51871    54.549909    -888.9688    1953.7799    9778.7586    2.1955317    68.019393   0.17455661 
   32100   -936.88036    55.949292   -880.93106    2003.9007    137.66096    2.1471719    75.474928   0.17703846 
   32200   -941.39768    50.771082    -890.6266     1818.436   -9409.0734    2.1407797    96.063225   0.17059267 
   32300   -939.95149    49.923503   -890.02799    1788.0788    2550.0052    2.1651737    120.70511   0.16946666 
   32400   -940.53711    57.191277   -883.34584    2048.3841    4334.6821    2.1667324    140.89764   0.17645776 
   32500   -938.98999    49.692787    -889.2972    1779.8154   -4724.3084    2.1448286    134.65584   0.17336128 
   32600   -943.26338    50.129368   -893.13402    1795.4522   -4510.7279    2.1554424    131.07317   0.17407361 
   32700   -940.03111    53.312164   -886.71894    1909.4484    7973.6289    2.1822524    131.77611   0.19479238 
   32800   -938.92427    48.429749   -890.49452     1734.578   -1807.6454    2.1538043    129.62818   0.18499123 
   32900   -945.51716     48.54485   -896.97231    1738.7005   -6394.6249    2.1562556    135.68185   0.15343889 
   33000    -937.8696    49.452243   -888.41736       1771.2    6239.6339     2.170217    128.70451   0.15708371 
   33100   -944.03891    54.726632   -889.31228    1960.1095   -1182.9968    2.1599984    133.51428   0.15461878 
   33200   -948.95497    50.238459   -898.71651    1799.3594   -5424.7368    2.1653463    130.18278   0.16201544 
   33300   -940.82709    49.688549   -891.13854    1779.6636    501.41005    2.1637541     129.5156   0.16551899 
   33400   -937.45244    49.307491   -888.14495    1766.0155    2633.5622    2.1660668    132.06186   0.16121966 
   33500   -942.76133    48.115617   -894.64572    1723.3269   -1929.1765    2.1617749    132.63289   0.17705532 
   33600   -943.23248    48.871656   -894.36082    1750.4055    558.68021    2.1685647     130.0016   0.15716899 
   33700   -937.80162    51.507296   -886.29432    1844.8046    650.09052     2.153826    131.32994   0.16731786 
   33800   -944.05633    52.725012   -891.33132    1888.4187   -3632.7227    2.1582589     128.8959   0.15806427 
   33900    -942.5151    49.138672   -893.37642     1759.969    3075.6689    2.1711762    133.17823   0.14952283 
   34000   -933.50711    51.342514   -882.16459    1838.9027    -1102.204    2.1420087    126.97718   0.16771912 
   34100   -938.47497    49.425964   -889.04901    1770.2588    2792.7131    2.1673529    131.77414   0.16688235 
   34200   -940.16701     47.54884   -892.61816     1703.027    1443.8129    2.1673739    131.31627   0.16813787 
   34300   -933.97286    49.164258    -884.8086    1760.8854    2909.2985    2.1542357     131.0168   0.18900525 
   34400   -936.67583    50.882041   -885.79378    1822.4102    1562.5908    2.1574453    134.40697   0.18824665 
   34500   -943.98614    51.895169   -892.09097    1858.6967   -1581.5831    2.1691652    152.75033   0.17449074 
   34600   -936.82074    51.155426   -885.66531    1832.2018   -2241.9476    2.1501332    185.86524   0.19517389 
   34700   -934.37499    48.970165   -885.40482    1753.9337   -2717.8224     2.137321    182.37734   0.19043676 
   34800   -941.83616    49.032148   -892.80401    1756.1537    6370.5454    2.1784371    189.88478   0.19132726 
   34900   -937.98301     51.74419   -886.23882    1853.2892    5872.1994    2.1702718    189.30712   0.18179356 
   35000   -940.09229    53.337106   -886.75518    1910.3417   -13512.054    2.1237582    181.99756   0.18889415 
   35100   -943.02608    47.293404   -895.73267    1693.8782    953.34403    2.1730403    181.58655   0.18917411 
   35200   -939.18736    51.972745   -887.21462    1861.4753    6249.9205    2.1733047    185.02179   0.16800298 
   35300   -938.60884    51.412648   -887.19619    1841.4146   -4665.6458     2.135479    218.16184    0.1889515 
   35400   -941.16601    44.951365   -896.21465    1609.9949   -145.15538    2.1621259    218.08941   0.16460599 
   35500   -942.79513    51.183325   -891.61181    1833.2011    5372.7371    2.1794468    217.87556   0.16482531 
   35600   -936.03338    49.573394   -886.45998    1775.5392   -438.08551    2.1514821    212.66122   0.16516929 
   35700   -941.67706    46.901734   -894.77533      1679.85   -7852.1748    2.1434074    222.26602   0.15528929 
   35800   -942.31095    50.999645   -891.31131    1826.6223    7117.7049    2.1752907    210.74695   0.17635422 
   35900   -937.82069    53.895357   -883.92534    1930.3363    5731.1224    2.1603988    206.33893   0.17891864 
   36000   -939.29769    47.679529   -891.61816    1707.7078   -9668.4326    2.1347119    222.98806    0.1670283 
   36100   -939.80232    48.941647   -890.86067    1752.9123    1127.3681    2.1577494    222.20509   0.18676909 
   36200   -931.37877    50.691531   -880.68723    1815.5868    13401.093    2.1661224    211.66609   0.18217935 
   36300   -937.20195    48.666456    -888.5355     1743.056   -3535.3696    2.1424363    215.46957   0.18946837 
   36400   -939.95059    47.826628   -892.12397    1712.9764   -8955.8962    2.1345382    163.98839   0.18949584 
   36500   -942.23737    58.160718   -884.07665     2083.106    10603.194    2.1878246    162.88143   0.16503455 
   36600   -939.03993    53.234086   -885.80584    1906.6519    543.51773    2.1485106    159.66825   0.16316506 
   36700   -941.86264    46.758304   -895.10434    1674.7129   -15499.175    2.1235376    160.28484    0.1647553 
   36800   -939.41945    49.540372   -889.87908    1774.3564    10756.128     2.184333    153.91041    0.1479661 
   36900   -941.30223    55.522507   -885.77973    1988.6149    2938.5131    2.1665721      155.945   0.15464372 
   37000   -939.93374     50.95373   -888.98001    1824.9778   -13461.074    2.1232872    160.02527   0.15627612 
   37100   -947.10416    52.529863    -894.5743    1881.4292    1097.8425    2.1735764    151.39994   0.14092542 
   37200   -939.94802    53.544628   -886.40339    1917.7744    6176.6487    2.1688489    152.43205   0.17110186 
   37300   -937.61337    48.033372      -889.58    1720.3812     -4790.59    2.1408658    152.11047   0.15735113 
   37400   -941.53398    44.741433   -896.79255    1602.4759    375.35859    2.1660752    161.21168   0.16015871 
   37500   -936.97162    49.672089   -887.29953    1779.0741    4887.3582    2.1684617     162.3041   0.15476567 
   37600    -937.9723    49.310005   -888.66229    1766.1055   -810.78305    2.1559428    152.47421   0.14585408 
   37700   -943.49896    46.909133   -896.58982     1680.115    -5191.068    2.1568093    150.17326   0.15708399 
   37800   -941.47873    52.633451   -888.84528    1885.1394    854.26345     2.169026     150.6368   0.16785554 
   37900   -938.60079    51.882569   -886.71822    1858.2455    5802.1236    2.1660397    144.15022   0.16505612 
   38000   -939.15239    43.697304   -895.45509     1565.079   -5518.8452    2.1504853    157.63929   0.18840286 
   38100   -937.38598    48.496269   -888.88971    1736.9605    2956.5295    2.1638326    153.49367   0.17138208 
   38200   -936.19364    52.153499   -884.04014    1867.9492    10473.593    2.1739137    152.30241   0.19157418 
   38300    -940.2751    46.526693    -893.7484    1666.4174   -7291.2759    2.1466131     150.2941   0.16560686 
   38400   -941.35239    50.435809   -890.91658    1806.4278   -7121.2374    2.1442633    159.75492   0.16720218 
   38500   -938.99062    57.019007   -881.97161    2042.2141    12847.635      2.18554    149.23888   0.16049606 
   38600   -942.34971    51.031566   -891.31814    1827.7656    -1554.097    2.1610772    160.39252   0.16385155 
   38700   -943.15656    49.798249   -893.35831    1783.5927   -15862.361    2.1223424    157.54734   0.16551486 
   38800   -939.81408    55.255403   -884.55868    1979.0481    8536.1551    2.1755609    155.16121   0.16929555 
   38900   -942.28546    52.166049   -890.11941    1868.3987    6103.2843    2.1789656    145.69574   0.17871301 
   39000   -946.76884    50.051314   -896.71753    1792.6565   -9699.0045      2.14543    159.44287   0.15378335 
   39100   -939.67153    51.695827   -887.97571    1851.5571   -1167.3085    2.1535446    162.35261   0.17127501 
   39200   -940.46792    52.009512   -888.45841    1862.7921    5427.0891    2.1704297    155.53783   0.17668369 
   39300   -949.63322    52.527493   -897.10573    1881.3443   -5289.7598    2.1651248    158.22327   0.15621231 
   39400   -941.55328    53.038763   -888.51452    1899.6561   -5072.5516     2.145998    154.43498   0.16711528 
   39500   -937.83414    50.387138     -887.447    1804.6845    6445.9722    2.1688561    154.41479   0.17941639 
   39600   -940.52267    44.961909   -895.56076    1610.3725    5870.1314    2.1733614    152.91619    0.1491261 
   39700   -938.27453      50.5277   -887.74683     1809.719   -5601.1539    2.1386761    162.72182   0.16974931 
   39800   -943.36003    56.175612   -887.18441    2012.0067    1744.9522      2.16344    148.72064    0.1704793 
   39900   -943.04093    49.278659   -893.76228    1764.9829      4016.42    2.1751187    161.82708   0.16551763 
   40000   -937.52764    50.755306   -886.77233     1817.871   -4959.6868    2.1391827    161.10679   0.18080446 
   40100   -935.38491    49.360641   -886.02427    1767.9191      1484.77    2.1552703    160.89209   0.17123961 
   40200   -946.25145     53.29803   -892.95342    1908.9421    3615.0084    2.1832482    155.71092   0.15780438 
   40300   -941.27324    52.626512   -888.64673    1884.8908   -7569.0614     2.146613    154.94181   0.16470681 
   40400   -936.45077    50.637841   -885.81293    1813.6638   -7690.2359    2.1316708    152.22109   0.18816753 
   40500   -949.05709    55.136752   -893.92034    1974.7985    7615.2726     2.196113    148.57019   0.16349246 
   40600   -941.04995    50.794596   -890.25536    1819.2782    3254.5446    2.1686528    156.79951   0.16477022 
   40700   -936.76984    49.692924   -887.07692    1779.8203   -15496.222    2.1153525    156.03626   0.19595674 
   40800   -943.91147    49.379318   -894.53215    1768.5881     5326.316    2.1800355    157.42895    0.1625542 
   40900   -945.24454    51.881269   -893.36327    1858.1989     9596.531    2.1923413    154.85725   0.16263753 
   41000   -934.57903    47.244884   -887.33414    1692.1404   -5435.2372    2.1321199    156.57809   0.17537054 
   41100   -937.42338    46.724431   -890.69895    1673.4997   -952.23369    2.1545521    150.58192   0.16017976 
   41200   -941.09995    46.467258    -894.6327    1664.2887    10251.341    2.1912295    147.12422   0.15968152 
   41300   -934.64468    48.616493   -886.02819    1741.2665   -1482.8774     2.148254    149.35291   0.15846743 
   41400   -940.55706    49.800263    -890.7568    1783.6648   -5130.1636    2.1476203    155.83137   0.16298473 
   41500   -943.52299    49.296905   -894.22608    1765.6363    4096.1566    2.1776042    158.04848   0.16468268 
   41600   -937.09197    52.748243   -884.34373    1889.2508    1045.4702    2.1542585    150.96743   0.16171449 
   41700   -943.95634    53.516475   -890.43987    1916.7661   -4718.0292    2.1487433    156.00605   0.15160825 
   41800   -943.31768    49.640275   -893.67741    1777.9346    1057.0138     2.167308    152.48012     0.153761 
   41900   -936.52858     52.89201   -883.63657       1894.4    3341.7587    2.1560129     142.6962   0.15500318 
   42000   -939.40526    49.471721   -889.93354    1771.8977    123.19753    2.1559371    154.34637   0.14461571 
   42100   -941.66533    47.844743   -893.82059    1713.6252    -2260.114    2.1596375    155.07995   0.15594735 
   42200   -938.29151    53.305768   -884.98574    1909.2193    1150.5068    2.1568575    155.22125    0.1643719 
   42300   -939.59753    49.964854   -889.63268    1789.5599    1704.7065    2.1616124    160.04689   0.16385345 
   42400   -939.00451    44.552526   -894.45198    1595.7099   -1998.7563    2.1541037    162.94086    0.1715455 
   42500    -942.6343    55.776663   -886.85764    1997.7178   -1003.0604    2.1545147    159.98275    0.1535097 
   42600   -938.77174     49.83633   -888.93541    1784.9566     6575.622     2.174997    152.75124   0.17336002 
   42700   -939.92258    43.984786   -895.93779    1575.3755   -6753.2846     2.147299    161.20889   0.17218464 
   42800   -940.06328     50.30936   -889.75392    1801.8988    -1864.428    2.1542021     156.7889   0.15332322 
   42900   -935.21347    49.785824   -885.42765    1783.1477    14240.398    2.1855734    150.27111   0.17275959 
   43000   -942.26413    46.508684   -895.75545    1665.7724   -4986.8204     2.155458    154.02393   0.17904712 
   43100   -938.41844    46.210097   -892.20834    1655.0781   -9126.2085    2.1373352    150.80167   0.16985569 
   43200   -942.61008    56.997226   -885.61286    2041.4339    7775.9123    2.1827386    160.08519   0.18691499 
   43300   -937.46129    45.205099   -892.25619    1619.0827    7422.2825    2.1722285    146.57014   0.17021781 
   43400   -942.97555     47.78962   -895.18593    1711.6509   -12250.367    2.1386691     159.3443   0.16800841 
   43500   -936.07251    51.087666   -884.98485    1829.7749    1773.4478    2.1604854    153.74324   0.18190649 
   43600   -941.67275    52.861758   -888.81099    1893.3165     9620.089    2.1867678    155.16298   0.17607729 
   43700   -938.05347    43.296147   -894.75732     1550.711   -3823.4135    2.1510109    154.18136   0.17913826 
   43800    -935.2238    49.429122   -885.79468    1770.3719   -3856.8441    2.1432906    162.72597   0.17617208 
   43900   -940.42654    53.061664   -887.36487    1900.4764    6481.5345    2.1785336    158.27152   0.16687956 
   44000   -940.20809    46.335551   -893.87254    1659.5714   -385.22947    2.1648881    154.00688   0.17431861 
   44100   -939.83751    51.478139   -888.35937    1843.7602   -7653.0087    2.1455992    156.59776   0.17034972 
   44200   -939.66806    55.498072   -884.16999    1987.7397    2053.0454      2.16169    152.24609   0.17825003 
   44300   -945.88662    51.636539   -894.25008    1849.4336     4640.948    2.1833778    151.20284   0.14662272 
   44400   -937.72979    47.657743   -890.07205    1706.9275   -3307.4135    2.1484024    162.40864   0.16796018 
   44500   -938.86368    53.304263   -885.55942    1909.1654   -2133.1431    2.1515175    152.67851   0.16877705 
   44600   -944.22301    49.193909    -895.0291    1761.9474    7740.9862    2.1904023    144.54256   0.15697788 
   44700   -940.06446     49.86614   -890.19832    1786.0243   -5015.2802    2.1502939    152.33673   0.16462862 
   44800    -935.3926    48.187954   -887.20465    1725.9178   -764.87276    2.1476672    157.10178   0.16972413 
   44900   -940.94981    48.703861   -892.24594    1744.3957    10985.012    2.1895595    148.85902   0.15741791 
   45000    -941.9551    48.420927   -893.53418     1734.262    380.80859     2.166445     148.7934   0.18419003 
   45100    -934.7787    50.247237   -884.53147    1799.6738   -17585.114      2.09387    130.66498   0.18030919 
   45200   -943.71369    53.803485   -889.91021    1927.0457    11684.695    2.1897103    129.61829   0.18186614 
   45300   -938.26529    46.815746   -891.44954    1676.7703    12805.353    2.1902631    134.75244   0.20042467 
   45400   -938.87867    51.812818   -887.06585    1855.7473   -14606.696    2.1164009    106.30834   0.17767351 
   45500   -934.24492     52.80562    -881.4393    1891.3058    397.93887    2.1490164    146.02193   0.18435691 
   45600   -941.53261     50.66297   -890.86964    1814.5639    13681.112    2.1957572     114.9959   0.18454228 
   45700   -936.86019     47.07419     -889.786    1686.0268   -6307.8024    2.1295854     109.3135    0.1522811 
   45800   -933.75393    48.358118   -885.39581    1732.0124   -3754.5697    2.1360067    110.87178   0.18570634 
   45900   -942.88095    48.719586   -894.16136    1744.9589    11925.299    2.1952476      101.869   0.17628158 
   46000   -942.53683    51.157484   -891.37934    1832.2756   -2271.8396      2.15623     105.7687   0.16668889 
   46100   -939.39608    52.248429   -887.14765    1871.3492    -10339.71    2.1295043    106.48016   0.17165775 
   46200    -941.0093    47.051043   -893.95825    1685.1977    5303.9452    2.1803657    103.04671   0.15900955 
   46300   -944.42736    50.809341   -893.61802    1819.8063    4668.5171    2.1807661    103.72995   0.16705265 
   46400   -935.71979    48.698237   -887.02155    1744.1942   -7297.5573    2.1308281    100.44034   0.18117815 
   46500   -943.63154    50.573398   -893.05815    1811.3557   -1615.0679    2.1627397    105.45929   0.16636859 
   46600   -942.07996     48.44747   -893.63249    1735.2127    9321.1239     2.188922    108.67059   0.16686369 
   46700   -937.19296     51.49636    -885.6966    1844.4129   -4794.5227    2.1407864    110.69208   0.15527319 
   46800   -938.74098    46.483225   -892.25776    1664.8606    -2907.217    2.1498422    106.32814   0.17668022 
   46900   -945.79711    53.017819   -892.77929     1898.906    6644.3532    2.1852476    105.47886   0.17278697 
   47000   -939.37186    55.358572   -884.01329    1982.7433   -2257.7246    2.1510285    107.03227   0.16235089 
   47100   -941.33801    49.771583   -891.56643    1782.6376   -8461.1448    2.1398997    109.88468   0.16414174 
   47200   -943.51066    51.077892   -892.43277    1829.4249    4181.3336    2.1770652    105.36362   0.15438243 
   47300   -933.68458    51.052101   -882.63248    1828.5011    9895.1741    2.1701802    106.66239    0.1536213 
   47400   -938.70671    49.491102   -889.21561    1772.5918   -12604.396    2.1247085    106.30004    0.1610896 
   47500   -939.28935    46.745687   -892.54366     1674.261    -3317.251    2.1493469    121.59715   0.16611888 
   47600   -940.59649    57.835918   -882.76057    2071.4728    21208.144    2.2078814    103.09165    0.1462997 
   47700   -941.58763    53.061164   -888.52647    1900.4585   -8516.7802    2.1366865    115.71306   0.15756052 
   47800   -943.23021    47.314888   -895.91532    1694.6477   -13057.234    2.1359862    107.38533   0.15792035 
   47900   -939.87387    51.314016   -888.55986     1837.882     11475.58    2.1865943    107.91712   0.16791884 
   48000   -938.94625    52.125714   -886.82054     1866.954    3609.2206    2.1616815    101.93206   0.15511965 
   48100   -943.22048     46.59667   -896.62381    1668.9237   -8713.1555    2.1477878    107.73839   0.15191367 
   48200   -944.49902     53.47929   -891.01973    1915.4342   -1090.8959    2.1653136    104.26423   0.15731817 
   48300   -937.71031    52.388871   -885.32144    1876.3794     5974.691    2.1690669    104.07206   0.15376534 
   48400   -941.57009    46.950538   -894.61955     1681.598   -4225.4365    2.1538888    106.09909   0.14928684 
   48500   -942.41182    50.339793   -892.07202    1802.9888   -4370.4108    2.1504974    106.46865   0.15743579 
   48600   -937.25153    52.645921   -884.60561     1885.586    3318.2736    2.1700412    92.199898   0.18595061 
   48700   -937.42921    45.285675   -892.14353    1621.9687    -2543.088    2.1571068    89.702891   0.20000044 
   48800   -941.13915     51.23057   -889.90858    1834.8932   -7420.9575    2.1418552    99.406302   0.19294953 
   48900   -937.34446    54.601179   -882.74328    1955.6162    2954.8655    2.1619804    96.467502    0.2203186 
   49000   -942.48956    52.736519   -889.75305    1888.8309    -539.9557    2.1653705    97.178726   0.18722961 
   49100    -939.5885    47.454561   -892.13394    1699.6503   -9704.8345    2.1443661     98.11889   0.19654425 
   49200   -932.32882    50.494576   -881.83424    1808.5326    2872.1445    2.1556207    95.036752   0.20418067 
   49300    -931.6184    44.587886   -887.03051    1596.9764    14973.787    2.1835696    87.253977    0.1983432 
   49400   -939.41882    46.918653   -892.50017     1680.456    -12296.72    2.1313317    98.961508   0.19447562 
   49500   -939.01296     52.72193   -886.29103    1888.3083    -5084.144    2.1455408    96.378042   0.19056425 
   49600   -936.46015    54.247092   -882.21306    1942.9341    19528.729    2.2008483    88.296936   0.18367895 
   49700   -940.54761    47.594047   -892.95356    1704.6462   -6019.7241    2.1452288    96.932567   0.18740796 
   49800   -938.38222    48.133358   -890.24886    1723.9623   -10285.072    2.1333092    95.916439   0.19303168 
   49900   -937.00274    53.337644    -883.6651     1910.361    7399.4494    2.1719331    98.939201   0.19180543 
   50000     -940.416    47.687115   -892.72889    1707.9795    1658.8855    2.1674645     91.67765   0.19426679 
   50100    -941.4917    49.848028   -891.64367    1785.3756   -6210.1713    2.1481812    94.521876   0.19703557 
   50200   -932.76416    48.918534   -883.84563    1752.0845    4023.8894    2.1503067    105.93587   0.20536711 
   50300   -940.12896    50.118263   -890.01069    1795.0544    1357.1181    2.1680569    99.670978    0.2029664 
   50400   -943.88646    48.916601   -894.96985    1752.0152   -5776.3479    2.1637734    93.855153    0.1845152 
   50500   -935.04471    50.348161   -884.69655    1803.2885   -5633.4957    2.1412015    98.299139   0.21018192 
   50600   -938.57027    50.137827   -888.43245    1795.7551    5612.0057    2.1737182    98.488557   0.18239475 
   50700   -942.48439    49.328063   -893.15633    1766.7523    479.72013    2.1687684    90.909343   0.17588818 
   50800   -932.04374    48.451096   -883.59264    1735.3425   -4013.2093     2.135618    94.088064   0.19476338 
   50900   -934.91458    48.205573   -886.70901    1726.5488      5130.46    2.1680367    98.179699   0.18833197 
   51000    -938.8799    46.943513   -891.93639    1681.3464    4221.4289    2.1731934    105.96411   0.17153487 
   51100   -938.48549    52.950142   -885.53534    1896.4821   -9435.8724    2.1349925    90.927255   0.18816807 
   51200   -935.29016    51.439782   -883.85038    1842.3864    -123.4322    2.1520261    84.776175   0.19997853 
   51300   -943.99405    52.596938   -891.39712    1883.8316    8983.3631    2.1887742    86.318551   0.19577284 
   51400   -938.34736    49.716262    -888.6311    1780.6562   -5132.6641    2.1434321    80.511387   0.19067555 
   51500   -933.79152     50.01801   -883.77351    1791.4637   -8545.9086    2.1273969    71.841708    0.1924114 
   51600   -942.45483    48.924301   -893.53053     1752.291    15804.327     2.207009    62.591327   0.18303154 
   51700   -940.58405    50.989452    -889.5946    1826.2573    600.84219    2.1610546    70.283724   0.17532342 
   51800   -937.11049    49.883424   -887.22707    1786.6433   -11452.887    2.1246693    82.747864   0.20761254 
   51900   -941.79755    49.206128   -892.59142    1762.3851    7002.7146    2.1769338    90.000429   0.16734276 
   52000   -943.77779    48.941399   -894.83639    1752.9034    5977.9541    2.1835983     83.35673   0.17421506 
   52100   -938.04733    51.158481   -886.88885    1832.3112   -9389.9523    2.1288978    92.655051   0.17888779 
   52200   -941.26019    51.255912   -890.00428    1835.8009   -2228.1888    2.1542961    82.984597   0.17600725 
   52300   -942.12701    48.004906    -894.1221    1719.3616    7640.0553    2.1836377    76.171443   0.18187349 
   52400   -935.60618    51.208189   -884.39799    1834.0916   -371.75807    2.1380685    83.743373   0.18849174 
   52500    -938.3643    48.770223   -889.59408    1746.7725   -1482.8939    2.1485751    83.052919   0.16789665 
   52600   -941.65616    48.938443   -892.71772    1752.7976     5099.376    2.1726582     74.82924   0.17098531 
   52700   -934.61157    52.312943   -882.29863    1873.6599    3015.0405    2.1453247    79.876544   0.18542409 
   52800   -942.81954    53.538637    -889.2809    1917.5598   -5518.2738    2.1500901    80.649578   0.17840942 
   52900     -942.528    50.538761   -891.98924    1810.1151   -461.09347     2.161291     77.84707   0.17214137 
   53000   -939.54125    55.823702   -883.71755    1999.4026   -625.45877    2.1572094    80.846229   0.17346955 
   53100   -939.14242    51.932138   -887.21029    1860.0208   -1909.2562    2.1457772    84.053839   0.17449626 
   53200   -943.88178    50.189953   -893.69183    1797.6221   -5672.7563    2.1519294    81.444527   0.17984326 
   53300   -941.99404     56.50575   -885.48829    2023.8311    7383.0668    2.1764589    87.345497   0.16790927 
   53400   -938.36334    49.095809   -889.26753    1758.4338    42.010442    2.1531428    82.511353   0.17811219 
   53500   -943.90995    47.984613   -895.92533    1718.6348   -14278.744    2.1330142    85.378778   0.15342677 
   53600   -936.01308    48.185834   -887.82725    1725.8418    14050.617    2.1851999     87.30079   0.17943876 
   53700   -939.14035    51.647914   -887.49244     1849.841    6041.9824     2.171467    85.935639    0.1778491 
   53800   -939.27453    44.275647   -894.99889    1585.7931   -14192.817    2.1238979    81.634389    0.1871457 
   53900   -940.96837    48.623309   -892.34506    1741.5106    1126.3421     2.170135    84.046226   0.18212233 
   54000   -937.07635    52.518518   -884.55784    1881.0228    7219.4989    2.1737462    74.372009   0.21296634 
   54100   -937.13707    45.919336   -891.21773    1644.6641   -4329.2795     2.145359    84.321144   0.20302479 
   54200    -946.3576    53.228352   -893.12924    1906.4465   -5200.2407    2.1566822    97.003408   0.17246387 
   54300   -939.36114    56.970191   -882.39095    2040.4656    3309.6886    2.1617645    94.919147    0.1829591 
   54400   -939.15441    50.867818   -888.28659    1821.9008   -96.652214    2.1596302    78.507224    0.1765573 
   54500   -940.06914    47.214762   -892.85438    1691.0615   -6585.0382    2.1490566    83.336449    0.1748554 
   54600   -938.56739    53.166497   -885.40089    1904.2311    9066.5613     2.172536    86.575209   0.18197539 
   54700   -937.14496    52.927606   -884.21735    1895.6749    2862.6849    2.1626159    87.368507   0.18847809 
   54800   -942.78145    50.845468   -891.93599    1821.1003   -8699.4845    2.1466865    90.963583   0.16954844 
   54900   -939.58429     51.89142   -887.69287    1858.5625    983.88356    2.1630228    84.670971   0.17727605 
   55000   -929.63172    49.275168   -880.35655    1764.8578    9187.4325    2.1666413    83.562923   0.18501751 
   55100    -938.3698    47.671841   -890.69796    1707.4325    -4073.042    2.1494548    92.899514    0.1822164 
   55200    -937.8169    47.379101    -890.4378    1696.9476   -5345.2672    2.1445601    110.62997   0.18777821 
   55300   -939.08103    55.069437   -884.01159    1972.3875    8743.3768    2.1756026    114.66481   0.18743152 
   55400   -942.19525    50.066674   -892.12858    1793.2067     53.88561    2.1600107    101.39001   0.17244248 
   55500   -942.52773    48.703412   -893.82432    1744.3796   -13696.151    2.1337912    107.59176   0.17135284 
   55600   -940.55294     54.14197   -886.41097     1939.169    3472.3407    2.1700434    111.76232   0.17696032 
   55700   -940.68148    50.594843   -890.08664    1812.1238    3719.3885    2.1730586    112.68011   0.17936193 
   55800   -944.41555     46.92881   -897.48674    1680.8198   -5357.2893    2.1575179    108.66462   0.17770234 
   55900   -937.02231    49.077225   -887.94509    1757.7682   -793.03951    2.1535149     108.5022   0.20085551 
   56000   -939.58849    51.789398    -887.7991    1854.9084    2416.5912    2.1655362    119.42501   0.20147622 
   56100   -943.23879    48.824409   -894.41438    1748.7133   -3386.0876    2.1573104    117.92345   0.17668252 
   56200   -935.05884    45.915981   -889.14286    1644.5439    893.95832    2.1544308    116.88752   0.19870757 
   56300    -936.7729    51.936619   -884.83628    1860.1813    4639.7636    2.1611099    99.278486   0.17237715 
   56400    -940.6737     49.20953   -891.46417    1762.5069   -4421.8688     2.151336     99.43834   0.17048773 
   56500   -939.01001    49.276781   -889.73323    1764.9156    335.31237    2.1615533    115.67266   0.18969473 
   56600   -934.94075    53.250051   -881.69069    1907.2237    1316.7089    2.1478468    110.02996   0.20117963 
   56700   -940.18323    49.549241   -890.63399    1774.6741   -1216.8846    2.1557466    101.72423   0.15912257 
   56800   -941.50502     51.15858   -890.34644    1832.3148   -1191.7398    2.1540727     120.7981   0.17679225 
   56900   -935.87957    55.735664   -880.14391    1996.2494    1622.8437      2.14962    114.99456   0.18194364 
   57000   -938.24248    50.759295   -887.48319    1818.0139    4270.6283    2.1624622    76.358472   0.18450702 
   57100   -937.20961    46.115805    -891.0938    1651.7009   -6305.7568    2.1423306    85.925622   0.19143803 
   57200   -938.66384    54.134734    -884.5291    1938.9098    3618.8344    2.1634986     75.41306   0.16109048 
   57300   -933.81694    46.485055   -887.33189    1664.9261     5708.639    2.1634324    101.78293    0.1753546 
   57400    -938.7094     44.48487   -894.22453    1593.2867   -5293.7267    2.1480466    108.70402   0.16922483 
   57500   -941.99078    53.583988   -888.40679    1919.1841     2919.327    2.1678282    141.60984    0.1697646 
   57600     -937.341    48.782464   -888.55854     1747.211    7746.5415    2.1688001    141.30482   0.16391889 
   57700   -942.89075    44.919577   -897.97117    1608.8563   -3732.9541    2.1537808    146.68859   0.15146309 
   57800   -940.92423    50.224132    -890.7001    1798.8463   -4238.0372    2.1490102    143.99596    0.1485273 
   57900   -942.52434    56.300979   -886.22336    2016.4969    7863.8917    2.1812905    139.67121   0.13985582 
   58000   -941.23128    46.394742   -894.83654    1661.6914   -420.37748    2.1572681    139.50553   0.14392298 
   58100   -938.93029    48.988217   -889.94207    1754.5803    -11327.21    2.1273288    136.49668   0.16812284 
   58200   -937.93071    53.205621   -884.72508    1905.6324    10836.333    2.1774845    142.22248   0.15276421 
   58300   -941.21195    50.131307   -891.08064    1795.5216    5422.6327    2.1701911    138.87231   0.15084723 
   58400   -938.66074    44.819004   -893.84173    1605.2542   -9729.6709    2.1322912     148.5184   0.15549728 
   58500   -938.28026    54.412082   -883.86818    1948.8435    889.72128    2.1553162    143.58347   0.16787832 
   58600   -938.95173    50.601368   -888.35036    1812.3575    10252.839    2.1797444    142.62518   0.15052811 
   58700   -942.66451    48.318781   -894.34573    1730.6035   -6600.5587    2.1487794    150.23785   0.14673509 
   58800   -941.87719    55.411369   -886.46582    1984.6343   -4282.5742    2.1491792    144.29488   0.14817633 
   58900   -939.33904    50.470929   -888.86811    1807.6856    5959.6537     2.166364    130.63433   0.14830076 
   59000   -945.08816    50.207997   -894.88016    1798.2684    -626.6659    2.1687764    145.07553   0.14950543 
   59100   -940.84752    53.175735   -887.67178     1904.562   -3230.5141    2.1486202    136.17178   0.16266901 
   59200   -939.43825    51.274922   -888.16332    1836.4817     1614.171     2.157276    147.43643   0.16471335 
   59300   -945.29662    49.498686   -895.79794    1772.8634    3401.7402    2.1786205    138.87069   0.16632761 
   59400   -938.23655    50.478136   -887.75842    1807.9438   -2451.8186    2.1469261    134.01617   0.16381324 
   59500   -938.21551    49.722578   -888.49293    1780.8824   -1175.1284    2.1535633    141.66063   0.17108815 
   59600    -943.7824    48.360948   -895.42145    1732.1138    4564.9705    2.1801072    136.39512   0.13737936 
   59700   -938.59714    52.387473   -886.20967    1876.3293   -1073.3357    2.1508548    142.02988   0.15280141 
   59800   -941.72445    52.893067   -888.83138    1894.4378   -5394.4924    2.1472244    137.88334   0.16721826 
   59900   -941.07843    46.347688   -894.73075    1660.0061    4864.7176    2.1726637    137.09854   0.15494143 
   60000   -936.66369    50.807808   -885.85588    1819.7514    4206.9715    2.1611748    141.96831   0.17196001 
   60100    -940.3061    52.485252   -887.82085    1879.8314   -4210.9333    2.1445633    139.65523   0.16051434 
   60200    -944.3657    49.211387   -895.15431    1762.5734   -3732.1982    2.1612027    135.39855   0.16008265 
   60300   -936.96805      49.3836   -887.58445    1768.7415    8762.7092    2.1779633    138.50908   0.17874304 
   60400   -938.08544    51.280513   -886.80493     1836.682    -1671.462    2.1490914     138.4726   0.17796786 
   60500   -940.99134    44.839083   -896.15226    1605.9733   -4996.1175       2.1507    151.37178   0.16697048 
   60600   -942.61486    52.815901   -889.79896     1891.674    4939.5348    2.1741352    139.97251   0.15677311 
   60700   -938.78557    53.312077   -885.47349    1909.4452    2991.4625    2.1606223    141.96496   0.16307809 
   60800   -941.87487    46.722425   -895.15244    1673.4278   -9771.6282    2.1427009     137.0608   0.17367038 
   60900   -943.84831    52.032863   -891.81544    1863.6284   -340.54846    2.1613264     140.3081   0.15111906 
   61000   -938.72321    55.264717   -883.45849    1979.3817    6979.3336     2.169786    136.66926   0.17770641 
   61100   -935.76879    45.834237   -889.93455    1641.6161   -3175.1334    2.1369007    120.99035    0.1902181 
   61200   -940.30251    45.671743   -894.63077    1635.7962   -177.19798    2.1556099    108.79845   0.18517461 
   61300   -940.46894    56.170597   -884.29834    2011.8271    9092.8618    2.1766106    123.92816   0.18647743 
   61400   -934.60421     48.06183   -886.54238    1721.4005     1173.439    2.1507302    124.04841   0.18892254 
   61500   -939.53833     45.29098   -894.24735    1622.1586   -12101.179    2.1351145    117.96022   0.18426181 
   61600   -940.98402    51.906206   -889.07782    1859.0921    8658.0904    2.1816493    116.44829   0.16585356 
   61700   -933.67436    51.317641   -882.35672    1838.0118    9006.0393    2.1703233    103.79476   0.18568193 
   61800   -939.65604    48.574662   -891.08137    1739.7682   -15876.127    2.1141635    118.63663   0.16731615 
   61900   -936.73099    46.767449   -889.96354    1675.0404    2018.9109    2.1558935    90.162947   0.16347089 
   62000   -931.99705    50.690555   -881.30649    1815.5519    15424.954     2.178243    89.079057   0.18899854 
   62100   -936.64015    48.470826   -888.16932    1736.0492   -4014.5684    2.1410327    91.437532    0.1762199 
   62200   -942.93937     50.20806   -892.73131    1798.2706   -4325.1758     2.150476    116.45348   0.17641722 
   62300   -937.83228    53.570384   -884.26189    1918.6969    5392.3969    2.1613006    109.86913   0.17152145 
   62400   -938.67579    52.283153   -886.39264    1872.5929    286.14797    2.1514218    113.41778   0.17018284 
   62500   -938.32051    43.821758   -894.49875    1569.5365   -1538.0879    2.1528766    116.49457   0.19400524 
   62600   -939.67369    52.944656   -886.72903    1896.2856    1552.1884    2.1621747    115.19148   0.18855152 
   62700   -938.49695    50.742806   -887.75415    1817.4233    1228.8476    2.1557298    117.80769   0.19978504 
   62800    -943.0038    47.171041   -895.83276    1689.4956   -3606.4305    2.1608847    107.88735   0.20201889 
   62900   -939.65613    52.758599   -886.89753    1889.6217    618.33143    2.1559402    111.89677   0.18259021 
   63000   -940.57668    53.276906   -887.29977    1908.1856    2009.5182    2.1525088    123.15535   0.17213663 
   63100    -939.2961    43.572687   -895.72342    1560.6156    1818.8267    2.1678811    132.51305   0.16853489 
   63200   -940.11764    53.651383   -886.46626     1921.598   -3527.3717    2.1477305    137.32017   0.17569323 
   63300   -937.52257    51.030234   -886.49234    1827.7179    5379.7633    2.1651075    122.62036   0.18783739 
   63400   -939.52558    44.806275    -894.7193    1604.7983    4495.3919    2.1692742    112.01793   0.20026123 
   63500   -934.61772    48.176357   -886.44137    1725.5024   -5578.8195    2.1317496    114.10977    0.1948169 
   63600    -936.8942    51.208076   -885.68612    1834.0876    5360.4471    2.1666492     103.9976   0.20812219 
   63700   -938.37705    46.964944    -891.4121     1682.114    4772.7953    2.1692001     103.1265   0.18007386 
   63800   -935.14421     51.59033   -883.55388    1847.7785   -11253.672    2.1210687    90.291248   0.20773911 
   63900   -937.00517    53.619604   -883.38556    1920.4598    4555.9771    2.1584518    88.122266   0.18815135 
   64000   -938.78375    50.384104   -888.39964    1804.5759    10145.093    2.1784555    89.440929   0.17140036 
   64100   -936.29731    47.024532   -889.27277    1684.2482   -6107.7388    2.1329085    79.116146   0.17942825 
   64200   -932.10678    53.354623   -878.75215    1910.9691    1842.2352    2.1418863    71.461137   0.20294607 
   64300   -941.56594    54.852151   -886.71379    1964.6051    10696.517    2.1860993    57.772394   0.18658897 
   64400   -942.44037    51.694016   -890.74635    1851.4922   -11319.782    2.1318598    53.822796   0.14428236 
   64500   -938.41374    48.857945   -889.55579    1749.9144   -2410.4088    2.1518499    52.642265   0.18174723 
   64600   -947.05163     47.81296   -899.23867    1712.4868    8156.7915    2.1977578    54.354667   0.16043686 
   64700   -944.30397    49.716872   -894.58709    1780.6781   -5317.5007     2.154941     50.17615   0.15143892 
   64800   -940.77616    50.372856   -890.40331     1804.173    -3047.898    2.1511922    50.946975   0.15872304 
   64900   -939.23709    49.980539   -889.25655    1790.1217    4067.6685    2.1678901    58.490982   0.15477053 
   65000   -942.08182    45.904366   -896.17746    1644.1279   -130.76605    2.1650263    51.853267   0.17311131 
   65100   -942.19188    45.232089   -896.95979    1620.0494    528.66106    2.1678084    54.068779   0.16079956 
   65200   -941.21815    51.486107   -889.73205    1844.0457     1161.433    2.1645418    54.103938   0.14807963 
   65300   -941.44876    51.818639   -889.63012    1855.9557   -3443.9423    2.1541595     50.54653   0.16228633 
   65400   -942.14752    45.957737   -896.18978    1646.0395   -3140.4535    2.1606945    54.426827   0.16249065 
   65500   -943.66338    47.201837   -896.46154    1690.5986    5013.2444    2.1823479    51.216184   0.15696736 
   65600   -941.08539    52.123931   -888.96146    1866.8902   -1572.2055    2.1589145    54.306956   0.17184749 
   65700   -941.98294    51.337297   -890.64564    1838.7158   -9040.4028    2.1451985    53.955827   0.15779192 
   65800   -948.20211     50.34027   -897.86184    1803.0059    3788.8343    2.1840063     51.59714   0.15961871 
   65900   -941.20796     48.43427   -892.77369    1734.7399    7473.4862    2.1793825    52.038296   0.14684586 
   66000   -940.83129    51.603087    -889.2282    1848.2355   -6743.2137       2.1377    53.461186    0.1529562 
   66100   -940.19617    49.036686   -891.15948    1756.3163   -2696.9989    2.1546371      55.8122   0.16579967 
   66200   -945.31901    51.941522   -893.37749     1860.357    15681.465     2.211478    50.634879   0.14822374 
   66300   -936.69657    55.376137   -881.32043    1983.3724   -9461.9012    2.1236348    53.277682   0.17102842 
   66400   -940.80664     53.18809   -887.61855    1905.0045   -7257.1576    2.1423352    51.416671   0.15045058 
   66500   -940.54789    51.325546   -889.22234    1838.2949    13612.942    2.1965148    54.740759   0.16619054 
   66600   -940.55055     46.02323   -894.52732    1648.3852   -679.38902    2.1627785    52.371999   0.15111067 
   66700   -935.25197      51.3724   -883.87957    1839.9731   -7178.2041    2.1330301    52.543525   0.17220208 
   66800   -936.73741    50.365051   -886.37236    1803.8935    9357.7054    2.1773875    47.584329   0.15526836 
   66900   -943.67272    51.679293   -891.99343    1850.9648   -660.75369    2.1665577    50.029536   0.15600197 
   67000   -939.01633    50.155297   -888.86103    1796.3808   -3269.6669    2.1511397    48.553017   0.16359635 
   67100   -932.85232    51.785488   -881.06683    1854.7684    1503.7685    2.1484604    52.112955   0.17449141 
   67200   -939.41029    48.321583    -891.0887    1730.7039    4933.4564      2.17494    49.426756   0.15067648 
   67300   -943.29651    51.935988   -891.36052    1860.1587     -5883.22    2.1557317    51.213039   0.15529512 
   67400   -936.78502       53.664   -883.12102    1922.0499   -4505.4689    2.1441723        57.66   0.16783026 
   67500    -942.0182    50.508278   -891.50992    1809.0234    898.26556    2.1717934     53.11634   0.16337084 
   67600   -941.76641    49.125888   -892.64052    1759.5111   -4144.5149    2.1595119    51.433274   0.15225995 
   67700   -937.26734    49.663745    -887.6036    1778.7752    850.78045    2.1579381    50.764395   0.16846747 
   67800   -942.12112     55.27547   -886.84565    1979.7669    899.82399    2.1676967    54.747654   0.16121145 
   67900   -941.76232    45.661718    -896.1006    1635.4371    1446.6095    2.1769239    50.533562   0.17158972 
   68000   -936.49534    45.956031   -890.53931    1645.9784   -2726.0837    2.1525726    54.984532   0.19280717 
   68100   -938.96017    52.324507   -886.63567    1874.0741   -207.01688    2.1569972     52.65962    0.1580124 
   68200   -943.52203    47.842877   -895.67915    1713.5584    6268.8167    2.1855777    54.842122   0.15230346 
   68300   -939.35079    48.253496   -891.09729    1728.2652   -3809.9493    2.1509682    59.200525   0.17464722 
   68400   -942.22931    54.343423   -887.88588    1946.3843   -3943.8427    2.1507799    51.321303   0.14960021 
   68500   -945.50742    53.010761   -892.49666    1898.6532    5092.2765    2.1832621    54.179001   0.15531872 
   68600   -945.99083    48.443398   -897.54744    1735.0668    657.54118    2.1737215    54.595361   0.15556946 
   68700    -940.1926     53.35186   -886.84074    1910.8702   -12074.713     2.126927    54.665539   0.16019801 
   68800   -942.27017    52.466865    -889.8033    1879.1728    6783.3448    2.1811754    52.018669    0.1804761 
   68900   -944.68186    51.392483   -893.28938    1840.6924    4723.4659    2.1819773    55.257603   0.15088842 
   69000   -933.46481    49.901328   -883.56348    1787.2846   -9605.0859    2.1196135    53.740119   0.18844605 
   69100   -939.05565    50.509332   -888.54632    1809.0611    2007.2289    2.1617733    51.454006    0.1684443 
   69200   -944.16116    52.614789   -891.54637    1884.4709    5191.6879    2.1828872    49.517452    0.1613877 
   69300   -937.76149    48.926449   -888.83504     1752.368   -5225.8035     2.144907    52.208054   0.18279904 
   69400   -933.64472    50.766967   -882.87776    1818.2886   -3021.2392    2.1372336    49.672073    0.1763036 
   69500   -944.53415    51.463605   -893.07055    1843.2397     8368.874    2.1886322    56.350609   0.15041413 
   69600   -944.92677    54.320315   -890.60646    1945.5567   -5763.4959    2.1555791    51.436747   0.15655007 
   69700   -935.62254    49.771809   -885.85073    1782.6457   -5429.4151    2.1356074    55.417288   0.17186063 
   69800   -947.57998     51.53671   -896.04327    1845.8581    3218.9741    2.1855209    53.332577   0.14550225 
   69900   -937.51825    46.730352    -890.7879    1673.7118    3905.4818    2.1649757    53.834906   0.16405004 
   70000   -934.67474    48.167226   -886.50752    1725.1754   -1864.5425    2.1432074    54.387935    0.1846604 
   70100   -939.14765    46.663007   -892.48464    1671.2997    2759.9962    2.1641085    54.287334   0.17517136 
   70200   -942.26426    49.212982   -893.05128    1762.6306    2477.8075     2.173123    54.184244   0.16618557 
   70300   -936.79463    50.384095   -886.41053    1804.5756   -2003.7944    2.1455568    53.113902   0.16347487 
   70400   -940.51652    47.189675   -893.32685     1690.163   -320.91356    2.1599541    55.410375   0.15037627 
   70500   -939.27711    45.251447   -894.02566    1620.7427    6675.0473    2.1753024    52.266926   0.14850856 
   70600   -937.07245    51.026023   -886.04643    1827.5671   -948.61681    2.1505552    56.091309   0.16732711 
   70700   -941.34109    48.852144   -892.48894    1749.7066   -2077.2565    2.1576685    54.243045   0.15371471 
   70800   -942.23852    48.099426    -894.1391     1722.747    2338.1095    2.1712854     54.09039   0.14233002 
   70900   -938.95161    54.260334   -884.69128    1943.4084   -3108.9068    2.1459694    46.877535   0.16303387 
[...]
  186800   -938.27954    50.441646    -887.8379    1806.6368   -7066.0413    2.1431913    180.51022   0.16595909 
  186900   -946.66824    48.392598   -898.27565    1733.2474    2781.5721    2.1830986    184.93775   0.15342452 
  187000   -939.74294    47.120463   -892.62247    1687.6841    -799.9149     2.157136    189.37453   0.15458281 
  187100    -942.3818    53.212047   -889.16975    1905.8626   -4974.3958    2.1517727    191.02642   0.17219828 
  187200   -937.77538    48.604117   -889.17126    1740.8232    3913.1655    2.1619598    206.35657   0.16154322 
  187300   -930.46528     50.98362   -879.48166    1826.0484    5833.8691    2.1524838    201.08551    0.1811069 
  187400   -934.59307    51.793818   -882.79925    1855.0667   -2063.6717    2.1423062    212.43687    0.1866714 
  187500   -941.92104    52.291352   -889.62969    1872.8866   -8904.6939    2.1390713    190.95609   0.15211487 
  187600   -945.11435    54.420097   -890.69425    1949.1305    7540.4063    2.1883517    186.92589   0.15904765 
  187700    -942.6129    46.440807   -896.17209    1663.3413    2356.1286    2.1735664    183.13433   0.16654686 
  187800   -948.70241    45.015634   -903.68678    1612.2968   -14770.367    2.1391725    196.46329   0.14283095 
  187900   -942.53985    48.043761   -894.49609    1720.7533    7550.4783    2.1799525    194.45379   0.16976885 
  188000    -938.9709     49.00832   -889.96258    1755.3003    14352.651    2.1885379    185.23466   0.16939954 
  188100   -938.72189    48.307521   -890.41437    1730.2002   -12280.919    2.1276343    192.15922   0.17467969 
  188200    -935.4718    52.531726   -882.94007    1881.4959   -626.17243    2.1467508    188.72566   0.19819094 
  188300   -936.64359    52.364468   -884.27912    1875.5054    6414.2828    2.1655535    192.68915   0.16185038 
  188400   -939.85385    48.464268   -891.38958    1735.8143    -1609.975    2.1557707    188.28603   0.16197926 
  188500   -939.43804    48.939372   -890.49867    1752.8308    409.75464    2.1574664    185.09302   0.15630692 
  188600    -938.5102    50.525952   -887.98424    1809.6564    2740.6601    2.1616679    191.45121   0.15386257 
  188700   -931.77808    54.705049   -877.07303    1959.3365   -371.83489    2.1352591    185.99044   0.18844251 
  188800   -936.34565    49.233536   -887.11211    1763.3667    1252.9361    2.1556659    185.67857   0.16854992 
  188900   -942.28557    52.029217   -890.25635    1863.4979   -4476.0053    2.1504764    190.95677   0.16791408 
  189000   -942.45945    51.601297   -890.85815    1848.1713     1667.146     2.164825    185.89475   0.17108703 
  189100   -939.64347    44.709672    -894.9338    1601.3383    2323.5737    2.1671798    195.39394   0.15824384 
  189200   -943.55305    43.031722   -900.52132    1541.2402    2202.3269    2.1771359    177.61953   0.15922488 
  189300   -939.63389    47.259886     -892.374    1692.6777    1673.7985     2.164821    183.10756   0.16026626 
  189400   -940.20431    50.396879   -889.80743    1805.0334   -3617.5538    2.1525576    182.98736   0.15650316 
  189500   -939.04372    51.823488   -887.22023    1856.1294    169.39421    2.1562227    181.98741   0.16694296 
  189600    -941.0254    45.072368   -895.95303    1614.3288    1595.8256    2.1688918    190.14324   0.15135966 
  189700   -943.20146    47.540319   -895.66115    1702.7218   -5023.9201    2.1541999    183.14904   0.15620202 
  189800   -938.85537    48.379233   -890.47613    1732.7687    6936.5867    2.1745862    183.22794   0.16727105 
  189900   -940.53228    52.726674   -887.80561    1888.4782    1875.9978    2.1623243     179.6083   0.16423761 
  190000    -934.5512    51.039902    -883.5113    1828.0642   -6905.4903    2.1352737    182.76961   0.17364671 
  190100    -931.6975    57.551884   -874.14562    2061.2998    3169.8421    2.1467602    188.05049    0.1927913 
  190200   -935.89706    56.728071   -879.16899    2031.7938    1493.6824    2.1502126    185.45021   0.16556517 
  190300   -938.13648    53.119487     -885.017    1902.5474   -11809.855    2.1265374    188.10301   0.16475153 
  190400   -942.15839    53.544068   -888.61432    1917.7543    5045.4725    2.1762246    195.34385   0.15529442 
  190500   -941.44425    50.919566   -890.52469    1823.7542    5533.2996    2.1763283    190.25969   0.15521456 
  190600   -942.83657    48.882457   -893.95412    1750.7923   -10917.317    2.1365513     192.8701   0.14247947 
  190700   -948.99545    46.235189   -902.76026    1655.9768    3422.7142    2.1863627    189.55622   0.14545633 
  190800   -942.26999    50.024426   -892.24556    1791.6935      4179.11    2.1758678    183.67294   0.17882443 
  190900    -941.1399    50.420368   -890.71953    1805.8747   -5630.4553    2.1514778    197.63418   0.18537873 
  191000   -941.64666    52.255851   -889.39081    1871.6151    -634.2265    2.1620857    179.80689   0.16032961 
  191100   -949.45347    51.651196   -897.80228    1849.9585    689.68737    2.1814519    183.96887   0.14164802 
  191200   -941.80084    45.631261   -896.16958    1634.3463    -351.3027    2.1666128    196.95331   0.14872921 
  191300   -938.54402    48.268467   -890.27555    1728.8014    876.81736    2.1612871    191.91286    0.1709375 
  191400   -939.15482    50.072564   -889.08226    1793.4176    832.56412    2.1650924    195.37293   0.16995992 
  191500   -946.82757    50.477961   -896.34961    1807.9375   -5200.4117    2.1620538     190.5152   0.15890624 
  191600   -943.76847    46.989417   -896.77905    1682.9905    -2898.967    2.1620336    188.68619   0.16945054 
  191700   -938.68162    49.608309   -889.07331    1776.7897     13146.23    2.1918879    183.15658   0.18248284 
  191800   -937.49451    47.486504   -890.00801    1700.7944   -8165.2663    2.1353064    184.66283   0.17777046 
  191900   -937.77466    50.926854   -886.84781    1824.0152   -12064.388    2.1248948    187.73486   0.16317852 
  192000   -948.40844    50.023446     -898.385    1791.6584    18818.814    2.2228458    186.10123    0.1504889 
  192100   -942.40388    48.766201   -893.63768    1746.6285   -6095.2069    2.1514468    187.54602   0.15725375 
  192200     -937.054    46.397404   -890.65659    1661.7868   -7654.9231    2.1362191    190.68195   0.16393119 
  192300   -939.55323    53.429551   -886.12368    1913.6527     11435.84    2.1851676    185.31543   0.14418088 
  192400    -944.8626    48.803536   -896.05906    1747.9657     1102.681    2.1738494    185.28206   0.15904411 
  192500   -939.22265    45.413971   -893.80868    1626.5637   -9730.0827    2.1357623    181.74142   0.17232409 
  192600   -937.99319    50.101064   -887.89212    1794.4384    5719.4222    2.1704983    187.34094   0.18757308 
  192700   -940.93767    49.836736   -891.10093    1784.9711    4394.7191    2.1747175    187.96342   0.15731717 
  192800    -945.2003     45.88582   -899.31448    1643.4637   -10039.948    2.1520065    188.45903   0.15132106 
  192900   -937.94741    47.210675   -890.73674    1690.9152    1285.8993      2.15661    179.43001   0.14388508 
  193000   -938.31877    50.533734   -887.78504    1809.9351    11371.409    2.1854758    188.93935   0.16712307 
  193100   -942.03515    48.487964   -893.54718     1736.663   -6304.6607    2.1489608    189.04222   0.14907688 
  193200   -938.43029    49.605165   -888.82512    1776.6771    -2397.927    2.1464543    189.16164   0.16563444 
  193300   -937.18733    53.515563   -883.67177    1916.7334    5183.2707    2.1626754    186.26008    0.1712892 
  193400   -943.30386     52.38319   -890.92067    1876.1759   -1885.3343    2.1568331    187.43614   0.16514405 
  193500   -941.35266    49.391693   -891.96097    1769.0313   -3063.0536    2.1528058    196.75743   0.16223014 
  193600    -936.3386    54.776137   -881.56246    1961.8826    4754.9963    2.1549782    200.34807   0.16498347 
  193700   -933.58224    46.589544    -886.9927    1668.6685    6376.4684    2.1626704    203.21682   0.16935303 
  193800   -941.62361    49.740538   -891.88307    1781.5257   -5146.7655    2.1444604    190.73945   0.15966037 
  193900   -939.86565    52.618125   -887.24753    1884.5904    1959.5876    2.1598127    185.80302   0.15591175 
  194000   -937.14704    57.525628   -879.62141    2060.3594    2276.0585    2.1515209    182.91948   0.16016787 
  194100    -939.9272    49.312106    -890.6151    1766.1808    -2308.133    2.1555762    182.57783   0.16072701 
  194200   -941.79966    50.884611   -890.91505    1822.5022    -1177.529    2.1548088    189.78226   0.15588552 
  194300   -941.88365    54.513919   -887.36973    1952.4909     5160.279    2.1691415     181.7901   0.16090385 
  194400   -931.79948    54.269768   -877.52972    1943.7463   -2518.4653    2.1290622    195.06324   0.17105547 
  194500   -942.20528    53.086733   -889.11855    1901.3742   -4393.1043     2.152232    189.45727   0.15329558 
  194600   -943.85658    53.813875   -890.04271    1927.4178    1365.7946    2.1705704    189.60494   0.14062148 
  194700   -944.34881    53.515898   -890.83291    1916.7454   -2930.2955    2.1566909    183.23525   0.13890688 
  194800   -934.03529    52.447748   -881.58754    1878.4881   -2326.0902    2.1385478    190.10975   0.15283939 
  194900   -939.12225     54.11795    -885.0043    1938.3087    2429.6831    2.1588785    187.74861   0.16037937 
  195000   -943.89029    53.298227   -890.59206    1908.9492   -4288.2719     2.153609     191.5039   0.14717602 
  195100   -941.77253    51.154306   -890.61822    1832.1617    320.00348    2.1587992    186.80329   0.15030301 
  195200   -934.75128    52.242246   -882.50903    1871.1278    4883.4473    2.1587641    186.10941   0.16050532 
  195300   -939.40707    53.984196   -885.42287    1933.5181   -5568.7271    2.1419187    175.68076   0.16295251 
  195400    -944.5056     52.59068   -891.91492    1883.6074   -6352.4738    2.1505278    191.29552   0.16024763 
  195500   -939.28095    51.085833   -888.19512    1829.7093    11007.599    2.1822313    183.55809   0.16420186 
  195600    -939.1384    52.691571   -886.44683     1887.221   -1750.2087    2.1464037    186.81568   0.17321237 
  195700   -944.37585    46.716077   -897.65977    1673.2005   -3392.9582    2.1593096    182.67353   0.16699951 
  195800   -940.75201    47.491803   -893.26021    1700.9842    3774.7563    2.1753864    186.20906   0.17781496 
  195900   -938.71949    50.170847   -888.54865    1796.9378    3990.4206    2.1676716    185.62614   0.18870976 
  196000   -941.85616    51.707451   -890.14871    1851.9734   -8939.5651    2.1395914    186.18106   0.19025363 
  196100    -947.0561    47.884789   -899.17131    1715.0595    6724.9344    2.1936023     191.7776   0.19762619 
  196200    -941.5197    51.968216   -889.55148     1861.313    5291.2061    2.1761813    188.00109   0.17878296 
  196300   -939.35867    49.580921   -889.77775    1775.8088   -11217.774    2.1344143    189.27415   0.17829194 
  196400   -941.39111     51.23928   -890.15183    1835.2052   -436.05673    2.1634353    189.86246   0.17893489 
  196500   -945.12679    46.603281   -898.52351    1669.1605    17437.126    2.2173037    181.93042   0.16627647 
  196600   -937.11354    48.541464   -888.57208    1738.5792   -11639.101    2.1246328    195.79504   0.17696472 
  196700   -938.09509    48.299714   -889.79538    1729.9206   -5355.8026    2.1448882    187.67829   0.17351846 
  196800   -939.63791    49.544308    -890.0936    1774.4975    11739.968     2.196135    189.37892   0.18920169 
  196900   -941.84729    50.354393    -891.4929    1803.5117   -4513.9422    2.1519306     193.5692   0.17185807 
  197000    -948.9107    46.611489   -902.29921    1669.4545   -4936.5072    2.1649779     192.4794   0.15235896 
  197100    -944.8635    48.636009   -896.22749    1741.9654    2178.8429     2.174159    187.84058   0.15791295 
  197200   -937.00878    45.891181    -891.1176    1643.6557    5460.9068     2.167939     183.6829   0.17966658 
  197300   -938.42302    49.592218   -888.83081    1776.2134   -2616.8595     2.149856    184.09382   0.16461027 
  197400   -939.01127    49.956008   -889.05526    1789.2431   -108.00588    2.1547549    188.19133   0.15444174 
  197500    -947.9918    49.943684   -898.04811    1788.8016     6151.506    2.1910434    182.48981   0.14890532 
  197600   -940.22807    49.195371    -891.0327    1761.9998   -3828.7332     2.150615    193.90098   0.17160631 
  197700   -941.70019    52.699822   -889.00037    1887.5165   -7017.3103    2.1436353    190.67233   0.16579964 
  197800   -943.26215    49.633313   -893.62884    1777.6853    5396.7234    2.1824952    191.44081   0.16854074 
  197900   -943.44433     45.84292   -897.60141    1641.9271     4391.595    2.1835293     188.4301    0.1612714 
  198000   -938.77931    49.217758   -889.56155    1762.8016   -10134.246    2.1326886    186.31774   0.16134372 
  198100   -939.49553    50.038886   -889.45665    1792.2114    1902.5911    2.1644073    190.83075   0.16886428 
  198200   -946.11748    51.001386   -895.11609    1826.6847    15465.824    2.2107711    182.78592   0.15358466 
  198300   -935.53637    48.358134   -887.17824     1732.013   -10654.258    2.1247065    189.53734   0.17530582 
  198400   -938.85226    51.554059    -887.2982    1846.4794   -5684.1094    2.1435943    189.89084   0.17346399 
  198500   -941.65639    52.441812   -889.21457    1878.2755    14372.599    2.1995706    179.77973   0.17748787 
  198600   -945.43033    50.808143   -894.62219    1819.7634   -5784.5172    2.1533746    189.94292   0.16667043 
  198700   -936.02388    51.418266   -884.60562    1841.6158    -8813.603    2.1289671    186.81359   0.18961163 
  198800   -940.78381    52.944592   -887.83921    1896.2833    6319.5781     2.178858    186.78706   0.17561851 
  198900   -944.07523    51.151211   -892.92402    1832.0509     520.8053    2.1700628    187.88458   0.16885896 
  199000   -939.35639    51.118869   -888.23752    1830.8925   -6236.1447    2.1409833    187.40627   0.16308915 
  199100   -939.92474    56.729011   -883.19573    2031.8274    924.21319    2.1531824    204.71118   0.17289088 
  199200   -941.19853    47.914371   -893.28416     1716.119    7710.8224    2.1815148    185.51431   0.16114941 
  199300   -937.74384    47.287614   -890.45622    1693.6708   -5725.1382     2.143081    196.26368   0.16904065 
  199400   -936.24675    50.938319   -885.30844    1824.4259   -664.88429    2.1413747    187.05208   0.17223574 
  199500   -946.06475    51.055913   -895.00884    1828.6377    7900.7241    2.1869539    187.28055   0.16596233 
  199600   -940.87048    50.286264   -890.58421    1801.0716    -2485.484    2.1506281    192.15647   0.16582426 
  199700   -935.86786    48.472301   -887.39556     1736.102   -4990.8693    2.1350286    188.41797   0.16537075 
  199800   -942.96211    48.325199   -894.63691    1730.8334    6370.5599    2.1793412    190.85795   0.15127687 
  199900   -945.01356     52.10349   -892.91007    1866.1581    993.36746    2.1679751     178.8027   0.14667778 
  200000   -938.83455    51.421365   -887.41318    1841.7268   -8986.6243    2.1261033    185.24459   0.16568042 
  200100    -940.0482    46.675799   -893.37241    1671.7578    1547.0381    2.1639431    186.73756   0.16177437 
  200200   -944.13685    51.294083   -892.84277     1837.168     14130.45     2.198803    183.29898   0.14506952 
  200300   -938.64347    53.810257   -884.83322    1927.2883   -14650.744    2.1166195    188.64662   0.15089398 
  200400   -940.01534    48.265569   -891.74977    1728.6977   -9274.0212    2.1351699     192.8751   0.14996524 
  200500   -942.56825    51.963919   -890.60433    1861.1591    19915.504    2.2107609    196.23584   0.16069837 
  200600   -940.67994    52.972765   -887.70717    1897.2923   -2610.4725    2.1510941    182.67903   0.16617588 
  200700   -936.71406    51.063153   -885.65091     1828.897    -15131.97    2.1122806    195.49813   0.16187379 
  200800   -943.14306     49.22425   -893.91881    1763.0341    8286.2962    2.1859569    184.22319   0.13741102 
  200900   -940.44264    51.159841    -889.2828      1832.36    2868.5411    2.1678197    193.77663    0.1503602 
  201000   -936.36027    49.492545   -886.86772    1772.6435   -7343.4756    2.1309968    192.46681   0.15304913 
  201100   -941.00454    45.284336   -895.72021    1621.9207    4850.4369    2.1722148    190.43361   0.14543368 
  201200    -940.2411     50.50275   -889.73835    1808.8254    3925.5005    2.1689722    182.90479   0.16627433 
  201300    -937.3155    51.011169   -886.30433    1827.0351   -4989.8136    2.1344427    184.60083   0.16902727 
  201400   -941.46549     47.62569    -893.8398    1705.7795   -2637.7658    2.1563461    183.96695   0.17366485 
  201500   -942.63372    49.577704   -893.05601    1775.6936    6169.1124    2.1829045    186.23956   0.17599692 
  201600   -937.35156    52.337009   -885.01455    1874.5218   -3183.6895    2.1404913    191.78364   0.15592761 
  201700   -941.94435    48.759044   -893.18531    1746.3721   -5217.3313    2.1486166    191.62098   0.15246787 
  201800   -940.28257     48.11334   -892.16923    1723.2454    6785.9949    2.1805621    179.82292   0.15861057 
  201900   -936.55653    52.986072   -883.57046    1897.7689    -1204.538    2.1492822    191.10305   0.16638934 
  202000   -940.37781    49.018666   -891.35915    1755.6708   -7829.7774    2.1404167    187.21699   0.15585205 
  202100   -945.23689    52.690741   -892.54615    1887.1913    2972.8172    2.1756857    191.66728   0.15962434 
  202200   -941.02865    57.364711   -883.66394    2054.5959     5915.406    2.1732934    184.31214   0.17234566 
  202300   -940.71812    50.722304   -889.99582     1816.689   -12884.165    2.1308548     198.3865   0.18009895 
  202400   -941.04909    45.927963   -895.12113    1644.9731   -4413.0631    2.1514908    187.68858   0.17473192 
  202500   -940.27634    54.622739    -885.6536    1956.3884    18616.621    2.1987931    185.70751   0.14793478 
  202600   -940.73582    52.156317    -888.5795    1868.0501    -4637.566    2.1433756    184.76686   0.14664571 
  202700   -942.11135    45.148734   -896.96262    1617.0639   -11296.346     2.139349    191.78557   0.15190037 
  202800    -941.0306     50.72931   -890.30129    1816.9399     10317.82    2.1857732    188.95382   0.15029175 
  202900   -940.58645    54.363835   -886.22262    1947.1154    1973.9183    2.1637701    186.91666   0.15736137 
  203000   -942.74537    47.926673    -894.8187    1716.5596   -7763.9478    2.1475944    180.66118   0.15071793 
  203100   -941.89675    49.642365   -892.25439    1778.0095    511.23472    2.1674791    193.09095   0.16062042 
  203200   -933.26546    48.492258    -884.7732    1736.8168    7834.7568     2.164894    189.67575   0.18134372 
Loop time of 141.493 on 1 procs for 200000 steps with 217 atoms

Performance: 366.379 ns/day, 0.066 hours/ns, 1413.501 timesteps/s
100.0% CPU use with 1 MPI tasks x no OpenMP threads

MPI task timing breakdown:
Section |  min time  |  avg time  |  max time  |%varavg| %total
---------------------------------------------------------------
Pair    | 134.53     | 134.53     | 134.53     |   0.0 | 95.08
Neigh   | 3.7339     | 3.7339     | 3.7339     |   0.0 |  2.64
Comm    | 0.95627    | 0.95627    | 0.95627    |   0.0 |  0.68
Output  | 0.069633   | 0.069633   | 0.069633   |   0.0 |  0.05
Modify  | 1.8854     | 1.8854     | 1.8854     |   0.0 |  1.33
Other   |            | 0.3219     |            |       |  0.23

Nlocal:    217 ave 217 max 217 min
Histogram: 1 0 0 0 0 0 0 0 0 0
Nghost:    953 ave 953 max 953 min
Histogram: 1 0 0 0 0 0 0 0 0 0
Neighs:    4154 ave 4154 max 4154 min
Histogram: 1 0 0 0 0 0 0 0 0 0
FullNghs:  8308 ave 8308 max 8308 min
Histogram: 1 0 0 0 0 0 0 0 0 0

Total # of neighbors = 8308
Ave neighs/atom = 38.2857
Neighbor list builds = 6323
Dangerous builds = 120
Total wall time: 0:02:23
