LAMMPS (3 Mar 2020)
Reading data file ...
  orthogonal box = (0 0 0) to (16.36 16.36 16.36)
  1 by 1 by 1 MPI processor grid
  reading atoms ...
  256 atoms
  read_data CPU = 0.000979891 secs
Reading potential file /usr/share/lammps-stable/potentials/Ag_u3.eam with DATE: 2007-06-11
Neighbor list info ...
  update every 1 steps, delay 10 steps, check yes
  max neighbors/atom: 2000, page size: 100000
  master list distance cutoff = 7.55
  ghost atom cutoff = 7.55
  binsize = 3.775, bins = 5 5 5
  2 neighbor lists, perpetual/occasional/extra = 1 1 0
  (1) pair eam, perpetual
      attributes: half, newton on
      pair build: half/bin/atomonly/newton
      stencil: half/bin/3d/newton
      bin: standard
  (2) compute rdf, occasional, copy from (1)
      attributes: half, newton on
      pair build: copy
      stencil: none
      bin: none
Setting up Verlet run ...
  Unit style    : metal
  Current step  : 0
  Time step     : 0.001
Per MPI rank memory allocation (min/avg/max) = 3.744 | 3.744 | 3.744 Mbytes
Step PotEng KinEng TotEng Temp Press Density c_msdall[4] 
       0       -729.6    37.575924   -692.02408         1140    9165.9211    10.472245            0 
     100   -707.08247    23.245233   -683.83724    705.22724    38040.282    10.472245  0.065550498 
     200   -698.90445    34.384673   -664.51977     1043.182    53127.918    10.472245  0.083670747 
     300   -688.18887    39.877408   -648.31146    1209.8237    67691.044    10.472245   0.11058946 
     400   -687.05912    39.063742   -647.99538    1185.1383    70085.236    10.472245   0.10487218 
     500    -696.0497    36.343374   -659.70632    1102.6062    56925.369    10.472245  0.076940375 
     600   -695.36739    35.730819   -659.63657    1084.0221    58065.367    10.472245  0.074940322 
     700   -692.49072     41.33814   -651.15258    1254.1403    63599.141    10.472245  0.084837998 
     800   -691.78025    36.694497   -655.08575    1113.2587    63026.318    10.472245    0.1027589 
     900   -692.70098     39.50041   -653.20057    1198.3862    62081.293    10.472245   0.10516387 
    1000   -690.95657    40.473774    -650.4828    1227.9166    66197.902    10.472245  0.098048038 
    1100   -694.95535    38.703069   -656.25228     1174.196    59430.653    10.472245  0.078509629 
    1200   -693.52876    36.012808   -657.51595    1092.5773    60773.571    10.472245  0.086270452 
    1300    -690.4105    37.477622   -652.93288    1137.0176    65569.225    10.472245  0.094948538 
    1400   -691.91418    37.621768   -654.29241    1141.3908    63367.833    10.472245  0.094650366 
    1500   -695.74601    38.123898   -657.62211    1156.6247    58540.921    10.472245  0.076722437 
    1600   -695.13461    37.386155   -657.74846    1134.2427    58885.334    10.472245  0.075749637 
    1700   -691.50276    40.436504   -651.06626    1226.7859    64888.796    10.472245  0.088551344 
    1800   -691.28813    36.966051   -654.32208    1121.4973    64593.697    10.472245  0.095243609 
    1900   -694.24986    41.069099   -653.18076    1245.9779     61064.01    10.472245  0.081875336 
    2000   -691.49315    35.462887   -656.03026    1075.8935     64565.14    10.472245  0.087866518 
    2100   -689.80848    37.031361   -652.77711    1123.4787    66828.296    10.472245  0.088378943 
    2200   -689.43759     33.94163   -655.49596    1029.7407    65723.845    10.472245  0.096557832 
    2300   -690.30299     36.07205   -654.23094    1094.3746    65767.058    10.472245  0.091641182 
    2400   -690.33557    37.830746   -652.50483    1147.7309    65356.749    10.472245  0.085451738 
    2500   -692.00376    36.967741   -655.03602    1121.5486    63123.932    10.472245  0.083150359 
    2600   -694.59969    36.211187    -658.3885    1098.5958    59475.942    10.472245  0.082458301 
    2700   -695.05192    38.304949   -656.74697    1162.1176    59145.533    10.472245  0.084646555 
    2800   -691.23082    37.634148   -653.59667    1141.7664    64347.455    10.472245    0.0868153 
    2900   -692.29856    34.313298   -657.98526    1041.0166    62708.817    10.472245  0.088693873 
    3000   -692.46598    37.211813   -655.25417    1128.9534    62931.081    10.472245  0.081629344 
    3100   -690.60097    39.517353   -651.08362    1198.9002    66286.008    10.472245  0.090598727 
    3200   -694.77678    40.566761   -654.21002    1230.7377    60000.434    10.472245  0.086192075 
    3300   -693.82353    36.673134    -657.1504    1112.6106    60847.578    10.472245  0.095135879 
    3400   -692.07164    39.934321   -652.13731    1211.5504    63455.145    10.472245  0.094159013 
    3500    -692.4207    38.836154   -653.58455    1178.2336     63491.13    10.472245  0.089233064 
    3600   -694.04248    35.530261   -658.51222    1077.9375    59643.332    10.472245  0.089038766 
    3700   -692.41805    39.471981   -652.94607    1197.5237    63214.024    10.472245  0.081613627 
    3800   -692.80693    38.036852   -654.77008    1153.9839    62214.387    10.472245   0.08422137 
    3900   -692.54676    37.588402   -654.95836    1140.3786    62985.008    10.472245  0.085531227 
    4000   -690.05768    35.393435   -654.66425    1073.7864    65928.035    10.472245  0.088458328 
    4100   -692.19414    38.114535   -654.07961    1156.3407     63722.56    10.472245  0.085088147 
    4200   -694.70921    36.540852   -658.16835    1108.5974    59185.747    10.472245  0.087920875 
    4300    -689.8514    38.703861   -651.14754      1174.22    66520.946    10.472245  0.099353407 
    4400   -690.17803    38.709054   -651.46897    1174.3775    66096.208    10.472245   0.09685463 
    4500   -695.65361     37.57853   -658.07508    1140.0791    58670.231    10.472245  0.083980861 
    4600   -691.00134     36.01663   -654.98471    1092.6932    64127.186    10.472245  0.093265022 
    4700   -692.15641    39.895406     -652.261    1210.3698    64132.246    10.472245  0.087802475 
    4800   -694.79239    38.381978   -656.41041    1164.4545    59894.194    10.472245  0.079244288 
    4900   -695.28754    33.085125   -662.20241    1003.7555    57725.318    10.472245  0.074349562 
    5000   -692.76758    37.356495   -655.41109    1133.3428    63130.804    10.472245  0.073997344 
    5100   -691.02314    36.366774   -654.65636    1103.3161    64778.193    10.472245  0.078879005 
    5200   -691.52056    34.792757   -656.72781    1055.5627    63771.144    10.472245  0.080048071 
    5300   -694.60883    42.082047   -652.52679    1276.7093    62114.158    10.472245  0.068787558 
    5400    -690.2983    34.201742   -656.09656    1037.6321    65650.656    10.472245  0.081255852 
    5500   -692.43089    37.242543   -655.18834    1129.8857    64041.429    10.472245  0.081049824 
    5600   -691.86351     40.21479   -651.64872    1220.0594    64106.614    10.472245  0.084350032 
    5700   -689.40854    40.390278   -649.01826    1225.3835    68620.907    10.472245    0.0866635 
    5800   -694.93438    38.434621   -656.49975    1166.0516    59304.039    10.472245  0.074763841 
    5900   -693.94624    36.527181   -657.41906    1108.1826    60438.809    10.472245  0.080154244 
    6000   -689.57405    37.484968   -652.08908    1137.2405    66638.325    10.472245  0.090810477 
    6100   -691.14236    37.754442   -653.38792     1145.416    65370.075    10.472245  0.090685587 
    6200   -692.65769     37.77405   -654.88364    1146.0109    62856.265    10.472245  0.085408338 
    6300   -693.77871    36.449287   -657.32942    1105.8194    61422.222    10.472245  0.081607165 
    6400   -693.97277    39.365704   -654.60706    1194.2994    61409.057    10.472245  0.078937873 
    6500   -691.81572    38.727374   -653.08835    1174.9334    64039.851    10.472245  0.085192261 
    6600   -695.80269    37.717084    -658.0856    1144.2826    57864.694    10.472245  0.080372995 
    6700   -693.79174       32.236   -661.55574    977.99431    59708.515    10.472245  0.090175812 
    6800   -691.45371    37.232769   -654.22095    1129.5892    64571.483    10.472245  0.091054678 
    6900   -689.87145    36.170292   -653.70115    1097.3551    66214.033    10.472245  0.098661309 
    7000   -693.55142    39.049244   -654.50218    1184.6984     60717.68    10.472245  0.090418065 
    7100   -693.80465    35.761345    -658.0433    1084.9482    60944.326    10.472245  0.091653899 
    7200    -687.3905    36.219182   -651.17132    1098.8384    68637.388    10.472245   0.10401242 
    7300   -694.33684    42.850784   -651.48605    1300.0317    61701.594    10.472245   0.08661894 
    7400    -693.4652    37.897767   -655.56743    1149.7642    61214.075    10.472245  0.090858752 
    7500    -692.2046    39.952357   -652.25225    1212.0976    63573.567    10.472245  0.096593594 
    7600   -691.37494    40.129392   -651.24555    1217.4686    64624.134    10.472245  0.097386314 
    7700   -692.72334    36.054398   -656.66895    1093.8391    61514.738    10.472245  0.098314515 
    7800   -691.51868    40.279181    -651.2395     1222.013    64810.194    10.472245  0.085767843 
    7900   -692.87742    36.455442   -656.42198    1106.0062    62059.014    10.472245  0.084827609 
    8000   -692.21565    37.653617   -654.56203    1142.3571    63253.495    10.472245  0.089360006 
    8100    -688.0401    38.543486   -649.49662    1169.3544    68882.962    10.472245    0.0957874 
    8200   -693.61778    37.536363   -656.08142    1138.7998    61036.524    10.472245  0.082324715 
    8300   -694.90225    36.595068   -658.30718    1110.2422    59500.908    10.472245  0.075469859 
    8400   -691.41252    38.075413   -653.33711    1155.1538    64675.361    10.472245  0.083775009 
    8500   -689.29995    43.490918   -645.80904    1319.4525    68808.634    10.472245   0.08930604 
    8600   -690.08048    38.969928   -651.11055    1182.2921    66909.401    10.472245  0.090619407 
    8700   -693.46293    35.891176   -657.57175    1088.8871    61256.056    10.472245  0.078032375 
    8800    -691.6572    36.393575   -655.26362    1104.1292    63632.067    10.472245  0.084195669 
    8900   -689.88778    38.067783      -651.82    1154.9223    66867.114    10.472245  0.092541452 
    9000   -695.06887    40.886209   -654.18266    1240.4293    60309.932    10.472245  0.088270591 
    9100   -691.60429     33.28843   -658.31586    1009.9235    62614.441    10.472245  0.096311449 
    9200   -692.89566    40.191973   -652.70369    1219.3672    62958.197    10.472245  0.084415871 
    9300   -693.64462    36.271959   -657.37266    1100.4395    61151.973    10.472245  0.085323005 
    9400   -689.94795    39.088481   -650.85947    1185.8888    67339.411    10.472245  0.087553473 
    9500   -691.97229    37.508428   -654.46387    1137.9523    63671.245    10.472245  0.088361688 
    9600    -693.3655    37.701959   -655.66354    1143.8237    60761.965    10.472245  0.091666211 
    9700   -691.07862    41.656379   -649.42224    1263.7952    65920.177    10.472245  0.091457266 
    9800    -693.0317    38.525599    -654.5061    1168.8118    62508.289    10.472245  0.092318489 
    9900   -693.31335    38.885387   -654.42796    1179.7272    62100.281    10.472245  0.088645773 
   10000   -693.25549    37.263258   -655.99223    1130.5141    61565.145    10.472245  0.088143328 
Loop time of 4.91114 on 1 procs for 10000 steps with 256 atoms

Performance: 175.927 ns/day, 0.136 hours/ns, 2036.189 timesteps/s
100.0% CPU use with 1 MPI tasks x no OpenMP threads

MPI task timing breakdown:
Section |  min time  |  avg time  |  max time  |%varavg| %total
---------------------------------------------------------------
Pair    | 3.2895     | 3.2895     | 3.2895     |   0.0 | 66.98
Neigh   | 0          | 0          | 0          |   0.0 |  0.00
Comm    | 0.061559   | 0.061559   | 0.061559   |   0.0 |  1.25
Output  | 0.0026713  | 0.0026713  | 0.0026713  |   0.0 |  0.05
Modify  | 1.5412     | 1.5412     | 1.5412     |   0.0 | 31.38
Other   |            | 0.0162     |            |       |  0.33

Nlocal:    256 ave 256 max 256 min
Histogram: 1 0 0 0 0 0 0 0 0 0
Nghost:    1431 ave 1431 max 1431 min
Histogram: 1 0 0 0 0 0 0 0 0 0
Neighs:    11008 ave 11008 max 11008 min
Histogram: 1 0 0 0 0 0 0 0 0 0

Total # of neighbors = 11008
Ave neighs/atom = 43
Neighbor list builds = 0
Dangerous builds = 0
Total wall time: 0:00:04
