LAMMPS (3 Mar 2020)
Reading data file ...
  orthogonal box = (0 0 0) to (17.469 17.469 17.469)
  1 by 1 by 1 MPI processor grid
  reading atoms ...
  217 atoms
  read_data CPU = 0.000941494 secs
Reading potential file library.meam with DATE: 2012-06-29
Reading potential file LiSi.meam with DATE: 2020-11-07
1 atoms in group Li
216 atoms in group Si
Neighbor list info ...
  update every 1 steps, delay 10 steps, check yes
  max neighbors/atom: 2000, page size: 100000
  master list distance cutoff = 6
  ghost atom cutoff = 6
  binsize = 3, bins = 6 6 6
  2 neighbor lists, perpetual/occasional/extra = 2 0 0
  (1) pair meam/c, perpetual
      attributes: full, newton on
      pair build: full/bin/atomonly
      stencil: full/bin/3d
      bin: standard
  (2) pair meam/c, perpetual, half/full from (1)
      attributes: half, newton on
      pair build: halffull/newton
      stencil: none
      bin: none
Setting up Verlet run ...
  Unit style    : metal
  Current step  : 0
  Time step     : 0.003
Per MPI rank memory allocation (min/avg/max) = 8.895 | 8.895 | 8.895 Mbytes
Step Temp E_pair E_mol TotEng Press Volume 
       0         1400   -951.04357            0    -911.9553   -116399.41    5330.9442 
    3200    1422.9331   -958.64668            0   -918.91812    1354.5717    4561.5445 
Loop time of 2.3221 on 1 procs for 3200 steps with 217 atoms

Performance: 357.193 ns/day, 0.067 hours/ns, 1378.060 timesteps/s
100.0% CPU use with 1 MPI tasks x no OpenMP threads

MPI task timing breakdown:
Section |  min time  |  avg time  |  max time  |%varavg| %total
---------------------------------------------------------------
Pair    | 2.2661     | 2.2661     | 2.2661     |   0.0 | 97.59
Neigh   | 0.0083721  | 0.0083721  | 0.0083721  |   0.0 |  0.36
Comm    | 0.01353    | 0.01353    | 0.01353    |   0.0 |  0.58
Output  | 2.5526e-05 | 2.5526e-05 | 2.5526e-05 |   0.0 |  0.00
Modify  | 0.029332   | 0.029332   | 0.029332   |   0.0 |  1.26
Other   |            | 0.004761   |            |       |  0.21

Nlocal:    217 ave 217 max 217 min
Histogram: 1 0 0 0 0 0 0 0 0 0
Nghost:    957 ave 957 max 957 min
Histogram: 1 0 0 0 0 0 0 0 0 0
Neighs:    4248 ave 4248 max 4248 min
Histogram: 1 0 0 0 0 0 0 0 0 0
FullNghs:  8496 ave 8496 max 8496 min
Histogram: 1 0 0 0 0 0 0 0 0 0

Total # of neighbors = 8496
Ave neighs/atom = 39.1521
Neighbor list builds = 14
Dangerous builds = 0
Setting up Verlet run ...
  Unit style    : metal
  Current step  : 3200
  Time step     : 0.003
Per MPI rank memory allocation (min/avg/max) = 9.665 | 9.665 | 9.665 Mbytes
Step PotEng KinEng TotEng Temp Press Density c_msdli[4] c_msdsi[4] 
    3200   -958.64668    39.728565   -918.91812    1422.9331    1354.5717    2.2109415            0 1.0347594e-31 
    3300   -954.78778    35.046106   -919.74167    1255.2244    8037.6724    2.2192754   0.11822322  0.079264084 
    3400   -956.37727    41.456715   -914.92055    1484.8292    1529.5898    2.2015052   0.13099392  0.081903854 
    3500   -955.67297    41.069748   -914.60322    1470.9694   -6426.3636    2.1820276  0.002012277  0.097289292 
    3600   -958.07568    35.986606   -922.08908    1288.9097   -4578.2198    2.1949997   0.18898732   0.10270579 
    3700   -956.64627    39.730607   -916.91567    1423.0063    54.742836    2.2018669   0.47152485   0.08466984 
    3800   -952.06753    38.296881   -913.77065    1371.6554    7023.8696    2.2109933    0.1211877   0.10149324 
    3900   -955.69992    37.760938   -917.93898    1352.4599     3272.484    2.2073567   0.21135765  0.090325149 
    4000    -956.9512    35.322569   -921.62863    1265.1263    -3539.995    2.1958586   0.14339012   0.10757111 
    4100   -951.34271    37.466138   -913.87657    1341.9012   -4937.2265    2.1770827  0.020242633  0.096081614 
    4200   -954.64959    39.279023   -915.37057    1406.8322   -616.33729    2.1981402   0.24119468  0.092926486 
    4300   -955.96244    37.265549   -918.69689    1334.7168    7926.9801    2.2218824   0.10041319   0.08768436 
    4400   -953.52695    40.057268   -913.46968    1434.7061    7518.3258    2.2110381  0.050910815  0.070830848 
    4500   -953.30665     40.89423   -912.41242     1464.683    -4332.511    2.1846219   0.16277805  0.096152278 
    4600   -953.02117    36.823217   -916.19795    1318.8741   -7714.5096    2.1751648   0.15741527   0.10462492 
    4700   -953.08811    37.106592   -915.98152    1329.0236   -1631.8624    2.1923961   0.19854871   0.10190875 
    4800   -952.06623    44.254258   -907.81198     1585.027    5105.2874    2.1998636    0.1083549  0.098150464 
    4900   -953.81413    39.310454   -914.50368    1407.9579    7857.4019    2.2160092  0.046418609   0.10667228 
    5000   -955.64871    38.921928   -916.72679    1394.0423   -2897.1009    2.1912418  0.042859638  0.095376483 
    5100   -950.46745    39.247509   -911.21994    1405.7034   -7265.6061    2.1652249  0.046742294   0.10013884 
    5200   -950.85299    39.469937   -911.38305      1413.67   -3213.0622    2.1801727   0.14529511   0.10624091 
    5300   -957.71979     41.17863   -916.54116    1474.8692    4521.8878    2.2137457  0.065813956  0.088148654 
    5400   -952.45289    38.404193    -914.0487    1375.4989    9406.6319    2.2167122  0.086037429  0.097984287 
    5500   -953.28468    43.165117   -910.11956     1546.018   -3023.1157    2.1844253   0.08782124  0.091554475 
    5600   -954.77919    37.508472   -917.27071    1343.4175   -8817.0369    2.1751842    0.3701215   0.10139365 
    5700   -954.13272    37.038739   -917.09398    1326.5933   -6758.1749    2.1804977   0.22356897   0.10667481 
    5800    -955.0657    40.635988   -914.42971    1455.4337    3337.4257    2.2079414   0.25130571  0.098029021 
    5900    -953.0987    38.594172   -914.50453    1382.3033    9621.8219    2.2179503   0.18792163  0.097594899 
    6000    -956.2342    34.269147   -921.96505    1227.3966    4835.7774    2.2138838   0.11978359  0.081978927 
    6100   -952.45218    36.348731   -916.10345    1301.8797   -7648.1989    2.1735904    0.2530244   0.10565396 
    6200   -954.40434    39.799711   -914.60463    1425.4813   -8029.1955    2.1731877  0.054569614   0.10018565 
    6300   -958.02421    39.687702    -918.3365    1421.4696    3096.9326    2.2094659   0.15709353  0.085913578 
    6400   -956.95211    36.518106     -920.434    1307.9461    12078.094    2.2311884  0.037590553  0.091381519 
    6500   -954.16215    40.393285   -913.76887     1446.741    2082.1125    2.1977254   0.15995274  0.092836412 
    6600   -956.53841    40.657243   -915.88116     1456.195   -10090.485    2.1727006   0.13965117  0.092338206 
    6700   -956.76366    36.346009   -920.41765    1301.7822   -7029.4848    2.1828637  0.076351441  0.095468958 
    6800   -956.26927    39.732021   -916.53724    1423.0569    4890.5965    2.2108707  0.077774291  0.098981261 
    6900    -950.8028    37.677089   -913.12571    1349.4567    12049.036    2.2177116   0.17492609  0.092722201 
    7000   -952.16599     36.15573   -916.01026    1294.9671    1677.5971    2.1938933  0.064314439  0.082818087 
    7100   -955.84484    38.480406   -917.36444    1378.2286   -8540.9912    2.1752616   0.20039316  0.084683453 
    7200   -949.52078    40.169232   -909.35155    1438.7162   -1476.6641    2.1798529   0.13439814   0.10410801 
    7300   -952.50685    41.303296   -911.20355    1479.3343    8948.7941    2.2121992  0.094471717  0.092508519 
    7400   -955.21829    40.292228   -914.92607    1443.1215    5048.0382    2.2083986   0.19712564   0.09280044 
    7500   -954.73532      37.3171   -917.41822    1336.5632   -4014.7085    2.1878024   0.18054581  0.095320273 
    7600   -951.27033    41.011378   -910.25895    1468.8788   -5311.7676    2.1745509    0.4219703   0.10888627 
    7700    -952.5341    40.394009    -912.1401    1446.7669    1538.6022    2.1937888  0.077763918   0.10149951 
    7800   -953.02958    37.019404   -916.01018    1325.9008    4391.0091    2.2078928   0.35189661   0.10044535 
    7900   -953.78494    37.908551   -915.87639    1357.7468    2141.9306    2.1990315    0.1117731   0.09699428 
    8000   -952.50528    44.561187   -907.94409    1596.0201   -6972.7214    2.1724368    0.2228549  0.091976358 
    8100   -956.60042    40.674688   -915.92574    1456.8198   -1807.5151    2.1958602  0.088479377  0.080852242 
    8200   -955.63868      39.4501   -916.18858    1412.9595    2149.6697    2.2027675  0.043464231  0.084034167 
    8300   -952.94388    41.576814   -911.36707    1489.1307    1694.9001    2.1946908   0.20737692  0.097551407 
    8400   -953.97003    41.469067   -912.50096    1485.2716    -3208.839    2.1852061  0.049248531   0.10048892 
    8500   -954.99139    37.477389     -917.514    1342.3042    -2430.969    2.1889106   0.12217488   0.10190846 
    8600   -955.66578    41.078396   -914.58738    1471.2792    1871.1945    2.1993482   0.13655262  0.098241019 
    8700    -953.1106    41.714748   -911.39585     1494.071    10345.257    2.2154909    0.1568582   0.10173759 
    8800   -958.04236     38.49919   -919.54317    1378.9014    3555.9522    2.2129325   0.30463084   0.10899219 
    8900   -953.26066     35.94856    -917.3121    1287.5471   -15641.343    2.1539484   0.17260131   0.11286006 
    9000   -955.35135    40.657841   -914.69351    1456.2164   -13720.529    2.1618818   0.19017004   0.10764279 
    9100   -956.10908    41.822466   -914.28661    1497.9291    5821.0209    2.2127661  0.072003967  0.094211654 
    9200   -956.43157    34.693949   -921.73762    1242.6114     15666.41    2.2421443  0.065648026  0.088647068 
    9300   -954.04807    38.878483   -915.16958    1392.4863    608.42217    2.1954955  0.092078964  0.093929845 
    9400   -952.93365    38.312863   -914.62079    1372.2278   -7154.2176    2.1715567  0.046113151   0.09171348 
    9500   -955.38342     37.65387   -917.72955    1348.6251   -4676.5372    2.1853462   0.12898468  0.096532194 
    9600   -958.80599    37.367567   -921.43842    1338.3708    6426.9157    2.2206223   0.18575304  0.095830441 
    9700   -952.80377     39.38274   -913.42103    1410.5469    5020.1628    2.2060942   0.34782178   0.11185469 
    9800   -955.10077    39.874035   -915.22674    1428.1433   -4150.5803    2.1881559   0.38138986   0.11482714 
    9900   -955.90203    37.880548   -918.02148    1356.7439   -6915.5432    2.1826894   0.22059279   0.10934783 
   10000   -958.88994    35.108532   -923.78141    1257.4603   -1593.1992    2.2045963   0.11065577   0.11408804 
   10100   -956.21048    38.993057   -917.21742    1396.5899    5611.1642    2.2115663   0.17097162   0.10390996 
   10200   -956.36779    40.895104   -915.47269    1464.7143    6189.0798    2.2170226  0.021603768   0.10901138 
   10300   -955.59415    40.520808   -915.07334    1451.3084   -2506.0959    2.1935924   0.11062088   0.10526012 
   10400   -953.84808    39.080944   -914.76713    1399.7377   -9791.0494    2.1699533  0.087152204   0.10095309 
   10500   -958.41494    35.252201   -923.16274     1262.606   -1461.0437    2.2031886  0.092913939   0.10132095 
   10600   -956.19712    38.928682   -917.26843    1394.2842    7458.5051    2.2179213  0.097082378    0.1110194 
   10700   -953.21544      39.1324   -914.08304    1401.5807    8366.2327    2.2133631   0.14458165   0.11339335 
   10800    -954.6466    38.503841   -916.14276     1379.068   -3360.6516    2.1875921   0.15342937   0.11038122 
   10900   -958.72485    36.191566   -922.53329    1296.2507   -11764.866    2.1779073   0.24696806   0.10473186 
   11000   -956.35835    40.409211   -915.94914    1447.3114   -5002.8251    2.1870193   0.11905943  0.099707084 
   11100   -954.73978    41.058498   -913.68128    1470.5665    14712.551    2.2344805  0.085039579   0.10567047 
   11200   -954.49772    36.587693   -917.91003    1310.4385    17170.516    2.2443019   0.10733197   0.10821166 
   11300   -957.97453    35.127382   -922.84714    1258.1354   -4939.3099    2.1950034   0.11273844  0.086771635 
   11400   -954.71005    40.224976   -914.48507    1440.7128   -15307.792    2.1602655   0.45392326   0.10820087 
   11500   -955.41758    40.162707   -915.25487    1438.4825   -4387.7746    2.1902162   0.13941667   0.11338255 
   11600   -954.89047    37.198731   -917.69174    1332.3237    8301.3795    2.2186275      0.23606  0.097764869 
   11700   -960.35512    36.913705   -923.44142     1322.115    5410.8923    2.2220065    0.0737574  0.095156762 
   11800   -956.03199    34.604209   -921.42778    1239.3973   -536.70413    2.2041257   0.14418333  0.096708051 
   11900   -955.57897    38.165395   -917.41358     1366.946   -5328.7352    2.1883058    0.2650428   0.10967992 
   12000   -952.31428    36.613461   -915.70082    1311.3614   -562.37236    2.1919225   0.12976369   0.11102517 
   12100   -953.08013    39.437257   -913.64288    1412.4995    3771.6844    2.2030589   0.21848718   0.10996294 
   12200   -951.86242    39.923441   -911.93898    1429.9129    6671.3051     2.205433   0.10279181   0.10971177 
   12300     -955.928    35.194805    -920.7332    1260.5503    3378.3203    2.2123948  0.034318072  0.089436843 
   12400   -956.51016    38.794771   -917.71539     1389.488   -8140.6605     2.182381   0.20872231  0.099519564 
   12500    -953.1484    38.018599    -915.1298    1361.6884    -7526.019    2.1777434   0.18165482    0.1022362 
   12600   -952.97877    40.340632   -912.63813    1444.8551    2238.0332    2.2001338   0.24912782    0.1062099 
   12700   -958.42287    37.438476   -920.98439    1340.9105    10578.125    2.2324355   0.14796926   0.10349319 
   12800   -956.89986    39.394094   -917.50576    1410.9536    -2160.034    2.1998831   0.19537895  0.098077198 
   12900   -953.09887    38.747137   -914.35173    1387.7819   -7852.1636    2.1707796   0.20699644    0.1106972 
   13000   -954.40585    39.249127   -915.15673    1405.7614   -6424.3965    2.1811834   0.21546841   0.10755814 
   13100   -961.23418     39.76656   -921.46762     1424.294    4220.1716    2.2230895  0.081029062  0.096386108 
   13200   -953.63047    39.712188   -913.91828    1422.3466    6735.4867    2.2111015   0.10914137   0.10054293 
   13300   -953.58152    38.733257   -914.84826    1387.2848    499.80558    2.1951579    0.1357668   0.11362915 
   13400   -955.37911     35.49566   -919.88345    1271.3258   -4709.6005    2.1900925   0.25254094   0.10095386 
   13500   -955.58759    38.589497   -916.99809    1382.1358   -1100.9754     2.197543   0.07797039   0.09473051 
   13600   -954.45286    41.210667   -913.24219    1476.0166    2638.5999    2.2009409   0.12955413   0.10450524 
   13700   -954.22355    37.978435   -916.24511    1360.2498    1935.9729    2.2031482   0.19623613   0.10419513 
   13800   -958.87677    40.000241   -918.87653    1432.6636   -4058.7369     2.198592   0.19866405   0.10603473 
   13900    -950.0815    40.170197    -909.9113    1438.7508   -3167.0401    2.1799013    0.3724628   0.10898458 
   14000   -953.54451     39.95873   -913.58578    1431.1768    2927.5955    2.2036721   0.34713065   0.11183232 
   14100   -956.97843    40.428667   -916.54977    1448.0082    2888.3194    2.2121171   0.10016059  0.098285506 
   14200   -955.75404    40.794547   -914.95949    1461.1127   -637.93201    2.1994403   0.49629766   0.09737278 
   14300   -953.73663    44.240024   -909.49661    1584.5172   -9345.2745    2.1713256  0.018546502   0.11557793 
   14400   -954.27235    37.642328   -916.63002    1348.2117   -4603.9526    2.1890658   0.19356863   0.10297842 
   14500   -955.80229    40.600737   -915.20156    1454.1711    6467.2163    2.2159094  0.060892805  0.098942619 
   14600   -950.98448    42.536589   -908.44789    1523.5064     9656.107    2.2137158   0.16547481  0.096802032 
   14700   -953.14032    38.120601   -915.01972    1365.3417   -858.43987    2.1920569  0.021063566   0.10330275 
   14800   -954.23198    37.407943   -916.82404    1339.8168   -15690.272    2.1564854   0.30469558    0.1100527 
   14900   -953.65759     40.83811   -912.81948     1462.673   -7967.5131    2.1747725  0.025088597   0.10957073 
   15000   -954.02508    37.307024   -916.71805    1336.2023    11313.417    2.2252429    0.1879563  0.099562236 
   15100   -956.96812    38.068049   -918.90007    1363.4595    9261.0779    2.2250309   0.27276223  0.085634788 
   15200   -954.29642    39.653297   -914.64313    1420.2373   -1198.7712    2.1932248   0.26812014   0.11641398 
   15300    -951.9667    37.677213   -914.28949    1349.4611   -4512.4989    2.1816232   0.11320713   0.11144727 
   15400   -959.73061    38.003068   -921.72754    1361.1321   -633.49047    2.2051622   0.26681706  0.083908239 
   15500   -957.02466    41.978973   -915.04568    1503.5346    1935.6942    2.2045541   0.26715161  0.095571699 
   15600    -952.7854    38.701983   -914.08341    1386.1647      3757.03    2.2042168   0.26524084  0.089865009 
   15700    -955.4902    35.679387   -919.81081    1277.9063    -1082.023    2.2000667  0.071581345  0.091465876 
   15800   -957.50578    41.227778     -916.278    1476.6295   -4936.1777    2.1884629  0.090504192  0.094775166 
   15900    -952.6939    39.393742   -913.30016     1410.941    742.00226    2.1936813   0.19838287    0.1074418 
   16000   -955.82153    39.168205   -916.65333    1402.8631    2186.2901    2.2067432   0.17926074   0.10493912 
   16100   -958.51111    39.057808   -919.45331     1398.909    519.99649    2.2041922    0.3055142   0.10005333 
   16200   -952.48306    41.869414   -910.61364    1499.6106    -8113.946     2.171196   0.23035421   0.11600598 
   16300   -954.47288    39.813085   -914.65979    1425.9603   -2196.9378    2.1904534   0.23797471   0.10143629 
   16400   -955.25986     38.77183   -916.48803    1388.6664    10191.853    2.2211501  0.079856192  0.092516624 
   16500   -952.34375    39.979767   -912.36398    1431.9303    10106.471    2.2167639   0.17478188   0.10307034 
   16600    -952.2476    40.891766   -911.35583    1464.5948   -7878.2609    2.1729833  0.082131051   0.10837233 
   16700   -954.73559    37.328705   -917.40688    1336.9788   -12929.072    2.1653925  0.068019306  0.098300717 
   16800   -954.16291    39.505115    -914.6578    1414.9299   -3354.7043     2.189644  0.056053918  0.098083645 
   16900   -952.05981    43.494343   -908.56546    1557.8096    8621.0034    2.2091524   0.20836881   0.10117857 
   17000   -955.37464    38.476596   -916.89805    1378.0921    7660.7259    2.2182343   0.33564622  0.098334204 
   17100   -954.57264    38.446805   -916.12584    1377.0251   -3962.7175    2.1868248   0.14763797   0.10995135 
   17200   -953.11694    41.554195   -911.56275    1488.3206   -7834.4402    2.1697814    0.3423625   0.10893613 
   17300    -953.8896    34.777616   -919.11199    1245.6081    333.05595    2.1984767  0.012901969   0.10186504 
   17400   -954.88019    37.443561   -917.43662    1341.0926    5404.1471    2.2090841   0.23512035  0.095445127 
   17500    -952.4895    39.486377   -913.00312    1414.2588    4083.8488    2.2024155   0.21678137   0.10088384 
   17600   -954.29144    37.567213   -916.72423    1345.5213   -1878.1628    2.1932437   0.06693444  0.099535897 
   17700   -956.96576    37.378188   -919.58757    1338.7511   -3943.4468    2.1937549  0.041923654  0.094832649 
   17800   -955.24095    41.682906   -913.55805    1492.9305   -3421.8884    2.1888843   0.24007155  0.097981886 
   17900   -954.56537    38.739253   -915.82611    1387.4996    4556.9269       2.2056   0.23894774  0.098475425 
   18000   -957.39022    36.898569   -920.49165    1321.5729    4261.7197    2.2148597   0.24166922   0.10080053 
   18100   -952.33041    39.751714   -912.57869    1423.7622   -3602.5902    2.1805343   0.09387804   0.10441392 
   18200   -954.92282    39.405671   -915.51715    1411.3682     -7852.52    2.1737063   0.46916137    0.1134405 
   18300   -958.81747    39.901152   -918.91631    1429.1145   -891.91615    2.2022142   0.13096061  0.098310131 
   18400   -951.56657    40.505089   -911.06148    1450.7454    13084.782    2.2225394   0.17392441   0.10315667 
   18500   -952.90768    39.919763   -912.98792    1429.7811    10960.542    2.2178074  0.058906947   0.10315761 
   18600   -954.36496     36.48478   -917.88018    1306.7525   -8083.5682     2.179987   0.25001907   0.10289884 
   18700    -953.1959    40.716884   -912.47901    1458.3311   -12093.117    2.1590232   0.38511592    0.1009436 
   18800   -955.14156    43.793236   -911.34832    1568.5149   -2162.8746    2.1882328   0.23724024  0.094319143 
   18900   -957.44636    40.957676   -916.48869    1466.9554    7773.9579    2.2215697   0.14833032  0.092522581 
   19000   -953.19705    38.999063   -914.19799     1396.805    6096.3684    2.2078561   0.31552819  0.095703851 
   19100    -949.7443    39.550272   -910.19402    1416.5473   -3580.3872    2.1769444   0.31674088   0.11774561 
   19200   -955.36474    36.858737   -918.50601    1320.1463   -3651.1885    2.1914143   0.16294681  0.096367475 
   19300   -954.41107    38.889449   -915.52162     1392.879    1286.4961    2.1985464   0.36287538   0.09902032 
   19400   -952.92738    41.529874   -911.39751    1487.4495    4152.4806    2.1989579   0.37443571   0.10958142 
   19500   -957.89375    38.715744   -919.17801    1386.6575    2117.8539    2.2076026   0.22731684  0.085443167 
   19600   -956.71681    39.480208    -917.2366    1414.0379   -6855.5669    2.1850167   0.19311651   0.08824126 
   19700   -954.90773    41.741148   -913.16658    1495.0165   -4973.5602    2.1817045   0.21020045  0.098195826 
   19800   -956.52878     38.07048    -918.4583    1363.5465    2231.0838    2.2079891  0.085517588   0.10455526 
   19900   -955.99196    37.330943   -918.66101     1337.059    7568.1976    2.2193964   0.12311253   0.10345805 
   20000   -953.42907    40.539281   -912.88979      1451.97    1423.0878    2.1972999  0.057000012  0.090433346 
   20100   -954.24364    37.451306   -916.79233      1341.37   -10692.075    2.1702495  0.016922797  0.098883543 
   20200   -955.48149    34.987449   -920.49404    1253.1235   -10175.598    2.1732232   0.44494616  0.098773692 
   20300   -951.48487    38.438239   -913.04663    1376.7183    5967.6931    2.2066149   0.14764347   0.11451662 
   20400   -955.96258    42.290434   -913.67215      1514.69    17183.659    2.2408842   0.18180594   0.10348049 
   20500   -954.90172    36.664373   -918.23734    1313.1849     5642.921    2.2115956  0.071778609  0.099002624 
   20600   -952.21855    41.530409   -910.68814    1487.4687   -9652.5158    2.1664766   0.26213787   0.10458351 
   20700   -952.16895    38.880329   -913.28862    1392.5524   -5985.0873    2.1799116   0.19195038   0.11528825 
   20800   -952.63926    35.733868    -916.9054    1279.8576    4723.7482    2.2075066    0.3909626   0.11549665 
   20900   -954.35566    40.749429   -913.60623    1459.4968    5728.3729    2.2109177  0.028366341    0.1108305 
   21000   -954.07368    44.082159   -909.99152    1578.8631   -1609.6721    2.1908267   0.20404083    0.1095664 
   21100   -954.87181    37.440834   -917.43098    1340.9949   -4877.2045    2.1878059  0.067043153   0.10501206 
   21200   -956.26778    41.089664   -915.17811    1471.6827   -3643.2118    2.1908692   0.23809476   0.11522913 
   21300    -952.3152    42.274214   -910.04098     1514.109    4272.0557    2.1991415   0.12191359   0.10243014 
   21400   -957.58941     39.34996   -918.23945    1409.3729    5006.3902    2.2171633   0.20820951   0.10008076 
   21500    -955.0789    38.302275   -916.77662    1371.8486    -3815.732    2.1871281   0.47197513   0.10186233 
   21600   -950.90957    37.438084   -913.47148    1340.8964   -8031.9874    2.1706119   0.39678947   0.10596688 
   21700   -953.10246     35.00563   -918.09683    1253.7747    1007.6821    2.2002453  0.026285096   0.10826584 
   21800   -956.79961    37.897458   -918.90215    1357.3495    10331.308    2.2274325   0.22713787   0.09207776 
   21900   -953.14707    40.256833   -912.89024    1441.8538     9135.769     2.212169   0.24010535     0.102137 
   22000   -953.22133    37.158235    -916.0631    1330.8732   -7660.4553    2.1774691   0.13839076   0.11153588 
   22100   -958.21273     36.59889   -921.61384    1310.8395   -14293.241     2.170477    0.5462082   0.10999697 
   22200    -954.0958      39.5629   -914.53291    1416.9996    -2563.497    2.1919113  0.079074476   0.11762582 
   22300   -956.95608    43.375083     -913.581    1553.5382    11322.634    2.2253779   0.20907082   0.10413663 
   22400   -957.27168    38.334347   -918.93734    1372.9973    6411.6706    2.2165434   0.30303674  0.092677718 
   22500   -952.73481    39.764415    -912.9704    1424.2171   -3395.3557    2.1855054   0.46441556   0.10103868 
   22600   -951.28225    38.460687   -912.82156    1377.5223   -2664.7125    2.1850897   0.43867863  0.097733515 
   22700   -954.94911    37.739127   -917.20998    1351.6787    1277.4638    2.1994765   0.13815949  0.088607947 
   22800   -954.15639    38.854527   -915.30187    1391.6282    2203.8908    2.2043283  0.097494785  0.097435141 
   22900    -950.1397    39.918501    -910.2212     1429.736    632.06026     2.189328   0.18908125  0.095898896 
   23000   -954.52779    37.594403   -916.93339    1346.4952   -1036.1398    2.1924426   0.22668066  0.089608904 
   23100    -952.7323    37.325523   -915.40678    1336.8649    -1668.387    2.1902111   0.11722689  0.096360153 
   23200   -952.55285    43.049432   -909.50342    1541.8745   -385.57938    2.1874583   0.17491665   0.10603156 
   23300     -952.581    35.080277   -917.50073    1256.4483    7315.0975    2.2103334   0.24662686  0.096830504 
   23400   -952.39218    36.779056   -915.61312    1317.2924    1854.8363    2.1978302   0.17957006  0.097539054 
   23500   -953.64069    42.299795   -911.34089    1515.0252   -7220.3982    2.1733982    0.1050844  0.099758229 
   23600    -956.0179    36.614569   -919.40333    1311.4011   -2114.6445    2.1930493   0.13398503  0.080296331 
   23700   -954.31925    37.623575   -916.69567      1347.54     3406.858    2.2047497  0.067328895  0.097127634 
   23800   -954.91859    42.572942   -912.34565    1524.8084    5151.8425    2.2089448   0.11025223   0.08216509 
   23900   -956.98355    38.448477   -918.53507     1377.085    336.01047    2.2034558   0.20273576  0.080614477 
   24000   -955.38122    36.842656   -918.53857    1319.5703   -9461.9865    2.1751219  0.045755162  0.097880669 
   24100   -955.08576    41.259506   -913.82626    1477.7659   -9059.5986    2.1735335   0.34696272  0.091221838 
   24200   -955.10343    38.627788   -916.47565    1383.5073    5477.9251    2.2115247   0.26405399  0.099260004 
   24300   -957.36984    37.677605   -919.69224    1349.4752    13388.469    2.2336834   0.25486082  0.095403527 
   24400   -953.05156    40.942762    -912.1088    1466.4213   -1103.6161     2.188745  0.084798905   0.10791787 
   24500   -954.36895    38.499157    -915.8698    1378.9002   -10625.888    2.1691859    0.3061537   0.10308981 
   24600   -956.40831     37.86666   -918.54164    1356.2465   -5827.6365    2.1860542  0.069870771  0.088392974 
   24700   -951.25189    40.775255   -910.47664    1460.4218    4017.4964    2.1983661   0.41175843  0.097886778 
   24800   -952.48508    38.645581    -913.8395    1384.1446    8374.5258    2.2117811   0.34921591  0.091400153 
   24900   -952.53288    34.837071   -917.69581    1247.7376    3937.2318    2.2008087   0.22173602  0.094432149 
   25000   -952.77022    41.464754   -911.30547    1485.1171   -4841.9305    2.1772196   0.18414467  0.098829866 
   25100   -950.17345    36.887361   -913.28609    1321.1715   -760.65823    2.1882809    0.0949241   0.11283805 
   25200   -954.96924    37.644191   -917.32505    1348.2784    1074.1461    2.2029979   0.16119726   0.10898255 
   25300   -953.70052    40.868098   -912.83243     1463.747    3314.1231    2.2002322    0.2613029   0.11641371 
   25400   -953.61424    41.674991   -911.93925     1492.647    -132.1008    2.1909096   0.49041536   0.10119225 
   25500   -958.06784     39.60166   -918.46618    1418.3879   -3108.7107    2.1967851   0.31182668  0.098269393 
   25600     -951.935    37.574879   -914.36012    1345.7959    1344.8667    2.1956705   0.23626546   0.10849861 
   25700   -953.55799    41.622006   -911.93598    1490.7493    769.52202    2.1962431   0.31789251   0.10457302 
   25800   -955.54897    35.358281   -920.19069    1266.4054     4056.819    2.2122833  0.058093212   0.11399355 
   25900   -953.05236    37.466281   -915.58608    1341.9063   -1199.7058    2.1885334   0.17240841  0.096016363 
   26000   -955.95758     42.21679   -913.74079    1512.0523   -8389.0795    2.1755778   0.12896561   0.10933209 
   26100   -957.04244    36.213877   -920.82856    1297.0497    546.06159    2.2074315  0.066075421   0.10642317 
   26200   -953.58566    36.783618   -916.80204    1317.4558    10374.655    2.2215607  0.079471729    0.1176904 
   26300   -952.16257    38.889588   -913.27298     1392.884    5698.6915    2.2079628   0.18035001   0.12504036 
   26400   -952.66225    34.373488   -918.28876    1231.1337   -3899.9968    2.1837549    0.1405657   0.10906541 
   26500   -956.00366    36.991974   -919.01169    1324.9184   -8076.1735    2.1800613   0.22450314   0.11838335 
   26600   -952.80251    39.967863   -912.83465    1431.5039    348.51303    2.1943053  0.082267113   0.12022788 
   26700   -953.65694    38.188953   -915.46798    1367.7898    9870.8361    2.2194556   0.44190089   0.11735475 
   26800   -953.63656    35.070483   -918.56607    1256.0975     6482.315    2.2135242   0.31783717   0.11297337 
   26900   -950.08208    40.267489   -909.81459    1442.2354   -7142.7783    2.1692185   0.58049703   0.11546993 
   27000   -954.44817    39.599385   -914.84879    1418.3064    -6389.733     2.180716   0.26196196    0.1127555 
   27100   -954.53701    37.661521   -916.87549    1348.8991    3824.7914    2.2064276   0.12776437   0.11352345 
   27200   -953.65198    42.563633   -911.08834     1524.475    8386.8205    2.2122293   0.15480054   0.10517493 
   27300   -954.99187    42.593096   -912.39877    1525.5302   -695.48666     2.196487   0.30447598   0.10151415 
   27400   -952.92316    35.421991   -917.50117    1268.6873   -4812.2379     2.183672  0.076980976   0.10257281 
   27500   -950.85058    36.981761   -913.86882    1324.5526   -5235.2883    2.1809009   0.14934854   0.10093862 
   27600   -951.63994    41.881952   -909.75799    1500.0596    2295.6255    2.1929219    0.1595647   0.10454535 
   27700   -958.97006    40.846681   -918.12338      1462.98    4546.7496    2.2174404   0.14687946  0.094130921 
   27800   -953.28663    37.959685   -915.32694    1359.5782    1451.6269    2.2002894  0.065010874  0.099355696 
   27900   -952.70479    40.400454   -912.30433    1446.9977   -2503.2763      2.18779   0.17500241   0.11095735 
   28000   -957.12881    36.588447   -920.54036    1310.4655   -709.78664    2.2039654   0.22110433    0.1016603 
   28100   -954.05327    37.570308   -916.48296    1345.6322   -604.65646    2.1977634   0.29667525   0.10982401 
   28200   -951.96824    38.865115   -913.10312    1392.0075    1264.2018     2.195022   0.25637306  0.097004893 
   28300   -955.57136    35.842477   -919.72888    1283.7475    1905.2042    2.2051502   0.27562236   0.10244801 
   28400   -958.14164    40.686867   -917.45477     1457.256   -2883.0616    2.1997571   0.17338592   0.10184745 
   28500   -952.85649    39.573217   -913.28327    1417.3691   -272.53581     2.193738   0.33260183  0.097960873 
   28600   -953.07201    35.000494   -918.07152    1253.5908    2097.7007    2.2011547   0.13317688  0.093888245 
   28700   -954.75468    36.082204   -918.67247    1292.3337     2651.169    2.2064616   0.31118104  0.077118588 
   28800   -953.01551    40.822064   -912.19345    1462.0983   -854.93886     2.193211    0.1797334  0.094238109 
   28900   -955.73348    39.074093   -916.65939    1399.4923   -3304.5599    2.1940278   0.45088319  0.097896465 
   29000   -956.77378    38.857912   -917.91586    1391.7495   -3210.8073    2.1944466   0.08532755  0.091976225 
   29100    -952.2626    42.268748   -909.99385    1513.9133    -796.6193     2.185374   0.28181562  0.089548411 
   29200   -954.60654    39.053836    -915.5527    1398.7668    4125.9806    2.2080083   0.44976396  0.093060414 
   29300    -957.8059    40.772313   -917.03358    1460.3164    3445.3774    2.2096678  0.028881738  0.082726453 
   29400    -950.7416    41.409394    -909.3322    1483.1343   -3442.8891    2.1789203   0.32667191   0.10329714 
   29500   -955.21929    39.704255   -915.51504    1422.0624   -5141.4158    2.1851782   0.07756363  0.098767813 
   29600   -953.84609    37.022005   -916.82408     1325.994    452.31147    2.1966083  0.033425696  0.077538235 
   29700   -953.49641    42.345069   -911.15134    1516.6468    3964.8601    2.2051674   0.19968712  0.086780264 
   29800   -958.19155    43.137354    -915.0542    1545.0236    2329.3216     2.208139   0.14024193  0.081856938 
   29900   -955.75811    37.655401   -918.10271    1348.6799   -5260.3816    2.1883428   0.14866394   0.10088911 
   30000   -951.35065    37.497016   -913.85363    1343.0071   -6948.3485    2.1764866  0.042295332   0.10451965 
   30100   -951.81853    38.973607   -912.84492    1395.8933     738.2787    2.1966676   0.48384893   0.10604626 
   30200   -957.14775    37.266931   -919.88082    1334.7663    11726.146    2.2332955   0.26889429  0.091340174 
   30300   -954.84569    40.881441   -913.96425    1464.2249    4292.3484    2.2065165   0.27011816  0.098521696 
   30400   -954.29676    39.877627   -914.41914     1428.272   -10187.213    2.1691826  0.043974394    0.1116606 
   30500   -958.35665    37.143307   -921.21334    1330.3386   -11125.553    2.1779305   0.14404768  0.090801961 
   30600   -957.08692    41.014549   -916.07237    1468.9924    1964.4566     2.205885   0.20829179  0.087246866 
   30700   -955.65024    42.744692   -912.90554    1530.9599    9297.9413    2.2187923   0.13027459  0.099506179 
   30800   -955.22665    36.392932   -918.83372    1303.4629     2687.548    2.2078698   0.22137892  0.095218279 
   30900   -955.16558    38.514678    -916.6509    1379.4561    -3621.962    2.1883322   0.17373052  0.092593456 
   31000   -952.51334    40.034742    -912.4786    1433.8993    -3035.389    2.1830727   0.40614618    0.1025123 
   31100   -956.85693    39.893182   -916.96375    1428.8291   -1322.6199    2.1995494   0.20908763   0.10324638 
   31200   -957.05061    39.710873   -917.33973    1422.2995    3557.0625    2.2092688   0.10633634   0.09751484 
   31300   -950.30176    40.228331   -910.07343    1440.8329   -1887.0197    2.1868896   0.10899492   0.12535367 
   31400   -951.37107    35.137991   -916.23308    1258.5154   -562.85921    2.1920812  0.064278107   0.10522877 
   31500   -954.80962    37.987542   -916.82208     1360.576   -1000.2748    2.1966128   0.14547283  0.093877555 
   31600   -949.26817    40.057131   -909.21104    1434.7012     3936.804    2.1917685   0.13204047   0.11325827 
   31700   -954.66977    38.392702   -916.27707    1375.0874    6070.7144    2.2118289   0.16325849   0.10534265 
   31800   -955.51249     38.80429    -916.7082    1389.8289    1511.7367    2.2005315    0.1021705  0.093095939 
   31900   -952.22352    41.130387   -911.09313    1473.1413   -8173.9654    2.1722997   0.13586852   0.10774493 
   32000   -956.42737    39.977646   -916.44972    1431.8543   -6431.1274    2.1829314   0.15542753    0.1008719 
   32100   -955.18637    37.678782   -917.50759    1349.5173    4779.1523    2.2107674   0.19830025   0.10314598 
   32200   -952.03207     39.89101   -912.14106    1428.7513    13086.987     2.225204  0.098743774   0.11334083 
   32300   -955.63504    39.272933   -916.36211     1406.614    1508.2613    2.2027341  0.030902156  0.099892809 
   32400   -956.48834    36.361704   -920.12664    1302.3444   -13140.075    2.1722839    0.2437259  0.093986556 
   32500   -954.66628    40.402941   -914.26333    1447.0868   -8998.1671    2.1742812   0.13452016   0.10405035 
   32600   -953.33974    38.540373   -914.79937    1380.3764    6745.7231    2.2120641    0.3395679   0.10758592 
   32700   -959.32827    38.881315   -920.44696    1392.5877    9275.8023    2.2299708  0.052999335  0.091862463 
   32800   -951.72239    39.092643   -912.62975    1400.1567    121.89986    2.1896999   0.15716554   0.10279572 
   32900   -953.67644    38.963714   -914.71272    1395.5389   -4842.9545    2.1816856 0.0073143834  0.096356997 
   33000   -956.94369    38.204724   -918.73897    1368.3547   -2785.8163    2.1969154   0.39861007  0.094805729 
   33100   -955.54719    42.685181   -912.86201    1528.8284    2005.1452    2.2019749   0.25515909  0.093108143 
   33200   -953.60583     41.12605   -912.47978     1472.986    3570.4146    2.2017289   0.23954092    0.0984394 
   33300   -955.49965    38.087576   -917.41208    1364.1588   -1704.5277    2.1984502  0.081129869  0.092165385 
   33400   -954.00987    39.416342   -914.59353    1411.7504   -2767.7163    2.1878156  0.095595173  0.088732801 
   33500   -949.79991    39.274003   -910.52591    1406.6524   -5.1105977    2.1835778     0.294584  0.096240319 
   33600   -955.68211    38.485393   -917.19672    1378.4072    2053.8511    2.2047553   0.27303496  0.095278633 
   33700   -956.30016    41.196361    -915.1038    1475.5043    3718.3466    2.2080965   0.14226975  0.093227181 
   33800   -949.34742    39.904358   -909.44306    1429.2294   -343.99525    2.1846599   0.19269479   0.10458568 
   33900   -954.25036    36.548972   -917.70139    1309.0516    -4485.995    2.1859826    0.2794815  0.099429139 
   34000   -953.66197    37.523854   -916.13811    1343.9684   -4932.8915    2.1813028  0.015481273  0.090295035 
   34100   -951.99248    40.778019   -911.21446    1460.5207    6160.3766    2.2015408   0.13626508   0.10286507 
   34200   -955.87607    37.170856   -918.70521    1331.3253    12834.282    2.2332987   0.12069639  0.096002978 
   34300   -957.18164    39.936956   -917.24469    1430.3969   -3380.9758    2.1957329    0.1388886  0.097212105 
   34400    -953.7442    39.885063   -913.85913    1428.5383   -13075.173     2.162124   0.15482202  0.097624019 
   34500   -954.67903    37.476494   -917.20253    1342.2721   -6761.3586    2.1806269   0.20059879  0.088781071 
   34600   -959.92896    40.414676   -919.51429    1447.5071    6345.6766    2.2221744   0.20588953  0.087407437 
   34700   -953.95735    41.536718   -912.42063    1487.6946    8260.1293    2.2129197  0.068807622   0.10478169 
   34800   -956.96727    40.732171    -916.2351    1458.8787   -2603.2328    2.1934083   0.19547578  0.098572002 
   34900   -955.76041    35.494776   -920.26564    1271.2942   -6989.5563    2.1833177   0.11170372  0.097343226 
   35000   -954.35043     42.15847   -912.19196    1509.9635   -6622.6121    2.1765719   0.22204054   0.10331034 
   35100   -955.85861    41.177883   -914.68072    1474.8424    3959.6247    2.2064001  0.073732202  0.095802833 
   35200   -956.06736     38.38327   -917.68409    1374.7495    7580.5601    2.2192486   0.12489022   0.10093608 
   35300   -951.37282     41.56747   -909.80534     1488.796   -929.47882    2.1854434   0.34116635  0.095096659 
   35400   -953.46299    39.415081   -914.04791    1411.7053   -5434.7159     2.184282   0.13189944   0.10376361 
   35500   -952.68972    35.391259   -917.29846    1267.5866   -1600.6635     2.193127   0.16048819   0.10583136 
   35600   -953.27968    41.435151   -911.84453    1484.0568    2634.9434    2.1990392   0.20160901  0.096980857 
   35700   -954.32591    42.366435   -911.95948    1517.4121    2694.3597    2.2006397   0.66432296  0.094060786 
   35800   -955.48448    38.108229   -917.37626    1364.8985    76.731354    2.1961239   0.36450186   0.10095029 
   35900   -954.07862    39.886804   -914.19181    1428.6007   -3824.2413    2.1832865  0.095477984   0.09803941 
   36000   -950.65924    40.551336    -910.1079    1452.4018   -556.97418    2.1829989   0.21307804  0.098179505 
   36100   -955.72345     36.98191   -918.74154    1324.5579    8154.8644    2.2219025   0.15927894  0.094211335 
   36200   -953.63088    38.516421   -915.11446    1379.5185    8373.2562    2.2165119   0.12886408  0.094156404 
   36300   -950.74703    37.201146   -913.54589    1332.4102   -8628.8841    2.1688992   0.16609374   0.10902786 
   36400   -956.67081    36.914777   -919.75603    1322.1534   -20080.253    2.1543235  0.023040972  0.098221754 
   36500   -957.23387    39.055169    -918.1787    1398.8145   -2712.4693    2.1971996  0.060910443  0.096785824 
   36600   -953.03981    40.512284   -912.52752    1451.0031     13819.59    2.2278971   0.15162334  0.092221252 
   36700   -954.78538     38.16572   -916.61966    1366.9577    9899.4575    2.2185262  0.034061579   0.09145239 
   36800   -956.13432    34.805017    -921.3293    1246.5895   -2953.8174    2.1922165   0.16524894  0.084234221 
   36900   -952.83136    39.642733   -913.18863    1419.8589     -10681.5    2.1657753   0.15718725   0.10373962 
   37000    -954.8322    39.528505    -915.3037    1415.7677   -2031.4883    2.1945696  0.041946168   0.10429005 
   37100   -953.98196    35.635844   -918.34612    1276.3467    11610.333    2.2236342  0.055906159  0.095462263 
   37200   -948.07686    37.886757    -910.1901    1356.9663    6421.0913    2.2004912   0.22506652   0.10695262 
   37300   -954.37934    40.718032    -913.6613    1458.3722   -3965.9435    2.1871378  0.089529104  0.088141778 
   37400    -953.4922    35.925784   -917.56641    1286.7313   -4012.3932    2.1833531   0.26481371  0.095241453 
   37500    -951.2934    38.627801    -912.6656    1383.5077    1407.4774    2.1927571  0.053391679   0.10363107 
   37600   -952.19179    41.147368   -911.04443    1473.7495    6241.1646    2.2064937  0.023151838  0.099987966 
   37700   -954.64479    37.831591    -916.8132    1354.9904     3669.772    2.2076671   0.19463077  0.093820701 
   37800   -952.69126    37.909266     -914.782    1357.7724   -4483.6048    2.1824018  0.053135977  0.099839307 
   37900   -952.51476    42.930333   -909.58443    1537.6089   -10604.283    2.1637946   0.13319571  0.099191029 
   38000   -957.74473    39.399455   -918.34527    1411.1456    2564.4317    2.2088179   0.32970721  0.094359564 
   38100   -958.32532    42.991796   -915.33352    1539.8102    10060.292    2.2262703  0.047145937  0.093507406 
   38200   -952.46481     40.30747   -912.15734    1443.6674    4721.3107    2.2019694   0.21077761  0.095006642 
   38300   -954.31898    38.804425   -915.51456    1389.8338   -14784.433    2.1600229   0.22812247  0.097659548 
   38400   -957.08408    38.084927   -918.99916     1364.064   -14446.034    2.1661109  0.041254615  0.095012197 
   38500   -956.25712    42.416113   -913.84101    1519.1913    6021.1235    2.2110465  0.099457084  0.089731285 
   38600   -955.98976    41.068901   -914.92086    1470.9391    8684.4541    2.2224788  0.091458093    0.1002517 
   38700   -959.82524    37.812689   -922.01255    1354.3134    1174.3078    2.2104718  0.018901195  0.081177949 
   38800   -953.15905    38.552223   -914.60683    1380.8008   -6900.5901    2.1768684   0.18162241  0.091333315 
   38900   -955.42868    40.834053   -914.59462    1462.5277   -5073.5856    2.1849379   0.11359755  0.096983511 
   39000   -954.54879    35.293646   -919.25515    1264.0904    4579.0237    2.2106921  0.025816539  0.086377479 
   39100    -955.5559    37.490629   -918.06527    1342.7784    7340.7754    2.2188754  0.052318216  0.081543514 
   39200   -953.25029    40.250883   -912.99941    1441.6406    691.54032    2.1916204  0.099364316    0.0906997 
   39300   -955.59775    39.164878   -916.43287    1402.7439   -8649.8496     2.175579   0.12990336  0.089387456 
   39400   -953.70981      37.0133   -916.69651    1325.6822   -3673.0817     2.187414  0.092103735   0.10490946 
   39500   -950.03017    41.066456   -908.96371    1470.8515    3597.8314    2.1955817   0.24547473  0.094201135 
   39600   -952.00577    37.470368    -914.5354    1342.0527    9664.4157    2.2161903   0.23292592  0.095798971 
   39700   -954.53674    37.676638    -916.8601    1349.4405     13.20923    2.2015016  0.071657395  0.095875922 
   39800   -951.20128    41.112652   -910.08863    1472.5061   -8908.8127    2.1701905   0.16166375   0.10970102 
   39900   -952.13752    39.357234   -912.78029    1409.6334   -3890.9681    2.1811082   0.16333574   0.10243558 
   40000   -955.49616    39.084533   -916.41162    1399.8662    2394.8873    2.2028425   0.14728812  0.082745215 
   40100   -952.72675     38.95528   -913.77147    1395.2368    8194.2052    2.2144819   0.10898565   0.10078335 
   40200   -953.91774    46.244945   -907.67279    1656.3262   -515.29285    2.1893319  0.080470963   0.08677707 
   40300   -955.44511    39.530222   -915.91489    1415.8292   -7507.1451    2.1773159  0.079175747  0.084156281 
   40400   -953.61062    37.613165   -915.99746    1347.1672   -10439.758    2.1693611   0.21849565   0.10510315 
   40500   -951.52588    37.967207   -913.55867    1359.8477    5519.5283    2.2039473  0.040965212   0.10279224 
   40600   -954.91232    36.048747   -918.86357    1291.1354     17499.86    2.2445488   0.30730099  0.097043349 
   40700   -958.01491    38.150702    -919.8642    1366.4198    4609.8912    2.2142197   0.22565524   0.10137341 
   40800   -953.58648    38.104689   -915.48179    1364.7718   -10933.729    2.1698608   0.19353882   0.10819165 
   40900   -954.87508    40.560922   -914.31416    1452.7451   -8739.8846    2.1757143    0.1565679  0.099948142 
   41000   -958.53805    37.200665   -921.33739    1332.3929    2879.2649    2.2145457   0.11265372  0.082421977 
   41100   -955.83536    38.552441   -917.28292    1380.8086    8069.3256    2.2150781  0.066935512  0.090365044 
   41200   -955.86119    41.798997    -914.0622    1497.0885   -1051.5442    2.1956049   0.21182304  0.099558801 
   41300   -957.61565    40.521846   -917.09381    1451.3456   -4978.7904    2.1876755  0.097036599  0.085246452 
   41400   -959.04209    37.378429   -921.66366    1338.7598   -3040.7218    2.1995269   0.11457959  0.089311065 
   41500   -951.30067    37.913156   -913.38751    1357.9118    2119.3737    2.1928305  0.056159481  0.091071764 
   41600   -952.12355    37.344573   -914.77897    1337.5472     6368.011    2.2047573   0.39016038   0.10666987 
   41700    -954.7961    38.665344   -916.13075    1384.8524    2141.4506    2.2003667    0.2466903    0.1027853 
   41800   -947.47811    40.201068   -907.27705    1439.8565   -5812.1252    2.1661341   0.36704044   0.11118227 
   41900   -957.12319    42.443307   -914.67989    1520.1653   -4579.4732    2.1898006   0.21576147   0.10738693 
   42000   -953.84781    37.961856   -915.88595     1359.656    6845.1162    2.2118415   0.20645552   0.10395451 
   42100    -954.1692    40.634918   -913.53428    1455.3954    7046.1007    2.2146605   0.12632673   0.10219106 
   42200   -952.34642    44.380283   -907.96614    1589.5408   -5210.2743    2.1716604   0.21238424   0.10171753 
   42300   -956.26154    39.876244    -916.3853    1428.2225   -14997.033    2.1619426  0.058894059  0.096935604 
   42400   -951.50766     35.55847   -915.94919    1273.5754    816.46688    2.1942029   0.21308426   0.10853588 
   42500   -953.60117    41.586812   -912.01435    1489.4888    14960.198    2.2293555   0.21868717   0.10033032 
   42600    -953.7849    41.638657   -912.14624    1491.3457    5217.7141    2.2096672   0.15563009   0.11400263 
   42700   -954.75563     35.64401   -919.11162    1276.6392   -5716.0754    2.1888126   0.28812417   0.10683259 
   42800   -953.18006    36.945295   -916.23477    1323.2465   -5727.7003     2.182209   0.44516527   0.10425149 
   42900   -953.95389    40.508443   -913.44545    1450.8655   -141.55633    2.1965259  0.073177623   0.10507874 
   43000   -957.47958    37.763053   -919.71653    1352.5356    4077.5865    2.2163645  0.088510468   0.11020743 
   43100   -955.56954    36.657154   -918.91239    1312.9263      2343.28    2.2049884  0.015831443     0.105315 
   43200   -954.40031    39.896257   -914.50405    1428.9392   -4355.0793    2.1874766    0.2377173    0.1088664 
   43300   -954.97401    39.694707    -915.2793    1421.7205   -3844.9236    2.1884819   0.15002081  0.091513242 
   43400   -958.98633      36.8933   -922.09303    1321.3842    3021.2008    2.2133024  0.098038676  0.092676454 
   43500   -955.06751     40.45314   -914.61437    1448.8848    948.80608    2.2015634   0.26359459   0.10689925 
   43600   -952.27798    37.812934   -914.46504    1354.3222    1743.2427     2.196034   0.12760532   0.10543099 
   43700   -956.17164    36.861193   -919.31045    1320.2343   -3889.3467    2.1931503  0.086372097   0.10484267 
   43800   -957.19569    37.828664   -919.36702    1354.8855   -3718.6882    2.1948734   0.29859013   0.10406095 
   43900   -953.81292    40.408228   -913.40469    1447.2762    3272.8019    2.2012234   0.24296686   0.11272017 
   44000   -955.00431    39.695836   -915.30847    1421.7609    5738.9866    2.2118536  0.090382047   0.10397389 
   44100   -956.26726    36.765415   -919.50184    1316.8038    867.85325     2.201837    0.1605426   0.10028912 
   44200   -952.42457     38.88508   -913.53949    1392.7226   -5753.1593    2.1762471   0.10060547   0.10005386 
   44300   -950.22982    37.427536   -912.80229    1340.5186    1039.0368    2.1906026   0.12454921   0.10695848 
   44400   -951.66006    36.293515   -915.36654    1299.9021    7120.7531    2.2126731  0.020447398     0.109366 
   44500   -956.28797    38.834234   -917.45374    1390.9014    5203.0125    2.2127523   0.16019944  0.093642654 
   44600   -950.18594    41.646202   -908.53974    1491.6159    -3918.427    2.1784387   0.27796834   0.10839223 
   44700   -951.70967    39.199266    -912.5104    1403.9755   -2582.0494     2.187706   0.14333354   0.11496444 
   44800   -958.63534    42.524504   -916.11084    1523.0735    -850.2925    2.2018344   0.13298486   0.10150025 
   44900     -954.978     38.76188   -916.21612      1388.31    3852.4697    2.2097496   0.13009479   0.12334423 
   45000   -951.26054     43.27878   -907.98176    1550.0889    -555.7953    2.1852131   0.19895405   0.12066904 
   45100   -953.12926    38.085273   -915.04399    1364.0764   -1237.3063    2.1935053   0.24845299   0.10973457 
   45200   -954.40921      38.2308   -916.17841    1369.2886    455.36169    2.2016311   0.17511987   0.11016772 
   45300   -952.27271    41.393299   -910.87941    1482.5578    5664.7752    2.2034577   0.10645464   0.10384923 
   45400    -952.7726    41.211411   -911.56119    1476.0433    72.488491    2.1964411   0.14295524   0.12220984 
   45500    -952.7464    35.954865   -916.79154    1287.7729   -4163.7278    2.1858438  0.061670114   0.10041911 
   45600   -954.67907     39.67473   -915.00434    1421.0049   -5054.6758    2.1867001   0.15879511  0.094543455 
   45700   -951.68192    42.128491   -909.55343    1508.8898    4069.2191    2.1987261   0.16463103   0.10679477 
   45800   -955.72291    40.661931   -915.06098    1456.3629    6480.1805    2.2148104   0.24594898  0.099580303 
   45900   -958.29962    41.356896   -916.94272     1481.254    -5719.478    2.1902123   0.12871982  0.092551729 
   46000   -952.55698    37.395645   -915.16133    1339.3764   -6560.8646    2.1739477   0.14540863  0.095372066 
   46100   -953.96896    42.020289   -911.94867    1505.0144   -3320.9867    2.1871321   0.41122202    0.0959779 
   46200   -958.92143    39.953508   -918.96793    1430.9898    7508.9916    2.2246123  0.041932995   0.10186501 
   46300   -956.50372    38.041888   -918.46183    1362.5225    4034.3496    2.2112624  0.074811904  0.099472093 
   46400   -952.08453    37.001608   -915.08292    1325.2634   -4452.3724    2.1810481  0.072977907   0.10306761 
   46500   -953.54916    39.508452   -914.04071    1415.0495    -8121.356    2.1742888  0.023860301   0.11034812 
   46600   -957.36367    35.234293   -922.12938    1261.9646     4451.217    2.2133338   0.10893243   0.09283354 
   46700   -952.91936    36.733049   -916.18631    1315.6446    11832.273    2.2209194   0.93681224   0.11695541 
   46800   -954.12272    41.353233   -912.76949    1481.1228    5720.2559     2.206792   0.99219218   0.10046913 
   46900   -954.21898    39.156072   -915.06291    1402.4285   -10705.018    2.1678145    1.2740458   0.11075145 
   47000   -956.77683    35.302335    -921.4745    1264.4016   -16663.052    2.1629779   0.61865679   0.10742831 
   47100   -955.64752    40.418871   -915.22865    1447.6574   -1364.4583    2.1950469  0.078057228  0.097781891 
   47200   -955.32184     42.01627   -913.30557    1504.8704    14789.499    2.2339415   0.14852455   0.10540949 
   47300   -959.98498    40.879202   -919.10577    1464.1448     4696.554    2.2189239  0.062040378  0.095575038 
   47400    -956.7225    41.766116   -914.95639    1495.9108   -6497.5057    2.1837812   0.35862463  0.094259158 
   47500   -954.85716    42.125922   -912.73124    1508.7978   -6547.7282    2.1784761   0.14427989   0.10072977 
   47600   -953.58574    36.906826   -916.67891    1321.8687   -1183.3483    2.1947254   0.23511531   0.10081985 
   47700     -955.502    38.585465   -916.91654    1381.9914    3857.9456    2.2082375   0.37395037  0.096858324 
   47800   -953.25432    43.814791   -909.43953    1569.2869    314.95202    2.1913757   0.27107409   0.10104118 
   47900   -957.51228    41.687169   -915.82512    1493.0832   -2682.2173    2.1921218  0.070899564  0.086038558 
   48000   -953.39627    36.656875   -916.73939    1312.9163   -2162.4311     2.190808   0.19195034   0.10362917 
   48100   -952.56048      43.4543   -909.10618    1556.3754   -1664.5682    2.1858175    0.3256743   0.11484362 
   48200   -958.13723    42.767237   -915.36999    1531.7673    4026.7892    2.2100207   0.40224506  0.089332257 
   48300   -956.39769    39.707672   -916.69002    1422.1848     556.4259    2.2002852   0.20434581  0.092662296 
   48400   -954.32046    41.944314   -912.37615    1502.2932   -7031.9238    2.1754006   0.26298548  0.093313214 
   48500   -955.02617    42.892595   -912.13358    1536.2572   -7017.4949    2.1749995   0.13627097  0.092293214 
   48600   -958.23265    40.020628   -918.21203    1433.3937    3595.3089     2.214145  0.070621935  0.089025275 
   48700   -955.04019    41.394181   -913.64601    1482.5894    10028.168    2.2221177   0.13033316  0.093188969 
   48800   -950.47236    36.654215   -913.81815    1312.8211    2386.6636    2.1937732  0.079917488   0.10659502 
   48900   -958.64736    37.500991   -921.14637    1343.1495   -11337.961    2.1782922   0.44344857  0.094228489 
   49000   -955.22284    39.225308   -915.99753    1404.9083   -7881.1577    2.1765562   0.16191521   0.10103925 
   49100   -952.11794    39.044755   -913.07318    1398.4415    6627.2199    2.2049151   0.17689938  0.090029329 
   49200   -957.05619    37.381132   -919.67506    1338.8566    10632.201    2.2265549  0.077128432  0.080456429 
   49300   -955.49892    38.200017   -917.29891    1368.1861    820.89943    2.1983671   0.13956316  0.088428832 
   49400   -950.23197    36.408493   -913.82347    1304.0202   -4009.8266     2.177935  0.086449637  0.095172354 
   49500    -956.2006    39.215439   -916.98516    1404.5548   -4421.5312     2.188672   0.20195983  0.083135751 
   49600    -955.8504    35.264604    -920.5858    1263.0502    3451.2426     2.209401    0.1014246   0.08303779 
   49700   -949.39179    37.172897    -912.2189    1331.3983    2709.6161    2.1921091   0.10358993  0.099353634 
   49800    -953.1927    38.172677   -915.02002    1367.2069   -706.30987    2.1956744   0.23512617   0.10286949 
   49900   -953.36104    35.158003   -918.20303    1259.2322    1187.0072    2.1990094   0.27676938   0.10402161 
   50000   -951.84402    39.879232   -911.96479    1428.3295    687.37528     2.193414   0.13802474   0.10344713 
   50100   -952.04616    39.831038   -912.21512    1426.6033    1969.6118    2.1971309    0.1292615  0.092992932 
   50200   -953.78602    37.212856   -916.57317    1332.8296    1024.0144    2.1982251   0.29438845  0.097311374 
   50300   -954.44121    38.867056   -915.57415     1392.077   -3082.6703     2.192086  0.087124479  0.094490992 
   50400   -951.29411    42.489716    -908.8044    1521.8275   -2985.0282    2.1791004   0.11023285   0.10142247 
   50500   -954.28186    37.875659    -916.4062    1356.5687    3924.0427    2.2086155  0.092604195   0.10162082 
   50600   -954.41326    38.754598   -915.65867    1388.0491    6979.3847    2.2152616  0.015613545  0.094650314 
   50700   -952.71132    42.995024    -909.7163    1539.9258   -1931.2479    2.1894232   0.12368073  0.097906644 
   50800   -955.07486     39.94029   -915.13456    1430.5164   -9882.3126    2.1747545   0.28181036   0.10544679 
   50900   -953.86191     36.92169   -916.94022     1322.401   -8283.6088     2.179688    0.1260933   0.11062305 
   51000   -949.51976    36.885733   -912.63402    1321.1132    9406.5986     2.210191   0.17727911   0.10550636 
   51100   -953.04576    38.907722   -914.13804    1393.5335    13409.238    2.2279282  0.072401927   0.11424971 
   51200   -952.96575    33.530184   -919.43557    1200.9296    4282.1207    2.2081519   0.18115911   0.10289785 
   51300   -954.23484    38.844438    -915.3904    1391.2669   -9336.8206     2.176224  0.055747295   0.10412903 
   51400    -954.2537    40.785872   -913.46783     1460.802   -6161.9172     2.181723  0.065288203   0.10502682 
   51500   -958.74356    37.532216   -921.21134    1344.2679    5070.3579    2.2211212  0.040078615  0.095103685 
   51600   -956.64745    40.267762   -916.37969    1442.2452     3994.742    2.2165148  0.090772298   0.10506738 
   51700   -955.68786    41.785081   -913.90278    1496.5901    -811.5421     2.196626   0.25740055   0.11119144 
   51800   -955.61708     37.28067   -918.33641    1335.2584   -5272.4191    2.1896721   0.17434536   0.10293715 
   51900   -958.49314    38.877284   -919.61585    1392.4433    -2522.329    2.1991827   0.23114452  0.093694993 
   52000   -954.09312     41.14693   -912.94619    1473.7338    1341.7857    2.1984538   0.31681092   0.10260484 
   52100   -956.39204    40.560666   -915.83137     1452.736    1775.4624    2.2057233   0.10737051  0.099423581 
   52200   -955.01196    35.633676   -919.37829    1276.2691    670.69871    2.2019372   0.22413847   0.10263289 
   52300   -954.32681    43.295343   -911.03146    1550.6822   -4503.4435    2.1830422   0.20193165   0.10111535 
   52400   -956.25317    42.842741   -913.41043    1534.4716   -697.78799    2.1958587   0.14706438  0.099241342 
   52500   -955.10718    38.271738   -916.83544    1370.7549    1882.1371    2.2018855  0.030543834  0.088549433 
   52600   -952.52702    37.835177   -914.69184    1355.1188    2012.0296    2.1970352   0.19887928  0.099525908 
   52700   -952.38327    42.321749   -910.06152    1515.8116   -4619.9902    2.1784083  0.096145953   0.10949241 
   52800   -956.80435    40.271069   -916.53328    1442.3637   -3160.8461    2.1947596   0.34884599   0.10187658 
   52900   -953.11546     37.64904   -915.46642    1348.4521    2441.3018    2.2015644  0.077753647  0.097272669 
   53000   -952.82259    44.368348   -908.45424    1589.1133   -517.20106    2.1877316   0.20537557   0.10173682 
   53100   -955.83121    39.347552   -916.48366    1409.2866     2541.757    2.2036816  0.076447315  0.092273608 
   53200   -958.26631     41.92518   -916.34113    1501.6079   -3127.8877    2.1941126   0.40805662    0.1014535 
   53300   -953.12342     41.54792    -911.5755    1488.0958    -1100.519    2.1891772    0.1801561   0.11449924 
   53400   -956.13245    40.628237   -915.50421    1455.1561   -1198.1196     2.195613   0.18034204   0.10228442 
   53500   -955.97805    37.889962   -918.08809     1357.081    1276.7154    2.2017589   0.20073482  0.095524368 
   53600   -953.45211    39.455108     -913.997    1413.1389    2639.6793    2.2005836   0.35971374  0.098886508 
   53700   -953.57345    39.773241   -913.80021    1424.5332    773.89933    2.1926789   0.16985033    0.1051233 
   53800   -957.08751    35.979087   -921.10843    1288.6404   -194.30357    2.2015689   0.12508182  0.092760148 
   53900   -954.55697    39.272495   -915.28448    1406.5984    -1464.654    2.1920459   0.34862607   0.10982229 
   54000   -953.35548    39.707543   -913.64794    1422.1802    2056.0607    2.2013943   0.10593816   0.10629106 
   54100     -958.886    38.182581   -920.70342    1367.5616    3897.4343    2.2192352   0.11273973   0.08918889 
   54200   -953.98519    38.164352   -915.82084    1366.9087   -1156.6546    2.1941313   0.41733315   0.10063753 
   54300    -953.8983    39.972064   -913.92624    1431.6544   -6103.6895    2.1806283  0.012316541  0.088601435 
   54400   -956.77731    39.173153   -917.60416    1403.0403   -3195.3662    2.1949107   0.23247259  0.090505026 
   54500   -958.06306    38.237342   -919.82572    1369.5229    5142.4321    2.2181605  0.033754119  0.098727471 
   54600   -955.17492    43.261409   -911.91351    1549.4668    2140.5531    2.1991823   0.27424025  0.096538561 
   54700   -952.41245    36.957758   -915.45469    1323.6929   -2313.0258    2.1876089   0.14847687  0.097421787 
   54800    -958.2431    39.980978   -918.26212    1431.9737   -6680.5964    2.1885752   0.10027804  0.096059208 
   54900   -954.86878    43.406519   -911.46226    1554.6641     1440.184    2.1958139   0.25084187  0.089385439 
   55000   -953.31468    41.311609   -912.00307     1479.632    8881.3931     2.214456   0.48155834  0.094481365 
   55100   -955.30989    38.914316   -916.39558    1393.7697    2064.7828    2.2031313   0.28884223  0.092777605 
   55200   -953.09019    37.811217   -915.27897    1354.2607   -6565.8851    2.1778028   0.11955382  0.089017159 
   55300   -950.79642    42.179146   -908.61727     1510.704   -7776.7088    2.1645069    0.1806863  0.089431987 
   55400   -958.04904    41.407923   -916.64112    1483.0816    2636.3436    2.2115978  0.042210402  0.087622493 
   55500   -953.82167     38.40713   -915.41454    1375.6041    10463.096    2.2236541  0.093947391  0.096437767 
   55600   -952.43259    42.000647   -910.43194    1504.3109    540.03353    2.1948667  0.088927421   0.10357259 
   55700   -957.20996    42.037787   -915.17218    1505.6411   -10160.718    2.1738319   0.28067671  0.096964774 
   55800    -954.1206    36.889009   -917.23159    1321.2305   -5736.0719    2.1818441   0.29172481  0.090670265 
   55900   -952.92823    40.081537    -912.8467    1435.5753    3837.4801    2.2026973   0.22576828   0.10481542 
   56000   -955.50788    39.844193   -915.66369    1427.0745     4656.747    2.2107873   0.17698164   0.09457691 
   56100   -958.84657    39.085641   -919.76093    1399.9059   -1224.9603    2.2041109  0.084149546  0.087071135 
   56200   -955.24485    40.886084   -914.35876    1464.3913   -2437.8404    2.1888203   0.23845975  0.081659011 
   56300   -955.63093    41.294075   -914.33685     1479.004   -3569.2654    2.1886177   0.11198487  0.096192759 
   56400   -958.00243     36.45585   -921.54658    1305.7164    1834.3818    2.2113828  0.085975744    0.1002413 
   56500   -954.05743    39.467319   -914.59011    1413.5762    1603.3238    2.1988225   0.23128576  0.096832646 
   56600   -954.50697    40.315443   -914.19153     1443.953   -484.28576    2.1954613   0.20375388   0.10626082 
   56700   -956.09473    36.272149   -919.82258    1299.1368   -592.93693    2.1987832   0.14906143  0.096135705 
   56800   -953.32725    36.863648    -916.4636    1320.3222     1054.246    2.1966464   0.20497991   0.10869469 
   56900    -957.1998    44.062043   -913.13776    1578.1426    1656.4361    2.2022326   0.22000459   0.10397238 
   57000   -956.56276    39.605459    -916.9573    1418.5239    588.40127    2.2022885    0.2260659   0.09224202 
   57100   -955.31065    36.597969   -918.71268    1310.8065   -3555.9846    2.1935627   0.23803082   0.10501525 
   57200   -952.40336    42.031388   -910.37197    1505.4119   -8680.1122    2.1685355  0.020839829  0.099372407 
   57300   -956.19108    41.013319   -915.17776    1468.9484     758.4563    2.2018357   0.06047558  0.099747723 
   57400   -954.62892    38.465654   -916.16326    1377.7002    11876.518    2.2282815     0.189097  0.092631426 
   57500   -954.22668    45.057497   -909.16918    1613.7961    1688.2548    2.2004251   0.19348149  0.095604375 
   57600   -952.64597    39.384626   -913.26134    1410.6145   -7251.5113    2.1730633   0.33824784   0.10713897 
   57700   -954.48739    37.195467   -917.29193    1332.2067   -9479.0767    2.1744142  0.041557722   0.10621321 
   57800   -953.97001    41.058159   -912.91185    1470.5544    1379.3789    2.1990764 0.0057806445   0.10432018 
   57900   -950.91126    41.549614   -909.36164    1488.1565    8912.0358    2.2118433   0.14157729   0.11820344 
   58000   -956.35883    39.400702   -916.95812    1411.1902    2484.1678    2.2103315   0.17356334  0.095954203 
   58100   -954.46302    39.064678   -915.39834    1399.1551   -4687.7309    2.1839234   0.45064037   0.10428163 
   58200   -953.01841    42.037278   -910.98113    1505.6229   -8342.4357    2.1722006   0.25059385   0.10909899 
   58300   -954.35649     35.42334   -918.93314    1268.7356    4334.9826    2.2057028   0.10503253  0.093491389 
   58400   -954.41181    37.193947   -917.21787    1332.1523    3556.3066    2.2082359  0.078247745  0.094904871 
   58500   -952.82903    39.087677   -913.74135    1399.9788    1135.4423    2.1950325   0.27675969  0.099471486 
   58600   -955.54873    40.499243   -915.04949     1450.536    -3660.035    2.1889299   0.15159489   0.10204023 
   58700   -958.56027    38.043582   -920.51669    1362.5831   -1695.1716    2.2031126   0.39691364  0.095995064 
   58800   -953.18196    38.920461    -914.2615    1393.9898    2615.1188    2.2021403   0.28142483   0.10751599 
   58900   -953.54662    38.932236   -914.61438    1394.4115    1432.1489    2.1988758   0.12507368   0.10922827 
   59000   -958.43776    36.800617   -921.63714    1318.0647   -1836.2599    2.2043583   0.24723995   0.10516719 
   59100   -952.82732    38.016032   -914.81129    1361.5964   -1699.8402     2.191632   0.20387876   0.11782817 
   59200   -954.87679    40.757156   -914.11964    1459.7735    259.68937    2.1980296   0.49007259   0.11119224 
   59300   -957.11352    37.806274   -919.30724    1354.0836    2445.9986    2.2087041   0.38833811  0.096804702 
   59400   -954.06671    38.631575   -915.43513    1383.6429    1207.9762    2.2049481   0.13944958  0.098826071 
   59500   -953.04775    40.220358   -912.82739    1440.5474    185.70781     2.197539   0.19396225   0.11977298 
   59600    -958.9229     41.63473   -917.28817     1491.205   -4118.6346    2.1967158  0.071794115  0.096475583 
   59700   -955.26206    38.864975   -916.39709    1392.0025    -1902.323    2.1974843  0.055762517   0.10715151 
   59800   -948.65047    38.358212   -910.29226     1373.852    1467.4859    2.1907544  0.038595093   0.11058069 
   59900   -952.57652    36.312411    -916.2641    1300.5789    3494.3444    2.2052916    0.4808998   0.10400336 
   60000   -955.68226     39.21801   -916.46425    1404.6469    798.86789    2.2040392   0.43520713   0.11330827 
   60100   -951.49637    42.319949   -909.17642    1515.7471   -3658.4455    2.1830624   0.62023693   0.11989324 
   60200   -953.65219    37.021506   -916.63069    1325.9761    1088.8487     2.201778   0.36425029   0.11684813 
   60300   -954.70256    38.429352   -916.27321       1376.4    2989.6878     2.207232   0.45541385   0.11075929 
   60400   -952.06819    41.214636   -910.85356    1476.1588    2542.7323    2.1993175  0.051264238   0.12737613 
   60500   -954.90704    38.955745    -915.9513    1395.2535   -1930.6251    2.1945824  0.030505461   0.10155684 
   60600   -952.77169    35.037983   -917.73371    1254.9335   -5974.3723    2.1812873  0.087753708   0.11160504 
   60700   -951.15433    37.954273   -913.20005    1359.3844   -1541.8408    2.1892286   0.15634946   0.10399306 
   60800   -954.72892    38.720341   -916.00858    1386.8222    7780.6819    2.2171992   0.26709399   0.09551122 
   60900   -957.70602    38.219515    -919.4865    1368.8844    7847.8841    2.2221215   0.11383623   0.10809628 
   61000    -951.4308    37.565723   -913.86508    1345.4679   -2301.5453     2.185658   0.21082517   0.11432254 
   61100   -954.04849      39.1278   -914.92069    1401.4159   -9435.3226    2.1708654   0.19329632    0.1118531 
   61200   -957.96681    36.568379   -921.39843    1309.7467   -1523.8701     2.202424   0.21396374   0.10191005 
   61300   -954.96324    40.791197   -914.17205    1460.9927    6306.4731    2.2142703   0.15015588   0.09888485 
   61400   -954.38172    40.414891   -913.96683    1447.5148    7046.0822    2.2122052  0.071815991   0.10547084 
   61500   -957.42063    37.703302   -919.71733    1350.3955   -3533.6539    2.1924144   0.20744314  0.096363579 
   61600   -951.91627    37.947423   -913.96885    1359.1391     -6605.31    2.1743809   0.11399966   0.10266907 
   61700    -950.2203     37.40718   -912.81312    1339.7895     2179.359    2.1926719   0.14006855   0.11133171 
   61800   -955.74705     38.64857   -917.09848    1384.2516     4778.414    2.2122208  0.052873189   0.10091223 
   61900    -958.4427    42.419825   -916.02288    1519.3243    1326.0883    2.2040557   0.35958659  0.097774964 
   62000   -950.38914    39.939332   -910.44981     1430.482   -3768.7061    2.1762376   0.22159931   0.12312999 
   62100   -955.91596    38.880712   -917.03525    1392.5661   -4423.8703    2.1869225   0.33181279  0.090411515 
   62200   -956.17998    40.449323   -915.73066    1448.7481   -6.8978512    2.1955456   0.28935706  0.094931434 
   62300   -951.93853    42.708365   -909.23017    1529.6587    351.97671    2.1883307   0.30343171   0.10204639 
   62400   -954.94633    37.800093   -917.14624    1353.8622    2713.5741    2.2047584   0.18021999  0.093716656 
   62500   -953.85403    37.783254   -916.07078    1353.2591   -203.80974    2.1956012   0.27994634   0.10395315 
   62600   -953.09642    42.439227    -910.6572    1520.0192   -2676.9614    2.1834942   0.45177185  0.086828042 
   62700   -956.95647    38.802903   -918.15357    1389.7793    268.85574    2.2009653  0.083806329  0.087292198 
   62800   -954.28017    37.291406   -916.98876    1335.6429    1768.9042    2.1992348   0.19079795   0.10511454 
   62900   -953.88161    41.339425   -912.54219    1480.6283   -2034.4538    2.1944053   0.16558525   0.10861597 
   63000   -956.36195    38.554973   -917.80698    1380.8993   -1047.9101    2.1982779   0.36525276   0.11068102 
   63100   -957.07627    38.590072    -918.4862    1382.1564   -2686.3627    2.1958374   0.25768463  0.099960303 
   63200   -953.13627    39.984412   -913.15186    1432.0966     3.504486    2.1953632  0.075703168   0.10578349 
   63300   -956.49697    39.397598   -917.09937    1411.0791    3034.5909    2.2056639   0.47242176   0.10462719 
   63400   -955.83026    35.926697   -919.90357     1286.764     3054.847    2.2078176  0.042034173  0.093463354 
   63500   -953.47914    40.532091   -912.94705    1451.7125   -4238.0678     2.183356   0.32938117  0.095693294 
   63600   -954.60142    38.291609   -916.30981    1371.4666      -4810.3    2.1843118   0.13009112  0.099056753 
   63700   -958.23152    38.588385   -919.64313     1382.096   -134.35831    2.2063292   0.12040578  0.087343048 
   63800   -952.62134    41.418975   -911.20236    1483.4775    5967.3546    2.2035195   0.44355696  0.093969262 
   63900   -955.48561    40.720679   -914.76494    1458.4671    1090.8167    2.2001315   0.28173903  0.093860247 
   64000    -958.0479    41.630586   -916.41731    1491.0566   -6537.4977      2.18788   0.46162152  0.099431586 
   64100   -949.43679    41.654681   -907.78211    1491.9196    -6533.992    2.1683437   0.18040856   0.11523422 
   64200    -955.8695    41.181523   -914.68798    1474.9728    2597.4845     2.203668   0.19056228  0.093395371 
   64300   -956.00703    40.044767   -915.96226    1434.2583    6808.6535    2.2146126   0.20197667  0.099584355 
   64400   -953.95659    40.269434   -913.68716    1442.3051   -77.623126    2.1970731   0.18370794  0.091162722 
   64500   -951.73054    43.245598   -908.48494    1548.9005   -10586.436    2.1610811   0.10002204   0.10788065 
   64600   -953.79139    36.392852   -917.39854      1303.46   -3688.6719    2.1868306  0.029774133   0.10560266 
   64700   -951.30307    35.937831   -915.36524    1287.1628    11100.991    2.2174617   0.17811645   0.10170448 
   64800   -952.61301    40.007461   -912.60555    1432.9222    8215.9805    2.2154781   0.14405435  0.097683878 
   64900   -948.69211    39.825041   -908.86707    1426.3885   -2936.1836    2.1766483   0.39690935   0.10719148 
   65000   -953.72228    35.936515   -917.78577    1287.1156   -7193.7974    2.1800198   0.22693743   0.11154887 
   65100   -952.03235    35.399193   -916.63316    1267.8707    802.33509    2.1941611   0.16938514    0.1119229 
   65200   -953.77124    39.403295   -914.36794    1411.2831    8706.6402    2.2133243   0.13145685  0.098713864 
   65300   -955.48621    40.112953   -915.37325    1436.7005    4746.6701    2.2113694   0.22262945   0.10292463 
   65400   -958.23836     35.78243   -922.45593    1281.5969   -892.62806    2.2024576   0.18004035  0.092031053 
   65500   -953.39865    36.942075   -916.45657    1323.1312   -10579.381    2.1706041  0.078423541   0.10845215 
   65600   -950.57524    35.981292   -914.59395    1288.7194   -3276.4902     2.180687   0.19079905   0.12020893 
   65700   -955.29606    39.375225   -915.92083    1410.2778    15243.068     2.234976   0.21812997  0.098020978 
   65800   -957.08362    36.364056   -920.71956    1302.4286    23395.348    2.2614863   0.15306576   0.10348432 
   65900   -951.11345    37.513948   -913.59951    1343.6136    -4737.941    2.1759215   0.34108568   0.10609505 
   66000   -949.29167    34.438112   -914.85356    1233.4483    -13054.95    2.1541999  0.094683391   0.11302684 
   66100   -954.29392    36.799656   -917.49426    1318.0302   -3440.3786    2.1883856   0.23544053  0.096051293 
   66200   -958.06041    35.550708    -922.5097    1273.2974     8738.672    2.2280311   0.36447928  0.095781611 
   66300   -955.47085      39.7189   -915.75195     1422.587    6545.0167    2.2153988  0.085842451  0.095948211 
   66400   -954.77655      39.7633   -915.01325    1424.1772   -191.75603    2.1938132  0.095537688     0.085081 
   66500   -953.38429    37.879874   -915.50442    1356.7197   -5734.7764    2.1779823   0.15612137   0.10088062 
   66600   -954.55345    39.552793   -915.00066    1416.6376   -2953.0079    2.1868672   0.12124904  0.098390762 
   66700   -949.54033    42.796203   -906.74413    1532.8048    8473.4789    2.2027588    0.1216586   0.11150708 
   66800   -951.34647    40.662495   -910.68397    1456.3831     10672.54    2.2141518   0.22154883   0.11280847 
   66900   -954.97135    39.788543   -915.18281    1425.0813   -3501.1167    2.1895138   0.20503806   0.10187941 
   67000   -954.87042    38.627312   -916.24311    1383.4902   -9606.0304     2.173163   0.29572032   0.10226584 
   67100   -955.88079    44.486208   -911.39458    1593.3346   -4220.5769    2.1855959   0.42161104  0.094014762 
   67200   -952.83031    43.096684   -909.73362    1543.5669    4250.6178    2.2047027    0.1283153  0.098965578 
   67300   -953.47319     38.35407   -915.11912    1373.7037    5510.7748     2.206344  0.028535266   0.09720067 
   67400   -953.47841     37.27436   -916.20405    1335.0324   -1987.4204    2.1913656   0.25601727   0.10121878 
   67500   -950.23209    40.381144   -909.85095    1446.3061   -3150.6213    2.1768419   0.17826708  0.095032101 
   67600   -951.72936     39.90783   -911.82153    1429.3537   -323.44489    2.1886436  0.036887404  0.099435284 
   67700   -956.62212    40.592549   -916.02957    1453.8779    1469.0046    2.2016218  0.092604483   0.10183654 
   67800   -955.79498    41.142524   -914.65246     1473.576     3043.988    2.2022207  0.067961055  0.091486711 
   67900   -952.29099     44.07008   -908.22091    1578.4305   -3589.0108    2.1765395   0.28150416   0.10464161 
   68000   -952.51841    37.630843   -914.88756    1347.8003   -4511.5605    2.1782812   0.14445641  0.095560858 
   68100   -953.19782    36.951965   -916.24586    1323.4854   -5092.3665    2.1805739   0.45430483   0.10747995 
   68200   -951.60258    37.561682    -914.0409    1345.3232     9772.205    2.2151896  0.079643423   0.10367366 
   68300   -956.44352    38.270943   -918.17257    1370.7264    14062.022     2.233711  0.088824817   0.10033911 
   68400   -956.55349    35.501912   -921.05157    1271.5497   -87.267374    2.2012797   0.11105688  0.091444495 
   68500    -952.8252    37.007289   -915.81791    1325.4669   -11144.742    2.1676669   0.12624999   0.09078816 
   68600   -955.11887    40.615541   -914.50333    1454.7014   -6985.7607    2.1804987   0.15607946   0.10713482 
   68700   -955.61394     35.69505   -919.91889    1278.4672    8553.9575    2.2195965   0.27864912  0.096483185 
   68800   -958.30915    39.040199   -919.26896    1398.2783    7763.6479    2.2255335 0.00094522272  0.094262747 
   68900   -954.22968    39.943407   -914.28628     1430.628   -64.955929    2.1934953   0.34296732   0.10611424 
   69000   -951.10142    35.188062   -915.91336    1260.3088   -6212.1175    2.1755975   0.35353146   0.10857744 
   69100   -960.25681     37.90509   -922.35172    1357.6229   -5208.2565    2.1983995   0.31800621   0.11301982 
   69200   -953.07926    37.136521   -915.94274    1330.0955    5682.4609    2.2096999   0.19604433   0.10754132 
   69300   -954.93935    40.733794   -914.20555    1458.9368     5589.756    2.2110925   0.21469573   0.10067743 
   69400   -954.22298    37.442705   -916.78027    1341.0619   -601.76937    2.1952664   0.13053435  0.099124759 
   69500   -959.13188    36.422757   -922.70912    1304.5311   -7818.8221    2.1891336   0.15298878   0.09269145 
   69600   -954.02453    36.373558   -917.65097    1302.7689   -1702.3611    2.1934695      0.09613   0.10452106 
   69700   -953.99067     39.06147    -914.9292    1399.0402    5946.7345    2.2105263   0.20804602   0.10968418 
   69800   -953.85437    38.532165   -915.32221    1380.0824    3540.0456    2.2047717   0.20820287   0.10184292 
   69900   -955.54886    37.665313   -917.88355    1349.0349   -1766.8142    2.1925368   0.30864885      0.10215 
   70000   -959.48719     36.20399    -923.2832    1296.6956   -2483.7107    2.2042878    0.1371425   0.10491473 
   70100   -957.49885    40.863383   -916.63547    1463.5782   -877.36862    2.1999709   0.24222315   0.11069161 
   70200   -952.90799    38.116208   -914.79178    1365.1843    1600.6089    2.2004466    0.5241817   0.11430411 
   70300   -954.08873    39.026248   -915.06248    1397.7787    192.94545    2.1954981   0.14308721   0.10187561 
   70400   -959.77335    37.015349     -922.758    1325.7556    938.63472    2.2100463   0.10822144  0.093597973 
   70500   -953.69516    37.457355   -916.23781    1341.5866    125.60028    2.1921962  0.050009211  0.097115251 
   70600   -954.61285    40.214878   -914.39797    1440.3511   -947.15836    2.1901393   0.13513066   0.10219035 
   70700   -957.01315    39.856374   -917.15678    1427.5108    594.84575    2.1999813  0.020932355  0.087340092 
   70800   -957.40431    35.687435   -921.71688    1278.1945    3771.6192    2.2144431  0.054703322  0.092570399 
   70900   -955.33054    40.748825   -914.58172    1459.4751   -302.45632    2.1974288  0.071874528  0.093715213 
[...]
  186800   -960.38915    43.581528   -916.80762    1560.9323    5379.2404    2.2207723    18.397172  0.095895311 
  186900   -958.69308    41.165875    -917.5272    1474.4124    11597.622    2.2334443    17.278323   0.10429826 
  187000   -950.10463    39.014455   -911.09017    1397.3563    476.89883    2.1886569    17.976248   0.12322098 
  187100   -956.00101     39.06311    -916.9379    1399.0989   -11352.257    2.1720511    16.817335   0.11723514 
  187200   -953.44301     36.12049   -917.32252     1293.705   -3108.4186    2.1860435    15.433437   0.10459369 
  187300   -951.21035     40.79654   -910.41381    1461.1841    3151.4885    2.1990834    14.898395  0.098728508 
  187400   -957.16089    40.460326   -916.70057    1449.1421    6740.8588    2.2168509    16.927652  0.094047263 
  187500   -956.86583    39.419345   -917.44648     1411.858   -1050.3744    2.2021372    15.676952   0.09908228 
  187600   -951.68357    40.453645   -911.22992    1448.9029   -6632.7351    2.1753565    16.295261   0.11290156 
  187700   -955.23862    37.132546   -918.10608    1329.9531   -3301.5729    2.1934526    16.374624   0.12113573 
  187800   -953.69721    36.860536   -916.83668    1320.2107    2706.7072    2.2066583    16.012493   0.11593457 
  187900   -954.42854     43.00887   -911.41967    1540.4218    3169.5932    2.2031461    17.300432     0.119421 
  188000   -954.33138    36.178446   -918.15293    1295.7808    2065.2228    2.2051747    19.457961    0.1187514 
  188100    -956.0008    39.091618   -916.90918      1400.12   -5443.0512    2.1873277    16.626248   0.11170011 
  188200   -954.62028    42.370587   -912.24969    1517.5608   -7714.7635    2.1787325    16.102524   0.12611151 
  188300   -956.77243    38.048175   -918.72425    1362.7476    1966.1052    2.2108168    17.459151   0.10609583 
  188400   -956.05707    40.074612   -915.98246    1435.3273    10037.476     2.230594    15.563244   0.10879396 
  188500   -952.03464    40.608452   -911.42619    1454.4475    4979.1724    2.2042884    17.412462   0.10746062 
  188600   -956.67041    38.486508   -918.18391    1378.4472   -12652.548    2.1694682    15.636246  0.094894365 
  188700   -955.11668    39.260766   -915.85592    1406.1783   -13574.915    2.1635916    17.134583   0.11260937 
  188800   -950.59925    39.631227   -910.96802    1419.4468    3001.4815    2.1981918    18.811835   0.11232641 
  188900   -957.77229    40.756688    -917.0156    1459.7568    11884.272    2.2315473    14.093224  0.098383967 
  189000   -956.55004    39.911483   -916.63856    1429.4846    4912.8953    2.2113513    17.940908   0.10342792 
  189100   -954.80052    43.602907   -911.19761     1561.698     -8847.49    2.1724511    16.919303  0.098097481 
  189200    -958.3614    39.976586   -918.38482    1431.8164   -7705.2926    2.1860113    17.429877  0.098952175 
  189300   -956.06296    40.191908   -915.87105    1439.5284    2336.3782    2.2036907     17.27305   0.10254354 
  189400   -951.05261    40.213414    -910.8392    1440.2987    5917.3958     2.205897    15.580553   0.11303411 
  189500   -955.17102     36.67127   -918.49975    1313.4319    3460.5551    2.2087568    15.608158   0.10324476 
  189600   -954.94672     39.12521   -915.82151    1401.3231    -6122.672    2.1848107    16.861554  0.098003366 
  189700   -950.63694    38.535455   -912.10149    1380.2002   -3718.3595     2.179285    17.017814   0.11106135 
  189800   -956.99264    37.578315   -919.41432     1345.919    1012.8578    2.2070133    15.863785   0.09882358 
  189900   -956.75598    41.312938   -915.44304    1479.6796    4804.1336    2.2114774    17.754738   0.10700705 
  190000    -952.2772    40.099882   -912.17732    1436.2323    3495.9801     2.195774     15.56331  0.098333623 
  190100   -953.43348    34.197658   -919.23582    1224.8361   -3637.6724    2.1868136    17.870776   0.10305406 
  190200   -953.57017    38.348235   -915.22194    1373.4947   -8939.9571    2.1721955    14.950573   0.10318801 
  190300   -953.09075    40.910327   -912.18043    1465.2595    1501.8364    2.1994346    19.289805    0.1085058 
  190400   -955.87637    38.590763   -917.28561    1382.1812    15908.801    2.2405278    17.387787   0.11224594 
  190500   -954.14396    38.152444   -915.99152    1366.4822    6114.4711     2.212669    18.416457   0.10774806 
  190600     -951.109    39.229957   -911.87904    1405.0748   -13373.056     2.155905    18.705432   0.12219468 
  190700   -956.18877    37.503597   -918.68517    1343.2428   -12812.643    2.1709678     17.27234   0.11086485 
  190800   -956.50144    40.485351   -916.01609    1450.0384    665.51506    2.2042909    16.443769   0.11348041 
  190900   -946.86929    36.463731   -910.40556    1305.9986    10746.019    2.2075277    16.686815   0.10525545 
  191000   -954.90512     36.83796   -918.06716    1319.4021    3575.3659    2.2076346     16.07152   0.10100513 
  191100   -954.37481    38.306242   -916.06857    1371.9907   -4433.4578    2.1851319    16.539589  0.093230254 
  191200   -951.95823     40.00507   -911.95316    1432.8365   -6971.2093    2.1738395    16.590156    0.1135228 
  191300   -956.69048    37.378302   -919.31218    1338.7552    2901.3328    2.2079921    16.556688   0.10494554 
  191400   -956.80918    41.189601   -915.61958    1475.2621    4854.7146    2.2118602    18.834191  0.099935734 
  191500   -954.38621    42.195579   -912.19063    1511.2926   -77.034412    2.1957862     18.06028   0.11245392 
  191600   -957.58315    38.375255    -919.2079    1374.4625   -5781.5055    2.1907424    15.690681   0.10450713 
  191700   -956.39696    40.678597   -915.71836    1456.9598   -8153.0479     2.179566     15.78807   0.12260994 
  191800   -954.22418    41.829723   -912.39445     1498.189   -263.16117    2.1960443    18.553029   0.11424718 
  191900   -960.16616    41.651424   -918.51474    1491.8029    5719.0449    2.2240358    18.126796  0.099414837 
  192000   -954.64703    39.579162   -915.06787     1417.582     5276.223     2.210653    15.268482  0.099820957 
  192100   -951.25936    38.887426   -912.37193    1392.8066   -6189.7143    2.1753137     16.75955   0.10027321 
  192200   -956.64407     37.91095   -918.73312    1357.8327   -13434.062    2.1714413    16.022722   0.10984397 
  192300     -952.769    37.633143   -915.13586    1347.8827     737.1643    2.1989581    19.384931   0.10346705 
  192400   -952.76153    42.986798   -909.77473    1539.6312    16946.628    2.2317136    17.133041  0.097040178 
  192500   -955.85257    39.198485   -916.65409    1403.9476    8534.1535    2.2220482    17.599772  0.094201301 
  192600   -953.83815    37.756938   -916.08122    1352.3166   -8520.3345    2.1768985    18.359396  0.099699426 
  192700   -951.23776    40.383685   -910.85407    1446.3972   -8084.6468    2.1682018    17.713741   0.11733139 
  192800   -956.15785      37.7639   -918.39395    1352.5659    469.79552    2.2060767    16.560173   0.10840408 
  192900   -954.11174     38.56952   -915.54222    1381.4203    5181.3666    2.2108686    16.688957   0.10740463 
  193000   -953.73727    42.411542   -911.32573    1519.0276    298.82788    2.1946632    17.288102  0.097124379 
  193100   -953.82057    34.699082   -919.12149    1242.7953    159.39877    2.1991682    17.836577   0.09625102 
  193200   -952.17811    36.704227   -915.47388    1314.6123   -1792.6131    2.1880766     14.32231   0.10204552 
  193300   -953.19573    41.134677   -912.06105    1473.2949    432.63769    2.1920056    17.377667  0.094776182 
  193400   -956.42316    37.046324   -919.37684     1326.865    4021.3857     2.214255    16.945628   0.10165282 
  193500   -955.93237    40.977947   -914.95442    1467.6815    1485.9161    2.2023237    17.529544  0.098754754 
  193600   -954.58808    41.519933   -913.06814    1487.0934   -5638.5241    2.1822098    16.788971   0.10677786 
  193700   -955.34218    35.587463   -919.75472    1274.6139   -4353.7938    2.1892417    18.833075   0.11418283 
  193800   -955.02329    40.142157   -914.88114    1437.7465   -324.90639    2.1972409    16.655197  0.092379009 
  193900    -952.8984    40.748818   -912.14958    1459.4749    9242.1807    2.2157168    17.933391   0.11172517 
  194000   -952.94269    34.694247   -918.24844    1242.6221    8048.4538    2.2157266    16.447672    0.1057561 
  194100   -951.83361     38.27954   -913.55407    1371.0343   -7410.6046    2.1722618    16.335917   0.10867994 
  194200   -948.85467    36.397892   -912.45678    1303.6405   -9325.5409    2.1665194    18.267903   0.11841763 
  194300   -957.93769    40.104142   -917.83354    1436.3849   -1008.1762    2.2032643    14.519357  0.094547059 
  194400   -953.76732    39.396928   -914.37039    1411.0551    13916.953    2.2296336     20.28549   0.10736978 
  194500   -952.34158    41.979602   -910.36198    1503.5571    5066.8114    2.2028217     17.61436   0.10381863 
  194600   -954.91317    37.046075   -917.86709    1326.8561   -6160.6999    2.1857809    18.542868   0.11306618 
  194700   -951.96102    36.583446   -915.37757    1310.2864   -7350.2228    2.1784186    15.568261   0.11660736 
  194800   -953.01947    42.354023   -910.66545    1516.9675   -1831.4427     2.189486    17.159003   0.11909988 
  194900   -956.72931    38.053038   -918.67627    1362.9218    6829.5753    2.2170627     15.57321  0.097728389 
  195000   -956.31812    40.500765   -915.81736    1450.5905    28.633111     2.199834    16.809147   0.10651545 
  195100   -952.47087    40.143116   -912.32776    1437.7808   -3826.3627    2.1826354    17.264342   0.10500181 
  195200   -957.53679    37.567117   -919.96967    1345.5179   -1654.8946    2.1972968    15.200039  0.091472392 
  195300   -955.45411    38.904977   -916.54913    1393.4352    222.08343    2.2005597    18.413338   0.10691342 
  195400   -953.40111    40.782714    -912.6184    1460.6889    2116.0242    2.1988953    16.600411   0.10177214 
  195500   -957.00399    37.746074   -919.25791    1351.9275    719.26736    2.2052457    18.180372   0.10499763 
  195600   -956.83255    40.225594   -916.60696    1440.7349   -4733.0361    2.1905608    17.279329   0.10129286 
  195700   -952.35765    39.326586   -913.03106    1408.5357    -4235.069    2.1840001    19.579186   0.11169103 
  195800   -955.63705    37.483908   -918.15314    1342.5376    1723.3542    2.2014976     16.72661  0.092972476 
  195900   -953.78868    37.282502   -916.50618     1335.324    7465.7245    2.2131488     17.16268  0.094634292 
  196000    -952.0263    40.800279   -911.22603     1461.318     3093.839    2.1965181    15.311446   0.10292324 
  196100   -951.53961    34.377166   -917.16245    1231.2654   -6786.6771    2.1731844    15.558481   0.11013201 
  196200   -951.59829    36.116393   -915.48189    1293.5582    -9211.968    2.1700183    19.843429   0.12348629 
  196300   -950.18101    40.483845   -909.69717    1449.9845    3553.9568    2.1967931    17.033701   0.11683763 
  196400   -955.67632    39.661504   -916.01482    1420.5312    13786.727    2.2330393    17.018258   0.10878602 
  196500   -957.10812    40.542251   -916.56587    1452.0764    1992.4912    2.2082041    17.082763  0.099946292 
  196600   -950.70212    40.533294   -910.16882    1451.7556   -8951.3205    2.1639097    16.741292   0.11196552 
  196700   -956.83919    39.077768   -917.76142    1399.6239   -7601.2782    2.1824378    15.502114   0.10102375 
  196800     -954.341    37.586208   -916.75479    1346.2017    2479.5167    2.2045778    17.535686   0.10045557 
  196900   -953.41584    41.805416   -911.61043    1497.3184    6306.4196    2.2078283    17.168402   0.10100146 
  197000   -955.31307    37.564262   -917.74881    1345.4156    903.74241    2.2016211    16.940801   0.10418332 
  197100   -954.42367     36.28863   -918.13504    1299.7271   -4473.4557    2.1877277    18.516745   0.10656774 
  197200   -954.61401     41.46645   -913.14756    1485.1779   -3764.9056    2.1853361    16.834475   0.10264892 
  197300   -955.20741    37.733555   -917.47385    1351.4791    2345.4099    2.2043652    15.878528   0.10868304 
  197400   -955.99992     36.88009   -919.11983    1320.9111     5284.939    2.2149628     17.59466  0.096290759 
  197500   -952.36377    39.696581   -912.66719    1421.7876    819.46104    2.1939731    18.086687   0.11668654 
  197600   -954.00616    37.074902   -916.93126    1327.8885   -4995.3848    2.1849534    17.329435   0.11331159 
  197700   -955.48782    36.050384   -919.43744     1291.194   -2237.7369    2.1952981    16.596043   0.10432358 
  197800   -952.63061    40.939093   -911.69152    1466.2898    1691.6888    2.1958824    18.504462   0.10831293 
  197900   -952.91037    37.199868    -915.7105    1332.3644    8042.5705    2.2139517    17.891702  0.097691615 
  198000   -957.59484    39.394424   -918.20042    1410.9654     1717.773    2.2058782     16.27727  0.095117387 
  198100   -947.41084    37.319838     -910.091    1336.6613   -10585.385    2.1549729    17.883182   0.11703476 
  198200   -953.51216    37.466876   -916.04529    1341.9276   -9574.1258    2.1724996    17.686831   0.11747896 
  198300    -957.7854    41.360874   -916.42453    1481.3965    8330.3764    2.2250889    16.719179    0.1022437 
  198400   -951.21601    40.807907    -910.4081    1461.5912    17948.038    2.2331801    18.020581   0.11737513 
  198500   -953.79366    39.128524   -914.66513    1401.4418   -96.587403     2.196991    17.864051    0.1154912 
  198600   -956.09423    37.234947   -918.85929    1333.6208   -12859.009    2.1731485    18.370403   0.11483504 
  198700   -955.66224    42.456093   -913.20615    1520.6233   -7369.9207    2.1797414    17.877244   0.12212889 
  198800   -956.18379    41.713059   -914.47073    1494.0105    4483.2295    2.2121572     17.38006   0.11309677 
  198900   -957.05477    37.887619   -919.16715    1356.9971    7040.3719    2.2238834    16.803497   0.10193156 
  199000   -951.65282    38.619283   -913.03354    1383.2027    534.86132    2.1967128    15.933307    0.1118639 
  199100    -953.4544    38.568138   -914.88627    1381.3708   -6040.9297    2.1820454    17.520677   0.11530846 
  199200   -955.83152    35.400828    -920.4307    1267.9293   -3930.3575     2.196036      17.7205   0.10930844 
  199300   -949.89324     36.86106   -913.03218    1320.2295    3531.9392    2.2008504    19.984591    0.1226534 
  199400   -953.52544    39.295855   -914.22958     1407.435    8115.8067    2.2170978    16.493438   0.11976498 
  199500   -957.20941    37.850171   -919.35924    1355.6558    2107.5527      2.21001    17.427808   0.11561756 
  199600   -952.96348    41.344894   -911.61858    1480.8242   -7793.5437    2.1735755    18.063082   0.11719437 
  199700     -954.068    39.587043   -914.48096    1417.8643   -5280.0543    2.1853966     17.14234   0.11249205 
  199800   -956.81909     38.73935   -918.07974     1387.503    4519.0735    2.2134109    17.144963   0.10517642 
  199900   -954.25001    43.294867   -910.95515    1550.6651    6983.2727    2.2129847    16.767574   0.10573616 
  200000   -952.38343    38.236306   -914.14713    1369.4858    2700.8488    2.1992671    16.481112   0.10683404 
  200100   -956.68063    37.942571   -918.73806    1358.9653   -10578.883    2.1752549    16.809408  0.095271628 
  200200   -953.41721    40.854609    -912.5626    1463.2639   -10772.454    2.1650915    16.704099   0.10695375 
  200300   -954.91287    41.708404   -913.20447    1493.8438    6262.6736    2.2173119    19.099125   0.11574601 
  200400   -957.14327    40.126592   -917.01668     1437.189    19184.892    2.2519113     18.18847   0.11589892 
  200500   -951.38148    38.467251   -912.91423    1377.7574    3670.6778    2.1995086    18.553115   0.11810866 
  200600   -951.91902    38.315743   -913.60327     1372.331   -11773.108    2.1640304    18.193115   0.11571185 
  200700   -956.36806    36.783662    -919.5844    1317.4574   -4660.6438    2.1901119    17.687679   0.10201071 
  200800   -953.41145     40.50389   -912.90756    1450.7024    4960.7389    2.2045305    17.436825   0.10665647 
  200900   -952.67588    38.642521   -914.03336     1384.035    6802.7212    2.2103868    16.324551    0.1076749 
  201000   -958.80785    39.164623   -919.64323    1402.7348     133.3082    2.2069109     17.58619   0.10152454 
  201100   -953.87734    41.450241    -912.4271    1484.5973    -5551.309    2.1800914     15.54301   0.10248862 
  201200   -952.76749    38.070456   -914.69703    1363.5457   -3089.6027    2.1888852    17.308749   0.11772072 
  201300   -955.73249    37.005619   -918.72687    1325.4071    4072.9059    2.2100106    18.687714  0.099698954 
  201400   -953.66902    42.217954   -911.45107     1512.094    3794.2905    2.2053787    17.850172   0.10932849 
  201500   -951.82349    37.134885    -914.6886    1330.0369    4581.3506    2.2023766    15.239662   0.11809061 
  201600   -955.43767    36.712662   -918.72501    1314.9144   -5345.8169    2.1911947    16.752369   0.10285362 
  201700   -950.45186    38.867379   -911.58448    1392.0886    -6255.331    2.1743559    18.104267   0.12070431 
  201800   -956.21313     41.04205   -915.17108    1469.9774    2650.3541    2.2046455    15.113555  0.098608408 
  201900     -957.009    39.188181   -917.82082    1403.5785    7538.6746    2.2230357    15.049018   0.10673057 
  202000   -951.15883    39.657451   -911.50138    1420.3861    3088.8926    2.1960936    15.682599   0.10933571 
  202100   -954.55197    39.227869    -915.3241         1405   -9832.8889    2.1725001    16.986342   0.10899469 
  202200   -957.60731    38.747481   -918.85983    1387.7943   -10826.897    2.1778888    16.737082   0.11060472 
  202300   -951.34818     39.25201   -912.09617    1405.8647    5021.6639    2.2061121    17.387611   0.12499985 
  202400   -954.49241    39.594236   -914.89817     1418.122    15008.529    2.2332085    15.768836   0.12556912 
  202500   -956.38538    37.126844   -919.25853    1329.7489    2692.4334    2.2120239    19.374309   0.10455407 
  202600   -949.31989    36.595413   -912.72448     1310.715   -6877.3916    2.1712263    16.194727   0.12306284 
  202700   -955.13889    39.838743   -915.30015    1426.8793   -7427.4467    2.1801282    17.185918   0.12119158 
  202800   -956.39888    37.673467   -918.72542     1349.327    1696.8633    2.2089371    15.285175   0.10740799 
  202900   -951.41855    40.189832   -911.22872     1439.454    5885.4462    2.2035327    15.121228   0.10986907 
  203000   -954.46456    38.653368   -915.81119    1384.4235    565.08128    2.2019046    18.589218   0.10967571 
  203100    -955.8407    37.044842   -918.79585    1326.8119   -2945.1005    2.1956195    15.865502  0.099131247 
  203200   -948.50721    37.103823   -911.40339    1328.9244   -1577.3148    2.1818404    15.194717   0.12899433 
Loop time of 144.801 on 1 procs for 200000 steps with 217 atoms

Performance: 358.008 ns/day, 0.067 hours/ns, 1381.202 timesteps/s
100.0% CPU use with 1 MPI tasks x no OpenMP threads

MPI task timing breakdown:
Section |  min time  |  avg time  |  max time  |%varavg| %total
---------------------------------------------------------------
Pair    | 141.4      | 141.4      | 141.4      |   0.0 | 97.65
Neigh   | 0.34335    | 0.34335    | 0.34335    |   0.0 |  0.24
Comm    | 0.84826    | 0.84826    | 0.84826    |   0.0 |  0.59
Output  | 0.067758   | 0.067758   | 0.067758   |   0.0 |  0.05
Modify  | 1.8469     | 1.8469     | 1.8469     |   0.0 |  1.28
Other   |            | 0.2976     |            |       |  0.21

Nlocal:    217 ave 217 max 217 min
Histogram: 1 0 0 0 0 0 0 0 0 0
Nghost:    957 ave 957 max 957 min
Histogram: 1 0 0 0 0 0 0 0 0 0
Neighs:    4233 ave 4233 max 4233 min
Histogram: 1 0 0 0 0 0 0 0 0 0
FullNghs:  8466 ave 8466 max 8466 min
Histogram: 1 0 0 0 0 0 0 0 0 0

Total # of neighbors = 8466
Ave neighs/atom = 39.0138
Neighbor list builds = 580
Dangerous builds = 4
Total wall time: 0:02:27
