ITEM: TIMESTEP
1
ITEM: NUMBER OF ATOMS
8
ITEM: BOX BOUNDS pp pp pp
-1.6307666284767489e-06 6.4012016307666286e+00
-1.6307666284767489e-06 6.4012016307666286e+00
-1.6307666284767489e-06 6.4012016307666286e+00
ITEM: ATOMS id type xs ys zs
1 1 0 3.77123e-21 5.68993e-21
6 1 0.25 0.25 0.25
3 1 0.5 0.5 5.68993e-21
8 1 0.75 0.75 0.25
4 1 0.5 1.89223e-20 0.5
5 1 0.75 0.25 0.75
2 1 1.32324e-20 0.5 0.5
7 1 0.25 0.75 0.75
