Header of the LAMMPS data file 

8 atoms 
2 atom types

0.0 6.4012  xlo xhi
0.0 6.4012  ylo yhi
0.0 6.4012  zlo zhi

Masses 

1  28.085
2  6.939

Atoms # atomic 

1 1 0.00000 0.00000 0.00000 
2 1 0.00000 3.20060 3.20060 
3 1 3.20060 3.20060 0.00000 
4 1 3.20060 0.00000 3.20060 
5 1 4.80090 1.60030 4.80090 
6 1 1.60030 1.60030 1.60030 
7 1 1.60030 4.80090 4.80090 
8 1 4.80090 4.80090 1.60030 
