LAMMPS (3 Mar 2020)
Reading data file ...
  orthogonal box = (0 0 0) to (17.469 17.469 17.469)
  1 by 1 by 1 MPI processor grid
  reading atoms ...
  217 atoms
  read_data CPU = 0.00636282 secs
Reading potential file library.meam with DATE: 2012-06-29
Reading potential file LiSi.meam with DATE: 2020-11-07
1 atoms in group Li
Neighbor list info ...
  update every 1 steps, delay 10 steps, check yes
  max neighbors/atom: 2000, page size: 100000
  master list distance cutoff = 6
  ghost atom cutoff = 6
  binsize = 3, bins = 6 6 6
  2 neighbor lists, perpetual/occasional/extra = 2 0 0
  (1) pair meam/c, perpetual
      attributes: full, newton on
      pair build: full/bin/atomonly
      stencil: full/bin/3d
      bin: standard
  (2) pair meam/c, perpetual, half/full from (1)
      attributes: half, newton on
      pair build: halffull/newton
      stencil: none
      bin: none
Setting up Verlet run ...
  Unit style    : metal
  Current step  : 0
  Time step     : 0.0005
Per MPI rank memory allocation (min/avg/max) = 9.27 | 9.27 | 9.27 Mbytes
Step PotEng KinEng TotEng Temp Press Density c_msdli[4] 
       0   -951.06911    50.256344   -900.81276         1800    -114182.3    1.8918427            0 
     100   -927.28541    25.234212    -902.0512    903.79796   -71143.141     1.955358   0.24074096 
     200   -949.00812    40.029313    -908.9788    1433.7048   -25898.616    2.1060246   0.10767886 
     300   -949.63344    43.196232   -906.43721    1547.1324    23615.002    2.2366073   0.12671698 
     400   -949.40147    46.856975   -902.54449    1678.2469    45989.024    2.2898126   0.62908127 
     500   -948.19828    47.134868   -901.06341    1688.2001    39330.975    2.2738853     0.520534 
     600   -950.46132    49.421276   -901.04004    1770.0909    14191.187    2.2119689   0.35275045 
     700   -945.41613     51.22032   -894.19581    1834.5261   -9500.5166    2.1388193   0.27603475 
     800   -939.03606    48.464633   -890.57143    1735.8274   -25896.259    2.0863916  0.077714401 
     900   -935.70737    54.454783   -881.25258    1950.3729   -29198.545    2.0698221   0.12835948 
    1000   -938.27705    53.127902   -885.14915    1902.8488   -21080.895    2.0888971   0.16279219 
    1100   -940.17824    49.140509   -891.03773    1760.0348   -8631.8968    2.1345633  0.093943794 
    1200   -947.25458     47.54997   -899.70461    1703.0675    7062.5498    2.1901205   0.29030084 
    1300   -947.07518    51.779675   -895.29551    1854.5602    25738.382    2.2329765   0.36333849 
    1400   -947.60661    51.367161   -896.23945    1839.7854    27279.534      2.24059   0.49452113 
    1500   -946.79839    52.853434   -893.94496    1893.0183    17704.721    2.2086959  0.090640458 
    1600   -943.08889    43.983256   -899.10564    1575.3207   -3179.3012    2.1559447    0.1551888 
    1700   -940.32318     52.08843   -888.23475    1865.6186   -18457.548    2.1104076   0.47012424 
    1800   -939.63524    53.750504   -885.88474    1925.1481   -24128.081    2.0879496   0.22079843 
    1900    -935.6642    48.063626   -887.60057    1721.4648   -19984.429    2.0960517    1.0583745 
    2000   -938.40376    55.331896   -883.07187    1981.7878   -4519.9844    2.1283258  0.083167099 
    2100   -940.09675    49.773004   -890.32374    1782.6885    5284.0902    2.1681517   0.16887962 
    2200   -942.53335    47.275891   -895.25746     1693.251    14862.924    2.2019295   0.19990592 
    2300   -944.99694    51.906402   -893.09054    1859.0991    21317.275    2.2160707  0.081592985 
    2400   -948.10353    49.884674   -898.21885    1786.6881    10610.231    2.2020423   0.14256259 
    2500   -948.50578    49.814456   -898.69132    1784.1731   -413.52135    2.1707739   0.17532644 
    2600   -940.50338    49.962208   -890.54117    1789.4651   -7706.4212    2.1398833   0.16289012 
    2700   -937.25214     49.13152   -888.12062    1759.7129   -12144.407    2.1192467   0.14749567 
    2800   -940.60113    52.418817   -888.18231    1877.4519   -14892.419    2.1156443  0.090135426 
    2900   -939.60935    44.255606   -895.35374    1585.0753   -9361.0261    2.1315369    0.1836612 
    3000   -939.10948     50.87476   -888.23472    1822.1494    3704.7684    2.1625456   0.20819312 
    3100   -946.33529    50.977684   -895.35761    1825.8358    7782.1776    2.1906733   0.26788945 
    3200   -947.63362    50.015216    -897.6184    1791.3637    14326.888    2.2056166    0.3538707 
    3300   -942.73358    54.011896   -888.72168    1934.5103    16572.973    2.2000781   0.39463651 
    3400    -942.1722    45.955223   -896.21698    1645.9494    4299.6135    2.1741183   0.13042275 
    3500   -942.38248    52.423398   -889.95909     1877.616   -5767.9479    2.1433774   0.10382859 
    3600    -937.3163    48.946997   -888.36931    1753.1039   -11475.366    2.1209635   0.41521606 
    3700   -935.42969     51.84989    -883.5798     1857.075   -10402.088    2.1141998   0.31107687 
    3800   -942.95687    51.711692   -891.24518    1852.1253   -14359.755    2.1240885   0.15558018 
    3900   -939.57829    51.191783   -888.38651     1833.504   -653.92495    2.1508314   0.26914099 
    4000   -939.58002    51.205074   -888.37495    1833.9801    10098.183    2.1797174   0.36403834 
    4100   -947.42684    51.288536    -896.1383    1836.9694    10614.603    2.1966386   0.45708667 
    4200   -941.49581     45.48349   -896.01232    1629.0536    14983.521    2.1986826   0.21699918 
    4300   -940.77281    49.891896   -890.88092    1786.9468    12258.308    2.1838064    0.3002755 
    4400   -939.37176    42.700323   -896.67144    1529.3707   -642.17669    2.1576452   0.33142086 
    4500   -939.47479    49.098907   -890.37588    1758.5448   -7837.6233    2.1345612   0.23323368 
    4600   -938.43473    51.194719   -887.24001    1833.6092   -10917.154    2.1239796   0.40158406 
    4700   -933.85289    47.248143   -886.60475    1692.2571   -6955.9525     2.128049   0.12895996 
    4800   -946.51264    52.321588   -894.19105    1873.9695   -9236.6789     2.144126   0.15441667 
    4900   -944.36435    47.923721   -896.44063    1716.4539    1014.2585    2.1712672   0.25121638 
    5000   -939.09658     46.81847   -892.27811    1676.8678    16532.758    2.1958618    0.3568529 
    5100   -947.47154    52.679976   -894.79157    1886.8057      11488.6    2.2022688   0.13309268 
    5200   -949.64349     50.77426   -898.86923    1818.5499    5863.3642    2.1905722   0.25813773 
    5300   -940.29643    51.541967   -888.75446    1846.0464    4781.6408    2.1681018   0.26089777 
    5400   -939.26465     47.78343   -891.48122    1711.4292   -8084.5893    2.1405871   0.17267821 
    5500   -942.20462    58.482774   -883.72185    2094.6409   -13252.129    2.1219061   0.11710645 
    5600    -937.7096    49.791357   -887.91824    1783.3458   -13313.492    2.1190677   0.29930664 
    5700   -939.71624    49.087974   -890.62826    1758.1532   -10147.251    2.1324873   0.22739015 
    5800   -940.53623    49.237631    -891.2986    1763.5134   -451.60937    2.1590544   0.25612651 
    5900      -943.17    49.173281   -893.99672    1761.2086    7608.6871    2.1876771   0.35512495 
    6000   -945.14212    51.926968   -893.21515    1859.8357    15311.805    2.2050888   0.46446981 
    6100   -942.77807    45.909994   -896.86807    1644.3295    13292.865    2.2027787   0.53170162 
    6200    -946.5312    50.018037   -896.51317    1791.4647    5759.7699    2.1837149   0.26247404 
    6300   -937.56042    44.261976   -893.29844    1585.3035    1244.9031    2.1585801   0.11146838 
    6400   -938.06747    50.891991   -887.17548    1822.7666   -8222.8145    2.1364169  0.046127295 
    6500    -938.8004    52.861032   -885.93937    1893.2905   -11511.765    2.1250955   0.37933003 
    6600   -936.74037    55.442152   -881.29822    1985.7368   -7344.7058    2.1275972   0.56591032 
    6700   -938.45716    46.434934   -892.02223    1663.1309   -6903.7409     2.141919   0.49098362 
    6800   -946.22148    54.200577    -892.0209    1941.2681   -1192.1449    2.1655946   0.29403947 
    6900   -941.82567    49.224438   -892.60124    1763.0409    10485.649    2.1880432   0.47341308 
    7000    -945.2234    53.374754   -891.84864    1911.6901    12398.785    2.1972743   0.20904134 
    7100   -949.70753    48.743002   -900.96452    1745.7976    3232.6785    2.1900891   0.16604667 
    7200   -943.99076    50.638628   -893.35214     1813.692     1772.229    2.1743151   0.23540442 
    7300    -940.1202    50.676388   -889.44381    1815.0444   -56.809759    2.1542937   0.40321325 
    7400    -941.1805    44.976377   -896.20412    1610.8907   -10212.804    2.1369566   0.27172271 
    7500   -939.63577    51.622398   -888.01338    1848.9271   -7575.6327    2.1335187   0.12950499 
    7600   -940.91677    51.595562    -889.3212    1847.9659   -5229.7296    2.1432519   0.11602474 
    7700   -942.90015     48.05634   -894.84381    1721.2038   -2582.5133    2.1605247  0.065446383 
    7800   -943.33499     55.07372   -888.26127    1972.5409    8521.2946    2.1793392   0.22064637 
    7900   -942.02196     47.79455   -894.22741    1711.8275    8050.8829    2.1887549   0.41860319 
    8000   -942.20824    52.586456   -889.62178    1883.4562     10185.94    2.1856305   0.32827077 
    8100   -945.29165    47.949613   -897.34204    1717.3813   -1031.8806    2.1707186   0.23821846 
    8200   -941.77703    50.226176   -891.55086    1798.9195   -3886.8179    2.1550051   0.10625937 
    8300   -936.29892    50.135927   -886.16299    1795.6871   -2123.4225    2.1435653   0.12898065 
    8400   -942.93076    48.581486   -894.34928    1740.0126   -10504.196    2.1376611   0.37907896 
    8500   -938.58098    46.298724   -892.28226    1658.2524   -6260.9834    2.1449364   0.86453418 
    8600   -944.02514    54.219422   -889.80572    1941.9431   -1617.8939    2.1602932   0.11523068 
    8700   -943.59417    50.708977    -892.8852    1816.2117    3278.5079      2.17592   0.15988311 
    8800   -943.83443    50.212587   -893.62184    1798.4328     7610.155    2.1862397   0.28729906 
    8900   -949.02869    44.832487   -904.19621    1605.7371    2001.5594    2.1866956   0.34008324 
    9000   -945.73379    49.206577   -896.52721    1762.4011    4844.4022    2.1821656   0.31007654 
    9100    -940.5895    48.933313   -891.65618    1752.6138    3518.8517    2.1723706   0.42909669 
    9200   -940.76371    49.360192   -891.40352    1767.9031   -2558.7936    2.1579851   0.47870647 
    9300   -945.00472    59.073184   -885.93154    2115.7872   -6269.8941    2.1451235   0.30797632 
    9400   -939.90947    47.205169    -892.7043     1690.718   -9414.2083    2.1388657   0.29381323 
    9500    -940.7821    54.185753   -886.59634    1940.7372   -6454.9563    2.1426275   0.02115843 
    9600   -943.60179    49.805481   -893.79631    1783.8517    -3954.147    2.1530346  0.085615609 
    9700    -944.0833    50.426418   -893.65688    1806.0914   -63.398201     2.167688   0.53243251 
    9800   -940.33965    52.522055    -887.8176    1881.1495    8867.8105    2.1804962   0.61791971 
    9900   -942.15033    50.309478   -891.84085    1801.9031    7895.9111    2.1812998   0.27730886 
   10000    -944.9594    47.409354   -897.55005    1698.0311    1303.9082    2.1726706    0.3517021 
   10100   -938.90661    47.618875   -891.28774    1705.5354    2187.5238    2.1625825   0.14599438 
   10200   -940.32424    49.191598   -891.13264    1761.8646   -3498.6719     2.152772   0.20538769 
   10300   -940.25836    56.477233   -883.78112    2022.8097   -2073.3326    2.1465667   0.17042153 
   10400   -940.32935    49.281572   -891.04778    1765.0872   -6554.4907    2.1440103   0.13801338 
   10500   -937.50778     45.07448    -892.4333    1614.4044   -2286.8032     2.148814   0.23433011 
   10600   -937.00657    51.137233   -885.86933    1831.5502    3735.9176    2.1596029   0.22587288 
   10700   -943.81344    48.724875   -895.08856    1745.1483   -58.898135    2.1692354   0.15681718 
   10800   -945.58274    47.689769   -897.89297    1708.0746    1857.1644    2.1778517   0.11243198 
   10900   -940.27568    53.043991   -887.23169    1899.8434    9688.1632    2.1820629    0.4381398 
   11000   -940.88266     51.91828   -888.96438    1859.5245    4438.3319     2.174061   0.55459739 
   11100   -946.57675    49.502238   -897.07451    1772.9907   -5723.4229    2.1598553   0.17671343 
   11200   -944.47519    52.732464   -891.74273    1888.6856   -9039.6922    2.1501088   0.18579672 
   11300    -940.8236    56.751597   -884.07201    2032.6364   -3869.5062    2.1466255   0.13487283 
   11400   -943.30077     53.07937    -890.2214    1901.1105   -9656.9331    2.1467947   0.20436041 
   11500    -944.0826    53.600645   -890.48196    1919.7807   -4687.2189    2.1533675   0.54988632 
   11600   -943.00932    45.884124    -897.1252    1643.4029   -1157.7116    2.1647324   0.10629907 
   11700   -940.88202    51.395772   -889.48625    1840.8102    7717.2468     2.177866   0.32508701 
   11800   -941.94498    53.729775   -888.21521    1924.4057    8168.4885    2.1813159   0.10682759 
   11900   -943.55989    46.451691    -897.1082    1663.7311    3147.3987    2.1742426   0.46071509 
   12000    -940.7567    49.908043   -890.84865    1787.5251    1751.5155    2.1643196   0.24929157 
   12100   -941.14075    49.542178   -891.59858    1774.4212   -3531.4528    2.1529235   0.21140839 
   12200   -941.84807    51.300113   -890.54795     1837.384   -6776.0508    2.1454323   0.25983949 
   12300   -937.46825    54.240118   -883.22813    1942.6843   -2878.9829    2.1453236   0.24109032 
   12400   -943.01824    49.959494   -893.05875    1789.3679   -6014.4138    2.1489323   0.26540715 
   12500   -943.31827    52.064688   -891.25358    1864.7683   -1683.7815    2.1587642   0.27718201 
   12600   -942.55165    49.667192   -892.88446    1778.8987     2137.016    2.1709897   0.27047164 
   12700   -942.64151    56.590006    -886.0515    2026.8488    6793.2495    2.1784033   0.40658817 
   12800   -942.68534    49.999036    -892.6863    1790.7841     4108.817    2.1753613   0.14250312 
   12900   -943.53875     47.30818   -896.23057    1694.4074   -1125.5726    2.1659507   0.15376369 
   13000   -942.60496    48.201712   -894.40325    1726.4105   -1543.3694    2.1580153   0.11140057 
   13100   -938.28174      49.5021   -888.77964    1772.9857   -1102.5991    2.1542993   0.14213382 
   13200   -940.81336    52.472117   -888.34124    1879.3609   -1943.9685     2.152843   0.45389446 
   13300    -947.5256    48.569382   -898.95622    1739.5791   -8473.5295    2.1534626   0.19892689 
   13400   -946.32376    50.862385   -895.46138    1821.7062   -5691.2704    2.1612693   0.37755326 
   13500   -942.09295    51.595023   -890.49793    1847.9466    3043.5991    2.1722603   0.22165212 
   13600   -946.35146    52.661605   -893.68986    1886.1477    2884.4441    2.1775213  0.060931349 
   13700   -945.05951    45.433507     -899.626    1627.2634    2781.7106    2.1766446  0.077282681 
   13800   -943.93284    54.838518   -889.09432    1964.1168    3107.8122    2.1719294   0.33402444 
   13900   -941.64057    49.577253   -892.06332    1775.6774    -610.0105    2.1600829   0.12114054 
   14000   -941.60673    52.012909   -889.59382    1862.9138   -3506.5474     2.148308   0.26212839 
   14100   -938.26553    49.225345   -889.04018    1763.0733   -4998.7445     2.141657   0.33148078 
   14200   -944.37693    49.395689   -894.98124    1769.1745   -10173.012    2.1426059   0.39263649 
   14300   -944.48994    44.846508   -899.64343    1606.2393   -4779.2283    2.1560752   0.31158973 
   14400   -942.33533    53.183246   -889.15208     1904.831    4962.9211     2.176253   0.11462254 
   14500   -942.95384    50.536624   -892.41721    1810.0386    9602.1168    2.1886775   0.16781083 
   14600   -947.94011    49.670491   -898.26962    1779.0168    5171.3395    2.1879381   0.43322939 
   14700   -947.61189    50.253107   -897.35879    1799.8841    1063.6596    2.1787042   0.23648119 
   14800    -941.1202    50.169289   -890.95091     1796.882    2357.1297    2.1657262   0.24582625 
   14900   -942.19262    52.578824   -889.61379    1883.1828   -4818.7962    2.1504383   0.38725924 
   15000    -945.9314    51.193072   -894.73833    1833.5502   -13022.036    2.1408376    0.1829001 
   15100   -940.15131    55.576422   -884.57489    1990.5459   -4752.2695    2.1439443  0.049209058 
   15200    -937.6205    50.653892    -886.9666    1814.2387   -1357.8014    2.1538514   0.34625654 
   15300   -943.35991    46.529766   -896.83015    1666.5275   -1981.0299     2.166076   0.50345189 
   15400   -944.04067     50.98605   -893.05462    1826.1354    4604.9492    2.1798888    0.3833829 
   15500   -940.60173    47.637415   -892.96431    1706.1995    9176.4856    2.1874231   0.52333891 
   15600   -947.81014    57.003589   -890.80655    2041.6618    3389.4353    2.1836165   0.25865881 
   15700   -937.19607    53.910352   -883.28571    1930.8733    5923.0168    2.1694097   0.11699216 
   15800   -942.95565    51.544966   -891.41068    1846.1538   -5962.9314     2.148506   0.31139039 
   15900   -939.72315    47.624097   -892.09906    1705.7224   -8979.2884    2.1355418   0.33269547 
   16000   -935.94235    52.195663   -883.74669    1869.4594   -5771.0027    2.1361139   0.39465426 
   16100   -941.17503     49.60588   -891.56915    1776.7027    -7186.292    2.1457536   0.71337136 
   16200   -943.32563     49.33178   -893.99385    1766.8855   -1379.1434    2.1644555    0.1228999 
   16300   -938.82209    49.827735   -888.99436    1784.6488    8927.5797    2.1856649  0.050024372 
   16400   -939.28664    57.452048   -881.83459     2057.724    14671.388    2.1943138  0.077702419 
   16500   -941.83951    51.473045   -890.36647    1843.5778    6683.8746    2.1841104   0.37942955 
   16600   -942.67973    49.192615   -893.48711    1761.9011   -1500.4503     2.164546   0.30235135 
   16700   -939.53848    50.014891   -889.52359     1791.352   -6407.6513    2.1471326   0.37879775 
   16800    -937.2271    51.606792    -885.6203    1848.3681     -7774.63    2.1379881  0.084008891 
   16900   -940.48332    48.290262   -892.19306    1729.5821   -10516.995    2.1400666   0.33452288 
   17000   -941.98267    51.069731   -890.91294    1829.1325   -3672.8128     2.155127   0.21978623 
   17100   -942.06164    48.920121   -893.14152    1752.1413     3541.326    2.1762124  0.042136389 
   17200   -943.23144    48.375782   -894.85566    1732.6451    9579.0413    2.1934337   0.41968065 
   17300   -943.89044    50.707493   -893.18294    1816.1585    12311.176     2.198048   0.36183599 
   17400   -940.69724    53.371613   -887.32563    1911.5776    8931.3254    2.1878273   0.81770792 
   17500   -941.81118    52.956603   -888.85458    1896.7135    946.15372     2.164679   0.44538448 
   17600   -938.93095    48.524562   -890.40638    1737.9738   -8173.4143    2.1391137   0.72707324 
   17700    -938.2081    54.679624   -883.52847    1958.4258   -11759.125    2.1244994   0.16300984 
   17800   -939.47746    49.841428   -889.63603    1785.1392   -14242.827    2.1241532   0.26927619 
   17900   -946.79951    50.295522   -896.50399    1801.4032   -11682.878    2.1416743   0.41043029 
   18000   -940.20355    52.084163   -888.11938    1865.4658    6324.7716     2.172991    0.3737135 
   18100   -942.47637    52.079004   -890.39736    1865.2811    12040.208    2.1982505   0.22341004 
   18200    -946.6623    49.733127   -896.92917    1781.2603    12255.607    2.2067748   0.25658241 
   18300   -944.98827      53.6225   -891.36577    1920.5635     11185.69    2.1972834    0.3268087 
   18400   -941.41598    53.768003   -887.64797    1925.7749    3290.3998    2.1726235   0.60494934 
   18500   -937.34714    52.569245   -884.77789    1882.8397   -4587.3297    2.1412781   0.17039189 
   18600   -940.17782    51.242424    -888.9354    1835.3178   -17453.591    2.1187796  0.043586552 
   18700   -938.88036    50.587039   -888.29332    1811.8443   -15932.208    2.1174772    0.2457938 
   18800   -942.90344    51.327514   -891.57592    1838.3654   -13403.588     2.137235   0.14289547 
   18900    -945.9297    43.933765   -901.99593    1573.5481   -3977.9305    2.1714354   0.47576204 
   19000   -945.69362    50.884315   -894.80931    1822.4916    14628.871    2.2092367   0.57572583 
   19100   -941.18759    49.045176   -892.14242    1756.6204    27319.735    2.2280712    0.8874584 
   19200   -947.37189    49.986672   -897.38522    1790.3413    12809.588    2.2143317   0.32221432 
   19300   -944.55663    46.269285   -898.28735     1657.198    4003.6604    2.1815164   0.15950791 
   19400   -939.24264     48.38779   -890.85485    1733.0752   -4504.6852    2.1464401   0.34020704 
   19500   -934.72171    47.605335   -887.11637    1705.0504   -11290.514    2.1213036   0.53462457 
   19600   -931.82695    51.991178   -879.83578    1862.1354    -11390.65    2.1136714   0.22252287 
   19700   -942.09908    51.310554   -890.78852     1837.758   -14696.215    2.1235335  0.081555393 
   19800   -938.41379     45.74504   -892.66875    1638.4214   -4202.6693    2.1521573     0.167185 
   19900   -938.23809    48.802353   -889.43574    1747.9233    12641.836    2.1873462  0.044056407 
   20000   -946.76856    49.984354   -896.78421    1790.2583    14883.211    2.2086945   0.01875347 
   20100   -946.02719    49.194742   -896.83245    1761.9773    14925.365     2.209942  0.025291953 
   20200   -941.27729     49.93407   -891.34322    1788.4573     10352.23    2.1909516   0.13325518 
   20300   -941.62497    50.292549   -891.33242    1801.2967   -2069.6146    2.1593405   0.34804767 
   20400   -943.62821    43.828506    -899.7997    1569.7781   -15049.806    2.1314813   0.10412194 
   20500   -938.90717    47.639583   -891.26759    1706.2771   -14156.951    2.1237076  0.050231639 
   20600   -934.40674    49.923503   -884.48323    1788.0788   -5208.7666    2.1362073   0.34331513 
   20700   -940.11308    49.428971   -890.68411    1770.3665   -1362.3172    2.1588348   0.38070876 
   20800   -943.48556    51.104192   -892.38137    1830.3668    6442.2205     2.182936   0.42870865 
   20900   -946.36148    46.664252   -899.69723    1671.3443    8860.2679    2.1996598   0.41334063 
   21000   -943.42978    52.182815   -891.24697    1868.9992     14634.39    2.2037152    0.1902489 
   21100   -941.10184    48.849428   -892.25242    1749.6094    10485.208    2.1892524   0.48764114 
   21200   -944.33953    44.631398   -899.70813    1598.5348   -3855.8646    2.1643773   0.33062074 
   21300   -936.97172    46.757033   -890.21469    1674.6673   -4016.6929    2.1446077  0.041064125 
   21400   -937.93613    52.211905   -885.72423    1870.0411   -8675.3446    2.1340505   0.14233605 
   21500   -941.76394    48.232209   -893.53173    1727.5028   -11393.521     2.136098   0.12482723 
   21600   -939.90525    48.479463   -891.42579    1736.3585   -3454.8511    2.1533574   0.22985399 
   21700   -938.13668    51.375753   -886.76093    1840.0932    7727.9491     2.176168   0.36078859 
   21800   -944.91999    48.028722   -896.89126    1720.2147    8194.4726    2.1904343   0.27057293 
   21900   -946.43672    50.105224    -896.3315    1794.5874    7010.2492    2.1947462  0.051176006 
   22000   -944.26574    55.565095   -888.70064    1990.1402    9319.4735    2.1864039    0.1253846 
   22100   -940.04258    45.784544   -894.25804    1639.8363    474.70567    2.1658538   0.70720191 
   22200   -942.20692    54.893903   -887.31302    1966.1005   -7287.3988    2.1456051   0.45730504 
   22300   -939.20472    52.637008   -886.56772    1885.2667   -9109.0654    2.1325015   0.28555892 
   22400   -941.48564    45.550674   -895.93497    1631.4599   -13285.346    2.1319989    0.2609274 
   22500   -940.54304    50.366854   -890.17619     1803.958   -4193.5317    2.1485281    0.6179456 
   22600   -937.52395    52.635586   -884.88836    1885.2158    7904.4601    2.1713685   0.34380881 
   22700   -942.90674    47.683544    -895.2232    1707.8516    6465.6168    2.1851533   0.24004524 
   22800   -949.92712    55.053204   -894.87392    1971.8061    4772.9578    2.1887852   0.25203614 
   22900    -944.1356     52.15628   -891.97932    1868.0488    5497.6484    2.1815576    1.0333819 
   23000   -939.27502    54.153641   -885.12138     1939.587    3721.1036    2.1653551   0.22120598 
   23100   -939.97449    51.118444   -888.85604    1830.8773   -5214.7183    2.1435961   0.17974353 
   23200   -942.57011    48.955282   -893.61482    1753.4007   -13406.843    2.1295245  0.073407402 
   23300   -939.31792    51.641372   -887.67655    1849.6067   -8911.1935    2.1322337   0.28394842 
   23400   -937.72489    51.221853   -886.50304     1834.581   -2586.7743    2.1474713   0.39239482 
   23500   -939.85115    50.108143   -889.74301     1794.692    2597.0554    2.1659649     0.761861 
   23600   -943.26552    49.348304   -893.91722    1767.4773    5748.0948    2.1815997   0.23817846 
   23700   -942.32276    52.001949   -890.32081    1862.5212    9139.4269    2.1886495   0.20628396 
   23800    -946.6409    50.949424   -895.69148    1824.8236    4549.1271    2.1825373   0.22494345 
   23900   -948.19862     50.22193   -897.97669    1798.7674   -2472.8383    2.1693304   0.65723648 
   24000    -940.9547    50.883302    -890.0714    1822.4554   -1032.8812    2.1573722   0.31283742 
   24100   -937.67222    46.776092   -890.89613      1675.35   -3168.1977    2.1474605   0.27823493 
   24200   -941.62118    46.932122   -894.68906    1680.9384   -8059.9432    2.1448976   0.31033487 
   24300   -937.90666    53.324217   -884.58244    1909.8801    487.08223    2.1530674   0.15750919 
   24400    -940.1356     51.30872   -888.82688    1837.6923    1967.3262     2.163317   0.40502432 
   24500   -943.50517    49.426321   -894.07885    1770.2716    133.65808    2.1720403    0.4425261 
   24600   -942.47048    53.841796   -888.62869    1928.4179    5660.1998    2.1775678   0.31180269 
   24700   -945.47337    47.446522   -898.02685    1699.3623    1304.0439    2.1755178   0.20913363 
   24800   -945.23257    51.554551   -893.67802    1846.4971    1273.4315     2.170328   0.33450927 
   24900   -941.54111    51.578288   -889.96282    1847.3472   -202.60467    2.1640532   0.07083054 
   25000   -940.30196    53.700747   -886.60121     1923.366   -998.97943    2.1554407  0.037937678 
   25100   -941.79966    49.978313   -891.82134    1790.0419   -6903.1337    2.1478565   0.26532032 
   25200   -939.82342      51.4606   -888.36282    1843.1321   -5207.4912    2.1471069   0.56708075 
   25300   -946.57954     50.11337   -896.46617    1794.8792   -8729.8659    2.1526056   0.45740052 
   25400   -946.46759    50.391108   -896.07648    1804.8268   -2991.3674    2.1663282   0.17359575 
   25500    -942.1332    53.719143   -888.41406    1924.0249    7528.1822    2.1817979   0.54264995 
   25600   -944.58558    51.375942   -893.20964    1840.0999    6536.4944    2.1858472    0.1133894 
   25700   -947.56139    50.085086    -897.4763    1793.8661    1430.1509    2.1797219   0.18949183 
   25800   -938.08983    49.937757   -888.15207    1788.5893    4217.3993    2.1693841   0.26678473 
   25900   -941.09829    50.848094    -890.2502    1821.1943   -2529.6519    2.1548749   0.23897335 
   26000   -943.27736    50.664213   -892.61315    1814.6084   -9293.3372    2.1430338   0.53568109 
   26100   -939.25952    54.194108   -885.06541    1941.0364   -7528.9971    2.1407772   0.21024385 
   26200   -940.39952    50.272528   -890.12699    1800.5796   -6448.7652    2.1462293   0.11133147 
   26300   -945.30067    49.868747   -895.43192    1786.1177   -3299.3183    2.1594518   0.15837503 
   26400   -940.96417    51.575311   -889.38886    1847.2406    7186.5412    2.1766979   0.14753463 
   26500    -942.7479    46.675887   -896.07201     1671.761    7506.4238    2.1862858   0.41718357 
   26600     -944.413     50.04198   -894.37102    1792.3222    7941.9676    2.1864226   0.21793162 
   26700    -940.6901    51.485987   -889.20412    1844.0413    7036.5886    2.1771308   0.21318063 
   26800    -944.8369    46.775014   -898.06189    1675.3114   -5264.5242    2.1604138   0.24067653 
   26900   -941.98249    49.880054   -892.10243    1786.5226   -7104.9278    2.1478077  0.069013121 
   27000   -942.21945    52.673666   -889.54579    1886.5797   -7598.9425    2.1435988   0.20713643 
   27100   -940.24714    49.344411   -890.90273    1767.3379   -3237.7731    2.1481165   0.43061267 
   27200   -934.69204    50.073402   -884.61864    1793.4477    4294.8808     2.158677   0.17594144 
   27300   -946.83359    50.736059   -896.09753    1817.1816   -1736.7215    2.1674447    0.2013218 
   27400   -946.34432    51.214549   -895.12977    1834.3194    1482.0472    2.1762585   0.18763319 
   27500   -939.53987     50.18756   -889.35231    1797.5364    8178.3229    2.1817062   0.37008618 
   27600   -942.57639    55.019091   -887.55729    1970.5843    6374.5328    2.1767436   0.49442517 
   27700   -940.83771    44.187669   -896.65004    1582.6421    1693.9472    2.1640148   0.11396918 
   27800   -939.66385    48.484025   -891.17983    1736.5219   -2038.1883     2.152523   0.14853625 
   27900   -937.98238    45.977485    -892.0049    1646.7468   -4110.3859    2.1464872   0.28381245 
   28000   -939.28718    53.427057   -885.86012    1913.5634   -2436.7616    2.1482659   0.27243067 
   28100   -934.11958    47.107694   -887.01189    1687.2268     2566.473    2.1539588  0.075185809 
   28200   -946.79245    50.135142   -896.65731     1795.659   -3048.7564    2.1610075   0.12742715 
   28300    -943.4692    52.208671   -891.26053    1869.9253    1833.1403    2.1717192   0.30598729 
   28400   -940.48422    50.378587   -890.10564    1804.3783    7499.3929    2.1788914   0.29212072 
   28500    -947.1409    47.720834   -899.42007    1709.1872    659.82033     2.177468   0.33567457 
   28600   -946.32621    52.452366   -893.87384    1878.6535   -272.20165    2.1735287   0.28022496 
   28700   -941.09087    50.424899   -890.66598     1806.037    1604.0655    2.1667134   0.26278578 
   28800   -942.09807    49.048546   -893.04952    1756.7411    -2388.371    2.1580112   0.12177693 
   28900   -945.84813    47.780489   -898.06764    1711.3238   -8862.6777    2.1525494    0.3818832 
   29000   -946.99235    46.200014   -900.79233     1654.717   -6752.2954    2.1578148   0.32643006 
   29100   -940.84804    47.975674   -892.87236    1718.3147    3979.7693    2.1717508   0.26930619 
   29200   -942.59014    49.966417   -892.62372    1789.6158    6974.6432     2.182406   0.18358766 
   29300   -943.08602    47.532051   -895.55397    1702.4257    7415.8028     2.184292   0.15709897 
   29400   -949.73369     46.06216   -903.67153    1649.7795   -1753.5454    2.1786439  0.069476845 
   29500   -942.86047    49.128906   -893.73156    1759.6193    2405.4297    2.1722964   0.51489959 
   29600   -941.01997    48.524982   -892.49499    1737.9889    73.236339    2.1639707   0.33081227 
   29700   -938.42821    50.383999   -888.04421    1804.5721    901.23676    2.1557056   0.51809109 
   29800   -942.34434    48.751002   -893.59333    1746.0841   -7048.3997    2.1492013    0.1196651 
   29900   -943.51236    46.898521   -896.61384     1679.735   -6793.1945    2.1510323   0.12557018 
   30000    -939.2299    52.407306   -886.82259    1877.0396    2030.4442    2.1614293   0.10765971 
   30001   -939.33037    52.514218   -886.81615    1880.8689    2009.5715    2.1615372   0.10983222 
Loop time of 20.5256 on 1 procs for 30001 steps with 217 atoms

Performance: 63.143 ns/day, 0.380 hours/ns, 1461.635 timesteps/s
100.0% CPU use with 1 MPI tasks x no OpenMP threads

MPI task timing breakdown:
Section |  min time  |  avg time  |  max time  |%varavg| %total
---------------------------------------------------------------
Pair    | 19.999     | 19.999     | 19.999     |   0.0 | 97.43
Neigh   | 0.079145   | 0.079145   | 0.079145   |   0.0 |  0.39
Comm    | 0.12622    | 0.12622    | 0.12622    |   0.0 |  0.61
Output  | 0.0083943  | 0.0083943  | 0.0083943  |   0.0 |  0.04
Modify  | 0.27018    | 0.27018    | 0.27018    |   0.0 |  1.32
Other   |            | 0.04279    |            |       |  0.21

Nlocal:    217 ave 217 max 217 min
Histogram: 1 0 0 0 0 0 0 0 0 0
Nghost:    953 ave 953 max 953 min
Histogram: 1 0 0 0 0 0 0 0 0 0
Neighs:    4116 ave 4116 max 4116 min
Histogram: 1 0 0 0 0 0 0 0 0 0
FullNghs:  8232 ave 8232 max 8232 min
Histogram: 1 0 0 0 0 0 0 0 0 0

Total # of neighbors = 8232
Ave neighs/atom = 37.9355
Neighbor list builds = 134
Dangerous builds = 0
Total wall time: 0:00:20
