LAMMPS (3 Mar 2020)
Reading data file ...
  orthogonal box = (0 0 0) to (17.469 17.469 17.469)
  1 by 1 by 1 MPI processor grid
  reading atoms ...
  217 atoms
  read_data CPU = 0.00099673 secs
Reading potential file library.meam with DATE: 2012-06-29
Reading potential file LiSi.meam with DATE: 2020-11-07
1 atoms in group Li
Neighbor list info ...
  update every 1 steps, delay 10 steps, check yes
  max neighbors/atom: 2000, page size: 100000
  master list distance cutoff = 6
  ghost atom cutoff = 6
  binsize = 3, bins = 6 6 6
  2 neighbor lists, perpetual/occasional/extra = 2 0 0
  (1) pair meam/c, perpetual
      attributes: full, newton on
      pair build: full/bin/atomonly
      stencil: full/bin/3d
      bin: standard
  (2) pair meam/c, perpetual, half/full from (1)
      attributes: half, newton on
      pair build: halffull/newton
      stencil: none
      bin: none
Setting up Verlet run ...
  Unit style    : metal
  Current step  : 0
  Time step     : 0.0039238
Per MPI rank memory allocation (min/avg/max) = 9.27 | 9.27 | 9.27 Mbytes
Step PotEng KinEng TotEng Temp Press Density c_msdli[4] 
       0   -951.06911    50.256344   -900.81276         1800    -114182.3    1.8918427            0 
     100   -920.23731    36.833885   -883.40342    1319.2562   -83250.962    1.8918427  0.099072447 
     200   -902.95346    44.840809   -858.11265    1606.0351   -66380.763    1.8918427  0.076744487 
     300   -892.25015    48.303769   -843.94638    1730.0658   -53492.929    1.8918427    1.0795172 
     400   -904.03166    49.890456    -854.1412    1786.8952   -66434.509    1.8918427   0.27697576 
     500   -904.27877    48.863571    -855.4152    1750.1159   -68471.285    1.8918427   0.13427933 
     600   -898.80345    51.889703   -846.91375     1858.501   -60986.078    1.8918427    2.3146081 
     700   -902.90164    50.650309   -852.25133    1814.1104    -65879.71    1.8918427    18.450573 
     800   -906.04644    49.987957   -856.05849    1790.3873   -67315.449    1.8918427    16.769125 
     900   -900.25739    53.225024   -847.03236    1906.3273   -64780.844    1.8918427    20.003834 
    1000   -903.45546    52.067089   -851.38837    1864.8543   -65948.387    1.8918427    18.642808 
    1100     -901.205    49.695354   -851.50965    1779.9074   -62775.906    1.8918427     21.17733 
    1200   -893.51166    49.302764   -844.20889    1765.8462   -60398.828    1.8918427    13.642918 
    1300    -899.8027    50.478865   -849.32383    1807.9699   -63469.779    1.8918427     19.47512 
    1400     -902.613    49.797392   -852.81561     1783.562   -64832.154    1.8918427    19.141148 
    1500   -899.42628     54.55988    -844.8664     1954.137   -63330.174    1.8918427    14.320122 
    1600   -902.65314     51.64681   -851.00633    1849.8014   -64768.926    1.8918427     20.18069 
    1700   -902.59138    49.481914   -853.10947    1772.2627   -67071.055    1.8918427    16.396296 
    1800     -897.883    52.275841   -845.60716    1872.3311   -63064.405    1.8918427    16.022476 
    1900   -901.68973    46.126574   -855.56316    1652.0866   -66608.926    1.8918427    18.111295 
    2000   -902.52517    51.553226   -850.97194    1846.4496   -64804.395    1.8918427    17.253271 
    2100   -898.44504    50.804711   -847.64033    1819.6405   -63719.893    1.8918427      17.4033 
    2200   -897.78283     47.50491   -850.27793    1701.4536   -64279.359    1.8918427    19.361176 
    2300   -899.34484    48.149562   -851.19528    1724.5427    -67730.98    1.8918427    18.107034 
    2400   -902.11482    51.100145   -851.01468    1830.2219   -63559.956    1.8918427    15.118913 
    2500   -900.58897    47.939994   -852.64898    1717.0367   -66925.637    1.8918427    18.833554 
    2600   -898.10087    53.704387   -844.39648    1923.4964   -62121.794    1.8918427    19.322187 
    2700   -902.46787    49.711706   -852.75616     1780.493   -65558.464    1.8918427    34.893612 
    2800   -902.16121    49.709991   -852.45122    1780.4316    -68514.42    1.8918427    38.298075 
    2900   -900.07879     54.70565   -845.37314     1959.358       -62311    1.8918427    48.715036 
    3000   -900.83496    45.985754    -854.8492    1647.0429   -65058.472    1.8918427    34.796597 
    3100    -901.3871    48.718862   -852.66824     1744.933   -61935.213    1.8918427    40.221894 
    3200   -900.36761    53.143042   -847.22456     1903.391   -65221.022    1.8918427     47.47008 
    3300   -905.46649    47.463289    -858.0032    1699.9629   -67484.133    1.8918427    47.266757 
    3400   -903.15401    53.625194   -849.52882      1920.66   -65060.489    1.8918427    54.518027 
    3500   -900.95995    50.934689   -850.02526    1824.2958    -63547.37    1.8918427    51.277488 
    3600   -904.71971    47.671266   -857.04844    1707.4119   -67494.307    1.8918427    78.940074 
    3700   -903.93508    52.256195   -851.67888    1871.6274   -66075.047    1.8918427    103.86391 
    3800   -903.24059    52.744337   -850.49626    1889.1109   -66032.492    1.8918427    127.29162 
    3823    -901.6768    50.748191    -850.9286    1817.6162   -63804.616    1.8918427    103.23479 
Loop time of 2.20557 on 1 procs for 3823 steps with 217 atoms

Performance: 587.630 ns/day, 0.041 hours/ns, 1733.339 timesteps/s
100.0% CPU use with 1 MPI tasks x no OpenMP threads

MPI task timing breakdown:
Section |  min time  |  avg time  |  max time  |%varavg| %total
---------------------------------------------------------------
Pair    | 2.0389     | 2.0389     | 2.0389     |   0.0 | 92.44
Neigh   | 0.12534    | 0.12534    | 0.12534    |   0.0 |  5.68
Comm    | 0.019485   | 0.019485   | 0.019485   |   0.0 |  0.88
Output  | 0.0011908  | 0.0011908  | 0.0011908  |   0.0 |  0.05
Modify  | 0.016232   | 0.016232   | 0.016232   |   0.0 |  0.74
Other   |            | 0.004412   |            |       |  0.20

Nlocal:    217 ave 217 max 217 min
Histogram: 1 0 0 0 0 0 0 0 0 0
Nghost:    895 ave 895 max 895 min
Histogram: 1 0 0 0 0 0 0 0 0 0
Neighs:    3617 ave 3617 max 3617 min
Histogram: 1 0 0 0 0 0 0 0 0 0
FullNghs:  7234 ave 7234 max 7234 min
Histogram: 1 0 0 0 0 0 0 0 0 0

Total # of neighbors = 7234
Ave neighs/atom = 33.3364
Neighbor list builds = 228
Dangerous builds = 28
Total wall time: 0:00:02
