LAMMPS (3 Mar 2020)

    # ---------- Initialize simulation ---------------------
    units metal
    atom_style atomic
    dimension  3
    boundary   p p p
    read_data /home/modeler/RemLabs/Lab4/ProblemEC1_v5_size_4/temp_1230/lammps.data
  orthogonal box = (0 0 0) to (16.36 16.36 16.36)
  1 by 1 by 1 MPI processor grid
  reading atoms ...
  256 atoms
  read_data CPU = 0.0273741 secs

    pair_style eam
    pair_coeff * * /usr/share/lammps-stable/potentials/Ag_u3.eam
Reading potential file /usr/share/lammps-stable/potentials/Ag_u3.eam with DATE: 2007-06-11

    velocity  all create 1230 87287 dist gaussian

    # ---------- Describe computed properties------------------
    compute msdall all msd
    thermo_style custom step pe ke etotal temp press density c_msdall[4]
    thermo 100

    # ---------- Specify ensemble  ---------------------
    #fix  1 all nve
    #fix  1 all nvt temp 1230 1230 0.25
    fix 1 all npt temp 1230 1230 0.25 tchain 2 iso 1.0 1.0 1.0 pchain 2

    # --------- Compute RDF ---------------
    compute rdfall all rdf 100 1 1
    fix 2 all ave/time 1 125000 125000 c_rdfall[*] file /home/modeler/RemLabs/Lab4/ProblemEC1_v5_size_4/temp_1230/lammps.rdf mode vector

    # --------- Run -------------
    timestep 0.005
    run 500000
Neighbor list info ...
  update every 1 steps, delay 10 steps, check yes
  max neighbors/atom: 2000, page size: 100000
  master list distance cutoff = 7.55
  ghost atom cutoff = 7.55
  binsize = 3.775, bins = 5 5 5
  2 neighbor lists, perpetual/occasional/extra = 1 1 0
  (1) pair eam, perpetual
      attributes: half, newton on
      pair build: half/bin/atomonly/newton
      stencil: half/bin/3d/newton
      bin: standard
  (2) compute rdf, occasional, copy from (1)
      attributes: half, newton on
      pair build: copy
      stencil: none
      bin: none
Per MPI rank memory allocation (min/avg/max) = 3.744 | 3.744 | 3.744 Mbytes
Step PotEng KinEng TotEng Temp Press Density c_msdall[4] 
       0       -729.6    40.542444   -689.05756         1230    9889.5511    10.472245            0 
     100   -707.31503    21.818871   -685.49616    661.95345   -5707.1223    10.011382  0.065564994 
     200   -703.13638    21.644528   -681.49185    656.66414   -6615.7836    9.9348158    0.0921657 
     300   -703.10234    25.220806   -677.88153    765.16333    3550.2731    10.031214  0.085460593 
     400   -701.94218    27.518156   -674.42403    834.86163    1374.2467    9.9846378   0.09030968 
     500   -698.41005    27.359684   -671.05037    830.05384   -1507.3505    9.8978845   0.10439108 
     600   -697.08239    29.436348   -667.64604    893.05687   -1488.7371    9.8723458   0.11995537 
     700   -695.17826    30.826522   -664.35174    935.23276    2735.8394    9.8843982    0.1231429 
     800   -691.11944    30.142547   -660.97689    914.48193    11086.075    9.8972106   0.13051919 
     900   -691.23659    33.471454   -657.76514    1015.4762   -7460.8373    9.7039481   0.14624883 
    1000   -687.16707    32.940439   -654.22663    999.36598   -5530.0164     9.648108   0.17811768 
    1100   -686.95552    36.091161   -650.86436    1094.9544   -137.82546    9.6864887   0.18730882 
    1200   -684.97396    37.484123   -647.48983    1137.2149    3550.6497    9.7018946   0.19228106 
    1300    -683.9878    39.815124   -644.17268    1207.9341    2644.8896    9.6663865    0.1816115 
    1400   -681.42647    40.400654   -641.02582    1225.6983    -1522.597    9.5656686   0.20394942 
    1500   -677.16117    38.874597   -638.28657    1179.3999    -1697.339    9.5097674   0.27773132 
    1600   -677.30118    41.486432   -635.81475    1258.6392    4965.2115    9.5841676   0.24225841 
    1700   -680.93803    38.554433   -642.38359    1169.6866    13667.475    9.7364018    0.2155973 
    1800   -681.14614    42.793765   -638.35238    1298.3019   -6335.6198    9.5124128   0.22545638 
    1900   -675.25616    39.944877   -635.31128    1211.8706   -5671.7139    9.4148619   0.28299889 
    2000   -680.56738    39.866334   -640.70104    1209.4878   -5285.4867    9.5121939   0.25885173 
    2100   -682.64766    39.046769   -643.60089    1184.6233    2362.4064    9.6371891   0.19476978 
    2200   -678.49124    42.670598   -635.82065    1294.5652   -4137.2852    9.4894304   0.25310976 
    2300   -677.09749     39.38339    -637.7141    1194.8359    63.809535    9.5281444   0.24138811 
    2400   -678.23771    37.147288   -641.09042    1126.9958    3637.4579    9.5791848   0.21542882 
    2500   -679.13913    43.223264   -635.91587    1311.3322    5374.5189    9.6061612   0.20547634 
    2600   -677.17684    43.332146   -633.84469    1314.6356    3433.3173    9.5377818   0.26231041 
    2700   -679.91369     39.18518   -640.72851    1188.8225   -1300.7933    9.5557715   0.24340125 
    2800   -679.18933    40.076515   -639.11282    1215.8644    -890.0528    9.5387831    0.2212692 
    2900    -678.5902    45.409711   -633.18049    1377.6659    -7097.371    9.4401598   0.25901223 
    3000   -680.63914    41.296458   -639.34268    1252.8757    3412.4558    9.6101876   0.24287268 
    3100   -679.93015    39.153919   -640.77623    1187.8741   -277.58575    9.5627713   0.22570948 
    3200   -675.03415    40.807993   -634.22616    1238.0564   -2222.3347    9.4520043   0.26491392 
    3300   -677.12138    38.465196   -638.65618    1166.9792    -880.6743    9.5196426   0.25296966 
    3400    -681.0011    39.006966   -641.99414    1183.4158    7261.7926    9.6574564   0.17478092 
    3500   -676.47731    41.270424   -635.20688    1252.0858    5296.5993    9.5668643   0.23786703 
    3600   -679.84493    43.978769   -635.86616    1334.2532   -1780.2509    9.5505636   0.21403928 
    3700   -678.13709    37.854144   -640.28295    1148.4408    686.27676    9.5329634   0.23433087 
    3800    -676.8844    39.272544   -637.61185     1191.473   -7527.8405    9.4148517   0.24038562 
    3900   -671.98245    39.026112   -632.95634    1183.9966     1909.874     9.460638   0.26085344 
    4000    -683.2787    42.878441   -640.40026    1300.8708    8722.2834    9.7248949   0.17487454 
    4100   -679.69109    40.536556   -639.15454    1229.8214    12764.419    9.6957273   0.19233094 
    4200   -676.17319    40.523446   -635.64974    1229.4236   -1652.3326      9.47146   0.24695081 
    4300   -677.19818    42.489202   -634.70897    1289.0619   -8837.4448    9.4028811   0.26421653 
    4400   -680.56137     40.02362   -640.53775    1214.2596    2755.0492    9.5986088   0.24266618 
    4500   -681.00087    45.016377   -635.98449    1365.7327   -8827.8493    9.4799812   0.23927753 
    4600   -671.45974    40.620315   -630.83943    1232.3625    4941.4615    9.4831212   0.26564898 
    4700   -678.41879    40.136909   -638.28188    1217.6966   -2707.2908    9.4938781   0.25442272 
    4800   -677.04399    37.232219   -639.81177    1129.5725    -9138.411    9.4292186   0.26501087 
    4900   -679.00136    39.965909   -639.03545    1212.5087    3096.5918    9.5851538   0.25812517 
    5000   -676.52937    43.217574    -633.3118    1311.1596   -5198.4266    9.4343812   0.23134182 
    5100    -677.0747    43.540125   -633.53458    1320.9454   -7436.4353    9.4111771   0.28757063 
    5200   -680.08089    39.496162   -640.58473    1198.2573    3913.6397    9.6082536   0.22610507 
    5300   -680.67722    42.449935   -638.22728    1287.8705    2231.0103    9.5871322   0.22097709 
    5400   -677.40458     44.22938    -633.1752    1341.8564   -5669.2587    9.4409955   0.24355018 
    5500   -679.99425    39.904292   -640.08996    1210.6394     437.5141    9.5724682   0.22477979 
    5600   -679.34466     39.89128   -639.45338    1210.2446    3641.9176    9.5919041   0.21240704 
    5700   -678.27747    41.665241   -636.61223     1264.064   -5623.5283    9.4764028     0.244747 
    5800   -673.10739    41.449524   -631.65787    1257.5195     7780.695    9.5382615   0.27336422 
    5900   -680.62309    41.282363   -639.34073    1252.4481    3579.7203    9.6161063   0.21388603 
    6000   -679.33604    39.290097   -640.04594    1192.0056   -1854.5549    9.5446905   0.25413209 
    6100   -676.96216    38.728721   -638.23344    1174.9742   -5884.5487    9.4636941   0.23190736 
    6200   -679.14482     38.32135   -640.82347    1162.6152    11519.852    9.6813515   0.19578703 
    6300   -682.95844    36.906915   -646.05153    1119.7032    3918.0988    9.6741573   0.16982389 
    6400   -677.48739     38.26436   -639.22303    1160.8862   -8125.9305    9.4363009   0.25393159 
    6500   -675.89496    38.495692   -637.39927    1167.9044    2731.5897    9.5203825   0.27374278 
    6600   -676.59604    40.841129   -635.75491    1239.0617    9198.9524    9.6123216   0.25686972 
    6700   -686.07318    42.376211   -643.69697    1285.6339   -3371.1847    9.6342945   0.18102526 
    6800   -680.89534    38.917458   -641.97789    1180.7002   -7995.9217    9.5035636   0.21886894 
    6900   -677.27921    40.677812    -636.6014    1234.1069    3915.8301    9.5677538   0.24216696 
    7000    -676.1308    40.693243   -635.43756     1234.575    9724.6829    9.6144065   0.24294516 
    7100   -684.27507     39.91798   -644.35709    1211.0547   -2838.2587    9.6111973   0.19638907 
    7200   -682.60123    41.105537   -641.49569    1247.0834   -11712.868    9.4912868   0.20201344 
    7300   -679.09246    41.405498   -637.68696    1256.1838    1014.2976    9.5710369   0.21151899 
    7400   -681.26708    42.633182    -638.6339      1293.43     10587.58    9.6963452   0.19842895 
    7500   -686.40251    40.022512      -646.38     1214.226   -3086.0281    9.6466284   0.19025642 
    7600   -678.09093    37.677537   -640.41339    1143.0828   -1385.2831    9.5220848   0.24273741 
    7700   -676.20402    37.163582   -639.04044    1127.4901     -1489.37    9.4956185   0.23549968 
    7800   -679.83324    41.853329   -637.97991    1269.7704    1656.7243    9.5777734   0.20295816 
    7900   -684.47751    38.819877   -645.65763    1177.7398     1528.358    9.6593421   0.17990636 
    8000   -682.64528    41.032067   -641.61322    1244.8545   -2957.1153      9.57952   0.19904793 
    8100   -678.60555    41.321864   -637.28369    1253.6465   -1965.6436     9.519307   0.26857316 
    8200   -677.54456    40.052629   -637.49193    1215.1397    5375.0221    9.5732887   0.23786908 
    8300    -681.0828    38.403097    -642.6797    1165.0952   -5449.6731    9.5186873   0.20392855 
    8400   -675.93864     38.78974    -637.1489    1176.8254    -5270.126    9.4296025   0.26725743 
    8500   -675.78879    40.839169   -634.94962    1239.0022   -3277.3748    9.4548653   0.25317712 
    8600   -681.17126    41.458556   -639.71271    1257.7935    9067.8853    9.6846043   0.20284421 
    8700   -680.88397    39.479254   -641.40472    1197.7443     3286.934    9.6369261   0.22285626 
    8800   -675.81329    41.993884    -633.8194    1274.0346   -2213.1626    9.4597577   0.28093499 
    8900   -679.96867    42.924822   -637.04385    1302.2779   -1967.3135    9.5286983   0.23979855 
    9000   -678.70859    39.012468   -639.69612    1183.5827    3429.6738    9.5910945   0.21983382 
    9100   -679.51685    44.821561   -634.69529    1359.8223    -4032.221    9.4989991   0.23189924 
    9200   -671.67674     41.76354    -629.9132    1267.0463   -5864.0869    9.3606389   0.26463756 
    9300   -677.44654    39.308129   -638.13841    1192.5526    3580.4996    9.5501597   0.21469267 
    9400   -678.78932    40.734294   -638.05502    1235.8204    9599.0502    9.6423572    0.1934409 
    9500   -677.63109    38.166129   -639.46496     1157.906    7292.8888    9.5978892   0.23242669 
    9600   -681.22497    36.521632   -644.70334    1108.0143   -8033.5593    9.5239307   0.23611305 
    9700   -682.85837    37.118584   -645.73979    1126.1249   -4845.2174    9.5730796   0.21906884 
    9800   -680.86174    41.289906   -639.57183    1252.6769    1828.9764    9.5923448   0.22529278 
    9900   -677.85232    41.136186   -636.71613    1248.0133   -612.81158    9.5238442   0.24500967 
   10000   -676.11395    39.354791   -636.75916    1193.9683   -806.19372    9.4931892   0.24566218 
   10100   -681.64001    37.497592   -644.14242    1137.6235   -1726.5304     9.587576   0.20881521 
   10200   -680.11617    39.418828   -640.69734    1195.9111    3404.4782    9.6057675   0.20550246 
   10300   -678.56891    42.884565   -635.68434    1301.0566    2217.2001    9.5608803   0.22403707 
   10400   -682.07015     43.79338   -638.27677    1328.6288    779.43737    9.6037109   0.19854754 
   10500   -681.79591    39.200067   -642.59584    1189.2742   -1913.5956    9.5773451   0.19898825 
   10600    -676.8572     38.95652   -637.90068    1181.8853    512.99525    9.5141155   0.25179409 
   10700   -676.20051    41.024951   -635.17556    1244.6386   -7830.3753    9.3917888   0.25832342 
   10800   -677.95433    38.165792   -639.78854    1157.8958    855.90889    9.5442819   0.24742266 
   10900   -683.18718    40.559932   -642.62725    1230.5305    11459.795     9.757056    0.2130686 
   11000   -677.28053    42.411873   -634.86866    1286.7158   -6070.2786     9.462236   0.27044462 
   11100   -675.61113    40.199534    -635.4116    1219.5966   -3238.6305    9.4478385   0.27211802 
   11200   -681.04621    40.273792   -640.77241    1221.8495   -2063.9222    9.5547519   0.21239579 
   11300   -678.90705    37.556212   -641.35084     1139.402   -3263.1723    9.5155545   0.22730915 
   11400   -676.78743    42.546699   -634.24073    1290.8062    2908.9791    9.5400431   0.26617154 
   11500   -677.33091    39.602506   -637.72841    1201.4836    12970.965    9.6846737   0.21049491 
   11600   -681.09346    39.700767   -641.39269    1204.4647    6840.1474    9.6640088   0.19242545 
   11700   -676.87682    40.554472   -636.32235    1230.3649    5018.5604    9.5708672   0.23158952 
   11800   -676.46432    38.180999   -638.28332    1158.3571   -8300.5968    9.4117397   0.24489431 
   11900   -679.60043    35.925379   -643.67505    1089.9248   -6043.9317    9.4877503   0.24843878 
   12000   -676.32836    38.850251   -637.47811    1178.6613    4211.9033    9.5535406   0.23058542 
   12100   -679.25725    44.555768   -634.70148    1351.7585    4661.3374    9.5935793   0.21896453 
   12200   -681.43822    44.883408   -636.55481    1361.6986    4597.0497    9.6302137   0.22411164 
   12300   -684.28441    39.481069   -644.80334    1197.7994   -1787.9442     9.633355   0.19668943 
   12400   -677.87447     37.31685   -640.55762    1132.1401   -5343.4744    9.4871149   0.21914072 
   12500   -677.66258    41.365339   -636.29724    1254.9655   -4858.4091    9.4705361   0.23936435 
   12600   -682.31074    43.206088   -639.10465    1310.8111   -1605.2067    9.5812943   0.21127958 
   12700   -681.74523    38.346242   -643.39899    1163.3703   -3693.4126    9.5616861   0.22208671 
   12800   -678.36545    40.112425   -638.25302    1216.9538   -2310.8534    9.5166898   0.25234483 
   12900   -674.17758    40.011651   -634.16593    1213.8965    710.48911    9.4743323    0.2657736 
   13000   -679.72348     42.48691   -637.23657    1288.9923   -9169.4006    9.4627392   0.27303014 
   13100   -681.92066    40.189759    -641.7309       1219.3    8892.8906    9.6901588   0.23627906 
   13200    -676.6942    40.230582   -636.46362    1220.5385   -1430.1363    9.4928918   0.25025596 
   13300   -673.04757    39.167283   -633.88029    1188.2796   -2286.2185    9.4327081   0.25960924 
   13400   -679.59521     38.02241    -641.5728    1153.5457    2720.9773    9.6032478   0.21310698 
   13500   -679.63594    40.513647   -639.12229    1229.1263    4303.8824    9.6011857   0.22400488 
   13600   -675.14034    41.174682   -633.96565    1249.1812    2053.5642    9.4962981   0.24370922 
   13700   -678.24881    37.274524   -640.97429    1130.8559    3935.3991    9.5861501   0.21921587 
   13800     -682.725    42.395696   -640.32931     1286.225   -10659.986    9.4918925   0.20877397 
   13900   -677.26914    42.087201   -635.18194    1276.8657    5568.4398    9.5907043   0.23739448 
   14000   -677.01312    43.829518    -633.1836    1329.7251    17969.865    9.7151683    0.2347175 
   14100   -679.91568    40.016279    -639.8994    1214.0369    6535.8598    9.6427378   0.21524772 
   14200   -680.30036    38.045451   -642.25491    1154.2448   -4987.9696    9.5201946    0.2139281 
   14300   -678.54095    40.313466   -638.22748    1223.0531    2720.5319    9.5757986   0.21972362 
   14400   -677.87695    40.513128   -637.36382    1229.1106    1322.3161    9.5386229   0.24074328 
   14500   -673.85563    40.972534   -632.88309    1243.0483    9461.4214    9.5461241   0.22926883 
   14600   -675.94739    43.886328   -632.06106    1331.4487   -3395.8661    9.4558327   0.29579477 
   14700   -677.64547    40.262217   -637.38325    1221.4983    8380.0261    9.6291712   0.22629486 
   14800   -681.30541    41.927305   -639.37811    1272.0147    4333.9062    9.6252063   0.19045665 
   14900   -680.50731    39.997205   -640.51011    1213.4582    -6875.692    9.5024773   0.21157214 
   15000    -674.0287    39.524325   -634.50438    1199.1117   -326.33827    9.4548971   0.26484091 
   15100   -679.22178    40.158413   -639.06337     1218.349    976.57964    9.5645261   0.22919972 
   15200   -680.37701    37.887658   -642.48935    1149.4576   -6341.2242     9.519739   0.22509741 
   15300    -678.4664    42.274941   -636.19146    1282.5615    1944.2384    9.5483336   0.21587056 
   15400   -677.90229     39.68985   -638.21244    1204.1335    11517.792     9.661122   0.24345632 
   15500   -679.82795    36.698949     -643.129    1113.3938   -544.80186     9.560569   0.24513685 
   15600   -674.54661    38.298897   -636.24771     1161.934   -10499.025     9.355056   0.29078446 
   15700   -677.29404    41.999905   -635.29414    1274.2173   -2582.9527    9.4779626   0.26905468 
   15800   -678.09031    39.307027   -638.78328    1192.5192      1682.64     9.570114   0.25106971 
   15900   -678.21511    37.005817   -641.20929    1122.7038    5719.2528    9.6136346   0.22808949 
   16000   -682.89464     33.99792   -648.89672    1031.4484   -5516.3097    9.5743484   0.22381998 
   16100   -681.23609     38.23204   -643.00405    1159.9056   -5625.4758    9.5393266   0.20847159 
   16200   -680.83271    41.973531   -638.85918    1273.4171    9347.7584    9.6815825   0.19967983 
   16300   -679.58797    43.383244   -636.20472    1316.1858    3902.5413    9.6058708   0.22056856 
   16400   -674.83554    40.879339    -633.9562    1240.2209    3050.4288    9.5203031   0.25470166 
   16500   -679.00157    39.658755   -639.34281    1203.1901   -493.67317    9.5413103   0.21201009 
   16600   -679.46946    38.454641   -641.01482     1166.659    4778.7946    9.6171556   0.20856837 
   16700    -680.6661    43.160438   -637.50566    1309.4262   -451.92146      9.56916   0.25247887 
   16800   -675.08679    41.808042   -633.27875    1268.3964    3384.8131    9.5234289   0.25216335 
   16900   -679.54051    40.019021   -639.52149    1214.1201    -1756.965    9.5536667   0.21334172 
   17000   -679.93469    39.505015   -640.42967    1198.5259   -2372.2324    9.5454003   0.21482669 
   17100   -681.27196    44.052941   -637.21902    1336.5035   -7746.3594    9.4946479   0.21140167 
   17200   -679.93495    40.971903   -638.96305    1243.0292   -2548.6484    9.5299263   0.24757439 
   17300   -685.84125    39.808485   -646.03277    1207.7327     3535.801    9.7177053   0.16846377 
   17400   -679.30516    38.130526   -641.17463    1156.8258   -1486.3466    9.5441865   0.23395036 
   17500   -678.82168    39.986782    -638.8349     1213.142   -5678.0222    9.4933207   0.25195183 
   17600   -678.69751    39.063816    -639.6337    1185.1405   -2814.2021    9.5229041   0.25868114 
   17700   -675.56978    42.803416   -632.76637    1298.5946    4413.7125    9.5379971    0.2446068 
   17800   -677.89387    41.782199   -636.11167    1267.6124    1763.3013    9.5581791   0.21733583 
   17900   -680.56033    40.139156   -640.42117    1217.7648   -5283.0429    9.5234469   0.22586659 
   18000   -679.30954    40.950648   -638.35889    1242.3843    1560.9079    9.5751734    0.2221973 
   18100   -678.08128     42.14733   -635.93395    1278.6899   -1504.1907    9.5075347   0.24869011 
   18200   -673.52221    44.567411    -628.9548    1352.1117    3575.0601    9.4924384   0.26041023 
   18300   -677.57317    42.520501   -635.05267    1290.0114    4877.4695    9.5566274   0.24384105 
   18400   -678.08266    39.947848   -638.13481    1211.9608   -730.85381    9.5252972   0.24833633 
   18500   -681.10136    40.505031   -640.59633    1228.8649   -3801.0058    9.5541646   0.25904094 
   18600    -683.2167    36.935061   -646.28164    1120.5571    1418.7151    9.6580436   0.19927419 
   18700   -684.38149    39.380057   -645.00143    1194.7348    4771.7934    9.6936416   0.17311851 
   18800   -678.32232     38.62439   -639.69793    1171.8089    797.61709    9.5362889   0.20446772 
   18900   -679.42756    41.125212   -638.30235    1247.6803   -10080.539    9.4527715   0.23168197 
   19000    -675.9774    40.721138   -635.25627    1235.4213     3513.392    9.5333865   0.26394534 
   19100   -675.32283    42.447586   -632.87524    1287.7993    5446.0617    9.5452532   0.25557488 
   19200   -676.73349     37.20066   -639.53283     1128.615    1560.1175    9.5469346   0.22817134 
   19300   -680.23419    40.598461   -639.63573    1231.6995   -7206.0964    9.4806854   0.22877237 
   19400   -676.38995     43.68678   -632.70317    1325.3947   -3460.8275    9.4669353   0.23752379 
   19500   -676.06629    42.559891    -633.5064    1291.2065      3228.74     9.544075   0.25634687 
   19600   -680.29573    41.455613   -638.84012    1257.7042   -8423.8936    9.4836034   0.25325977 
   19700   -678.43644    38.494647    -639.9418    1167.8728   -2874.4993    9.5225416   0.28766592 
   19800   -675.59352    43.272565   -632.32096     1312.828   -6610.8755    9.4178445    0.2880225 
   19900   -679.03481      42.5227   -636.51211    1290.0781    5972.1043    9.6125121   0.24514559 
   20000   -679.80605    38.847216   -640.95884    1178.5692   -3287.6366    9.5474602   0.22063125 
   20100   -676.66414    38.344168   -638.31997    1163.3074   -7180.6598    9.4441724   0.23560901 
   20200    -673.5373    40.913217   -632.62408    1241.2487   -3047.2892    9.4097698   0.30927984 
   20300    -671.5257    41.837745   -629.68796    1269.2976    15621.121    9.5770554   0.26567065 
   20400   -680.82361    43.662898   -637.16072    1324.6701   -876.25111    9.5481478   0.23138619 
   20500   -678.02018    39.975177   -638.04501    1212.7899    551.62192    9.5321258   0.24485745 
   20600   -680.52422    42.807672   -637.71655    1298.7238   -2684.1071    9.5442738   0.21761029 
   20700   -680.60055    41.920906   -638.67964    1271.8206    11258.091    9.6911731   0.17217881 
   20800     -685.049    38.477764   -646.57124    1167.3605  -0.73895489    9.6613187   0.16411073 
   20900   -679.37408    37.877394   -641.49668    1149.1462    230.01702    9.5681915   0.20779428 
   21000   -679.15941    41.175476   -637.98394    1249.2053    913.39881    9.5578882    0.2060898 
   21100   -679.64178    42.969308   -636.67248    1303.6276   -488.94377    9.5593245   0.22274118 
   21200   -676.88303    42.040705   -634.84233    1275.4551     11027.72    9.6193168   0.23776664 
   21300   -672.73382    46.690887   -626.04293     1416.535    6120.4244    9.4947221   0.25747663 
   21400    -677.5307    44.876896   -632.65381    1361.5011    8838.5736    9.6073793   0.22634213 
   21500   -677.88796    41.146281   -636.74168    1248.3196     3433.047    9.5609667   0.25357795 
   21600   -678.03979    39.111316   -638.92847    1186.5816   -7290.1893    9.4498658   0.24655418 
   21700   -680.03099    39.266521   -640.76446    1191.2903   -4916.3543    9.5332328   0.24133356 
   21800    -675.8895    43.814141   -632.07535    1329.2586   -2183.5234    9.4639268   0.26493349 
   21900   -678.95444    42.192631    -636.7618    1280.0643    2912.2628    9.5762187   0.21637262 
   22000   -681.79263    41.404781   -640.38785    1256.1621    2726.1375    9.6315761   0.21328842 
   22100    -679.1555    42.153754   -637.00175    1278.8848    -1704.172    9.5204382   0.22847724 
   22200   -675.00198    41.076292   -633.92568    1246.1962    1320.0925    9.4784317   0.27286354 
   22300    -681.5449     40.42978   -641.11512    1226.5819   -826.72719    9.5852327   0.20604221 
   22400   -680.40717    39.853011   -640.55415    1209.0836    -483.1713    9.5660228   0.20190787 
   22500   -675.46935    40.991003   -634.47834    1243.6086     -1554.66    9.4731674   0.30911618 
   22600   -675.96688    41.191569   -634.77531    1249.6935   -2721.8204    9.4590862   0.26539831 
   22700   -679.48246    39.046181   -640.43628    1184.6055    4295.7953    9.6109743   0.20444451 
   22800   -680.27183    42.156405   -638.11543    1278.9653    3349.3421     9.597998   0.21540299 
   22900   -673.36086    41.888373   -631.47249    1270.8336    -5124.001    9.3865563   0.29348587 
   23000   -676.55528    39.768106   -636.78718    1206.5077   -4922.5477    9.4479254   0.27420507 
   23100   -676.31271    36.695056   -639.61766    1113.2757    11695.856    9.6381169   0.23604885 
   23200   -676.27085    40.492355   -635.77849    1228.4804    5412.0812    9.5601606   0.23225944 
   23300   -676.05839    45.053359   -631.00503    1366.8547    -8144.251    9.3970039   0.27281631 
   23400   -678.46142    39.050392   -639.41102    1184.7333    1098.0613    9.5483763   0.23890779 
   23500   -682.45243    43.123717   -639.32871    1308.3121   -2342.9763    9.5739523   0.20597811 
   23600   -676.47791    40.083398   -636.39451    1216.0732    7077.8115    9.5955576   0.26320011 
   23700   -672.31809    42.482687   -629.83541    1288.8642   -4629.8348    9.3938838   0.32894653 
   23800   -677.47841    40.251451   -637.22696    1221.1717   -8702.0554    9.4203641   0.24797845 
   23900   -681.25324    42.545662   -638.70758    1290.7748   -3946.4394    9.5384248   0.21494939 
   24000   -679.49018    41.045929   -638.44425     1245.275    11068.873    9.6688386   0.19910943 
   24100    -677.4845    44.828469   -632.65603    1360.0319    996.40403    9.5188161   0.21805442 
   24200   -674.35952    44.512534   -629.84698    1350.4468    3493.8238    9.4980803   0.26524222 
   24300   -676.19544    40.147572   -636.04787    1218.0201   -4993.8557     9.444828   0.26821875 
   24400   -675.92245    37.457575   -638.46487    1136.4095   -691.48201    9.5122063   0.24791036 
   24500   -679.39082    38.683031   -640.70779    1173.5881    11558.184    9.6816992   0.19280211 
   24600   -681.44082    38.699104   -642.74172    1174.0757    2998.1069    9.6325209   0.20817001 
   24700   -684.31032    33.870416   -650.43991    1027.5802   -1525.9843    9.6412282   0.18008781 
   24800   -680.63527     36.80668   -643.82859    1116.6622   -647.97919    9.5704765   0.21093006 
   24900   -679.53855    39.216598   -640.32195    1189.7757    4136.8196    9.6050423   0.21222814 
   25000    -679.7757    42.542152   -637.23355    1290.6683    42.880416     9.557137   0.21684027 
   25100    -678.9053    44.969053   -633.93624     1364.297    2596.5922    9.5603624   0.26095272 
   25200   -680.09208    38.920391   -641.17169    1180.7892   -1163.2569    9.5627553   0.23684926 
   25300   -678.15254    35.596906   -642.55563    1079.9594    670.09489    9.5481127   0.21570079 
   25400   -677.24527    39.517979   -637.72729    1198.9192    2128.4129    9.5471264    0.2238575 
   25500   -678.27267    41.987638   -636.28503    1273.8451    2006.8522    9.5443324   0.20550809 
   25600   -680.57938    36.680422   -643.89895    1112.8317    8927.6791    9.6949098   0.20322813 
   25700    -682.0457    41.541869   -640.50383    1260.3211   -4171.7752    9.5383836   0.21465444 
   25800   -677.58694    40.259462   -637.32747    1221.4147   -3833.5657    9.4860608   0.24772116 
   25900   -678.37163    37.317399   -641.05423    1132.1567    -6508.152    9.4716218   0.23592007 
   26000   -682.18483    37.189312   -644.99552    1128.2707   -2723.9525    9.5855915   0.18198044 
   26100   -675.55349    39.060733   -636.49276     1185.047    9457.5572    9.5905438   0.22766862 
   26200   -680.20882     43.02014   -637.18868    1305.1697    2883.0443    9.5951144   0.19898617 
   26300   -680.17383     39.78422   -640.38961    1206.9965    -430.5623    9.5768087   0.20226812 
   26400   -681.49144    38.138587   -643.35285    1157.0704   -4738.4038    9.5506574   0.20662135 
   26500   -675.72684    40.718432   -635.00841    1235.3392   -2424.0588    9.4553738   0.24371368 
   26600   -678.34164     42.39248   -635.94916    1286.1274     2335.343    9.5531491   0.23347881 
   26700   -681.10933    38.822965   -642.28637    1177.8334   -3435.9291    9.5406917   0.22391297 
   26800   -676.98436    38.131121   -638.85324    1156.8439    868.08002    9.5178909   0.25962904 
   26900   -674.66011    40.012011    -634.6481    1213.9074    418.11378    9.4722949   0.25593027 
   27000   -680.04527    41.298329   -638.74694    1252.9325   -3669.7495    9.5194422   0.23026999 
   27100   -681.15812    37.621514   -643.53661    1141.3831    670.95497    9.5939591   0.21357696 
   27200     -679.198    42.567547   -636.63045    1291.4387   -8985.9275    9.4546593   0.24548925 
   27300   -677.32609    41.358354   -635.96774    1254.7535    1754.6992    9.5205332   0.24784852 
   27400   -683.15407    40.983326   -642.17075    1243.3757     10602.84    9.7375943   0.18690227 
   27500   -682.53512    42.645599   -639.88952    1293.8067   -1968.4567    9.5966327   0.19483178 
   27600    -676.2306     42.26719   -633.96341    1282.3263   -3425.9606    9.4598357   0.25432191 
   27700   -680.26508    42.870179    -637.3949    1300.6201    5540.6275    9.6225596    0.2417126 
   27800   -681.17969    39.602433   -641.57726    1201.4814    8798.0471    9.6831563   0.21459128 
   27900   -678.56146    43.195205   -635.36625     1310.481   -3344.0531    9.4870997   0.27260318 
   28000   -676.92771    41.877142   -635.05057    1270.4928    2468.5441     9.540387   0.23991404 
   28100   -684.92848    42.441516   -642.48697    1287.6151     1993.544    9.6604082   0.17350294 
   28200   -679.48506    40.192035   -639.29303    1219.3691    1951.1785    9.5750037   0.20651662 
   28300   -677.55439    40.359199    -637.1952    1224.4406   -3685.5286    9.4977703   0.23932642 
   28400    -680.0878    41.143132   -638.94467     1248.224   -2716.8553    9.5282933     0.235799 
   28500     -685.543    39.274048   -646.26895    1191.5187    1955.9326    9.6746451   0.17148778 
   28600   -686.04234    43.042855   -642.99948    1305.8589    6047.5363    9.7386595   0.19457891 
   28700   -681.16264    41.766811   -639.39583    1267.1455   -2558.5341    9.5555792   0.21477938 
   28800   -676.40776    38.161133   -638.24663    1157.7544   -327.91434    9.5102799   0.24498137 
   28900    -678.5315     43.03605   -635.49545    1305.6524    5829.4966    9.5934748   0.22897189 
   29000   -671.43179    43.563181   -627.86861    1321.6448    3680.8521    9.4513457   0.31582736 
   29100   -675.56068    40.188619   -635.37206    1219.2654   -1861.5856    9.4583925   0.27608509 
   29200   -679.93813    42.121165   -637.81696    1277.8961    2723.7262    9.6041929    0.1883432 
   29300   -683.64637     41.25946   -642.38691    1251.7532    6139.3552    9.6991175   0.19625575 
   29400   -679.35992    42.538807   -636.82112    1290.5668   -9862.6672     9.448004   0.24700848 
   29500   -675.66211    40.596732   -635.06537     1231.647   -2227.2825     9.450526   0.26239013 
   29600   -681.35153     39.60435   -641.74718    1201.5396    6541.5731    9.6767508   0.17906675 
   29700   -682.50384    41.765051   -640.73879    1267.0921    3429.9211    9.6445788    0.1936139 
   29800   -678.19389    42.188922   -636.00497    1279.9518   -9634.0047    9.4184231   0.23627852 
   29900   -681.62339    40.879962   -640.74343    1240.2398    3436.7486    9.6217017   0.20829424 
   30000   -685.44961    42.444572   -643.00503    1287.7078    4865.9163    9.7130673   0.17078028 
   30100   -679.10999    41.798658   -637.31133    1268.1117   -4279.9642    9.4922041   0.22710197 
   30200   -678.66169    40.790843   -637.87084    1237.5361   -9824.3731    9.4356742   0.24643021 
   30300   -684.18351    40.221591   -643.96192    1220.2658   -1368.4965    9.6156057   0.20819429 
   30400    -679.3764    37.733754   -641.64265    1144.7883   -326.08118    9.5569945   0.24041602 
   30500   -678.10737    40.991389   -637.11598    1243.6203   -2196.4058    9.5021308   0.25407117 
   30600   -681.18902    42.490514   -638.69851    1289.1016   -6464.2875    9.5048235   0.21605331 
   30700   -685.65502     40.68862    -644.9664    1234.4348    3096.9568    9.7040494   0.17608707 
   30800   -681.46722    42.590508   -638.87671    1292.1353    4617.0338    9.6514485   0.20334279 
   30900   -680.58043    43.164958   -637.41548    1309.5633   -10206.074    9.4710529   0.22772951 
   31000   -677.77452    39.246945   -638.52758    1190.6964     1910.669    9.5407744   0.22935234 
   31100   -674.73715    41.396563   -633.34059    1255.9127    8361.9806    9.5666077    0.2466451 
   31200    -674.0102    42.851159   -631.15904    1300.0431      3444.88    9.4857666   0.28422018 
   31300   -679.56593     41.37516   -638.19077    1255.2634   -6863.7748    9.4791901   0.24698754 
   31400   -680.87574    42.682972   -638.19277    1294.9406   -2204.7464     9.546767   0.23670056 
   31500   -675.00451    41.016621   -633.98789    1244.3858   -1053.0252     9.467202   0.27407503 
   31600   -674.76044    43.509278   -631.25116    1320.0095   -11291.423     9.352937   0.27279764 
   31700   -677.34605    40.086452    -637.2596    1216.1658    926.16819    9.5290167   0.23619632 
   31800   -680.09442    41.317701   -638.77672    1253.5202    7103.3599    9.6382012   0.20186506 
   31900   -686.04072    43.079441   -642.96128    1306.9689    7510.8535    9.7461598    0.1717684 
   32000    -684.2844    39.675435   -644.60897    1203.6962   -798.12596    9.6413494   0.18696005 
   32100   -677.51641    39.598688   -637.91772    1201.3678   -657.30408    9.5167809   0.22198141 
   32200   -678.04656    39.638248   -638.40831     1202.568   -4602.3007    9.4910455   0.24964712 
   32300   -678.00268    42.693545   -635.30914    1295.2613   -2515.4571    9.4949988   0.25419832 
   32400   -673.56271    42.611144   -630.95157    1292.7614    7838.9974    9.5280966   0.26029875 
   32500   -684.62163    45.167584   -639.45405    1370.3202    1870.8775    9.6540502   0.19906453 
   32600   -678.70496    39.661774   -639.04319    1203.2817    2030.3751    9.5772578   0.23393534 
   32700    -677.2568    43.125322   -634.13148    1308.3608   -5907.3466     9.440973   0.27600537 
   32800   -675.72771    44.595517   -631.13219    1352.9644   -2852.2239    9.4436993   0.25205541 
   32900   -677.60968    38.379414   -639.23026    1164.3767    8328.2855     9.627176   0.22976501 
   33000   -680.52611    40.642528   -639.88358    1233.0364   -5580.0298    9.5187994    0.2447658 
   33100   -676.50251    41.953947   -634.54856     1272.823   -3135.4155    9.4794769   0.23934353 
   33200   -679.99409    45.214006   -634.78008    1371.7285     2173.995    9.5775207   0.23977837 
   33300   -681.47951    38.550765   -642.92875    1169.5753    9978.2678    9.6991652   0.18681562 
   33400   -676.70151    37.069083   -639.63243    1124.6232   -550.71906    9.5165028   0.23697742 
   33500   -673.25593    37.699339   -635.55659    1143.7442   -2514.9007    9.4279475   0.26404462 
   33600   -679.83142    40.094449   -639.73697    1216.4085   -9040.0243    9.4640404   0.25936401 
   33700   -684.74006    40.995274   -643.74479    1243.7382   -40.147252    9.6554678   0.19040059 
   33800   -677.28724    42.006598   -635.28064    1274.4203   -3737.9273    9.4677134   0.24456139 
   33900    -679.0358    41.505159   -637.53064    1259.2074   -2086.8019    9.5333709   0.21619886 
   34000   -679.98012    39.472184   -640.50793    1197.5298    6861.8336    9.6238208   0.20975219 
   34100   -675.48135     40.61359   -634.86776    1232.1584   -7944.2925    9.4156767   0.26144225 
   34200   -674.05596    41.684815   -632.37115    1264.6579   -5952.5397    9.3939328   0.24915457 
   34300   -681.28631    42.040736   -639.24557     1275.456    5250.1182    9.6414284   0.21459778 
   34400   -680.79994    42.323969   -638.47597    1284.0489    6281.5754    9.6578805   0.19935901 
   34500   -674.62855    39.924522   -634.70403    1211.2531     3069.546    9.5173696   0.26369278 
   34600   -673.49049    43.335733   -630.15476    1314.7444   -4913.0744    9.3877617   0.28598685 
   34700   -676.35639    37.772074   -638.58431    1145.9509    12375.009      9.64219    0.2260147 
   34800    -679.0545    39.495175   -639.55932    1198.2273    4333.6083    9.6033278   0.21063589 
   34900   -675.93497    41.419497   -634.51548    1256.6085   -5029.1646    9.4450407   0.25114575 
   35000   -675.38976    40.502434   -634.88733    1228.7861    1212.7781    9.4796744   0.23882689 
   35100   -681.56166    40.350749   -641.21091    1224.1842    5767.5781    9.6527821   0.19115807 
   35200   -677.37305    40.278461   -637.09458    1221.9911    5242.7806    9.5875001    0.2168847 
   35300   -676.98508    42.426655   -634.55842    1287.1643   -3522.7982    9.4770279   0.27134496 
   35400   -681.48744     39.17932   -642.30812    1188.6447   -6123.4525     9.532399   0.21852025 
   35500   -679.90291    39.207958   -640.69495    1189.5136   -4282.1565      9.52239   0.20666558 
   35600   -676.09356     42.10793   -633.98563    1277.4946    6246.0352    9.5621864   0.21785227 
   35700   -677.12466    40.806522   -636.31813    1238.0117    16018.862    9.7171512   0.20290471 
   35800   -681.47829    40.218668   -641.25963    1220.1771   -390.56651    9.6011731   0.22137912 
   35900    -675.8409    39.911133   -635.92977    1210.8469   -6030.7883    9.4253009   0.29774718 
   36000   -677.20714    42.722465   -634.48467    1296.1387   -507.02375    9.5195692   0.24091417 
   36100   -678.84579    39.302351   -639.54344    1192.3773    3254.3349      9.57768   0.23314904 
   36200   -676.32524    40.532765   -635.79248    1229.7063   -5811.3617    9.4337122   0.26997331 
   36300   -674.14911     41.13964   -633.00947    1248.1181    -10245.16     9.343825   0.25619445 
   36400   -678.85134     40.16933   -638.68201    1218.6802    2970.0374    9.5830483   0.22088907 
   36500   -682.46342    41.816598   -640.64682     1268.656    3671.7262    9.6302737   0.21339037 
   36600   -677.27741    43.648092   -633.62932    1324.2209   -537.57433    9.5085437   0.23817957 
   36700   -676.70518    39.082866   -637.62231    1185.7185   -7331.0826     9.439135     0.295933 
   36800   -683.08011    40.692556   -642.38755    1234.5542   -2475.1528    9.5684654    0.2012831 
   36900   -682.64335    43.169444    -639.4739    1309.6994   -4527.8817    9.5486237   0.20621517 
   37000   -677.07203    42.780602   -634.29142    1297.9025   -1577.6879    9.4885534   0.26638737 
   37100   -678.44106    40.382532   -638.05853    1225.1485   -4030.4886    9.4968707   0.24235687 
   37200   -682.09772       40.048   -642.04972    1214.9993    7122.8834    9.6765634   0.19081752 
   37300   -677.31108    41.997239   -635.31384    1274.1364    3141.7165     9.551612   0.23719529 
   37400   -677.48176    41.248172   -636.23359    1251.4108   -10660.148    9.4116325   0.26025891 
   37500   -680.11135    39.555543   -640.55581    1200.0588   -9968.0967    9.4608371   0.22809199 
   37600    -682.0325     41.53841   -640.49409    1260.2162    5276.3929    9.6638657   0.19384496 
   37700   -678.37893    45.195038   -633.18389    1371.1531    2166.0058    9.5404422    0.2489703 
   37800   -679.09605    40.597433   -638.49862    1231.6683   -6425.0545    9.4740693   0.24172222 
   37900   -676.68206     37.61107   -639.07099    1141.0663    73.208175    9.5016293   0.25547641 
   38000   -676.75789     44.47342   -632.28447    1349.2602   -6768.0375    9.4287214   0.26221024 
   38100   -678.88936    40.568989   -638.32037    1230.8053   -2713.8709    9.5243031     0.237106 
   38200   -680.24937    38.006591   -642.24278    1153.0658    1970.3005    9.6098221   0.23031759 
   38300   -678.40956    42.611706   -635.79785    1292.7784   -1662.5548    9.5069273   0.24020205 
   38400   -676.11237    41.365332   -634.74704    1254.9652    1871.4537    9.5006889   0.26982465 
   38500   -682.38503    40.341093   -642.04393    1223.8913   -2133.1126    9.5977293   0.21146061 
   38600   -677.99541     37.04067   -640.95474    1123.7612    5895.7114    9.6150655   0.23775683 
   38700   -679.86132    44.283384   -635.57794    1343.4948   -3883.2561    9.5171822   0.19557914 
   38800   -684.30702    44.941812   -639.36521    1363.4705    7518.3888    9.7010929   0.17855695 
   38900   -681.17902    40.624003   -640.55502    1232.4744    1017.6108    9.6027658   0.21643901 
   39000   -674.24026    39.920604   -634.31965    1211.1343   -1920.1722    9.4581378   0.28573115 
   39100   -677.22957    37.661578   -639.56799    1142.5986    -1769.531    9.4926346   0.27924091 
   39200   -677.63472    36.681499   -640.95322    1112.8644   -2361.5977    9.5039215   0.24832839 
   39300   -675.24738    41.828123   -633.41926    1269.0057    3342.3185    9.5061183   0.25309079 
   39400   -677.73891    41.191181   -636.54773    1249.6817    651.05458    9.5258581   0.21631779 
   39500   -678.50999    38.426185   -640.08381    1165.7957   -2392.8189    9.5142821   0.22811784 
   39600   -678.45022    42.519578   -635.93064    1289.9834   -4729.5204    9.4768748   0.24506097 
   39700    -674.2355    42.183906   -632.05159    1279.7996    1767.5174    9.4588784   0.29781226 
   39800   -678.64922    37.664679   -640.98454    1142.6927    4185.3635    9.6010226     0.224893 
   39900   -678.90969    38.831558   -640.07813    1178.0941   -1085.4052    9.5227552   0.24651325 
   40000   -678.82371    42.380732   -636.44298     1285.771   -10075.483    9.4303623   0.26229954 
   40100   -677.55712    42.521716   -635.03541    1290.0483    4532.9504      9.54008   0.24523669 
   40200   -681.68725    38.606298   -643.08095    1171.2601   -3328.3874    9.5522792   0.20694565 
   40300   -679.68829    40.613461   -639.07483    1232.1546   -10202.651    9.4436804   0.21939347 
   40400   -681.10205    44.335035   -636.76702    1345.0618    576.62065    9.5759083   0.23237469 
   40500   -674.29626    43.521642   -630.77462    1320.3846    3912.6128    9.4972231   0.26558938 
   40600   -672.76417      40.9161   -631.84807    1241.3362    728.81127    9.4415315   0.29721308 
   40700   -678.09487     39.34515   -638.74972    1193.6758    -236.3147    9.5488878   0.23440247 
   40800   -681.74756     42.33476    -639.4128    1284.3763    30.019902    9.5967072     0.218211 
   40900   -681.17794     44.06985   -637.10809    1337.0164   -786.34384     9.575052   0.22776699 
   41000   -671.99295      41.1958   -630.79715    1249.8219   -6244.8339    9.3477469   0.34381841 
   41100   -677.14592    39.549852   -637.59607    1199.8862    669.41778    9.5182267   0.21274828 
   41200   -679.39961    39.716956   -639.68265    1204.9559    8890.8777    9.6544111   0.19821534 
   41300   -677.87324    40.071976   -637.80126    1215.7267   -5560.4232    9.4757713   0.26969211 
   41400   -671.22879    38.458919   -632.76987    1166.7888   -9305.1444    9.2988934   0.33044063 
   41500   -676.72245    37.955592   -638.76686    1151.5186   -1593.5394     9.493484   0.27405183 
   41600   -677.81205    37.536363   -640.27569    1138.7998    2722.8694    9.5741546   0.24885131 
   41700   -677.59004    40.336092   -637.25395    1223.7395    7317.2834    9.6069715    0.2535446 
   41800   -676.77754    43.663276   -633.11427    1324.6816   -4498.6631     9.458831    0.2784795 
   41900   -671.47495    43.978813   -627.49613    1334.2545    1545.3096    9.4402996   0.28071458 
   42000   -676.85019     40.20001   -636.65018     1219.611    5733.7312     9.567261   0.23982062 
   42100   -677.80261    39.720907    -638.0817    1205.0757   -1649.3827    9.5007098   0.26874606 
   42200   -678.18304    38.622551   -639.56049    1171.7532   -5523.0533    9.4827629   0.27843008 
   42300   -677.49002    42.100785   -635.38924    1277.2778    701.26503     9.532333   0.24511665 
   42400   -674.74845    43.638835   -631.10962    1323.9401    924.69638    9.4877134   0.26086301 
   42500   -679.79765    40.492079   -639.30557     1228.472   -3795.8641    9.5217313    0.2169591 
   42600   -680.51477    40.582077    -639.9327    1231.2024   -11359.379    9.4527102   0.24692641 
   42700   -675.52189    40.682562   -634.83933     1234.251    198.61406    9.4924384   0.23260754 
   42800   -681.86038    41.465718   -640.39466    1258.0108    9670.0481     9.703999   0.20685175 
   42900   -681.88987    40.589824   -641.30004    1231.4374   -3210.3632    9.5734135    0.2148714 
   43000   -677.02904    40.392766   -636.63627     1225.459   -5571.0885    9.4467764   0.26217546 
   43100   -676.92554    42.988263   -633.93727    1304.2027   -3911.8918    9.4590977   0.25552588 
   43200   -677.81068    36.920827   -640.88985    1120.1253    8047.6117    9.6163708     0.207291 
   43300   -682.00616    40.904407   -641.10175    1240.9814    9896.3332    9.7200255    0.1901461 
   43400    -676.2116    39.059936   -637.15166    1185.0228   -3556.1895    9.4863588   0.28503055 
   43500   -674.90955    41.696008   -633.21354    1264.9975   -7742.0075    9.3881882   0.29833436 
   43600   -680.63539    40.436743   -640.19865    1226.7932    4754.0342    9.6345464   0.22211129 
   43700   -678.72731    39.080923   -639.64639    1185.6595    14228.275    9.7161146   0.20134775 
   43800   -675.48442    41.914399   -633.57002    1271.6231    685.92062     9.477359   0.25382471 
   43900   -676.22456    41.289576   -634.93499    1252.6669   -6206.0106    9.4271753   0.26860479 
   44000   -681.76207    40.415212   -641.34686    1226.1399   -1162.0199    9.5890105   0.21410887 
   44100   -680.46874     42.00579   -638.46295    1274.3958    3627.8344     9.616473   0.21182384 
   44200   -676.54691    44.508889   -632.03802    1350.3363   -1485.6452    9.4767098   0.28808419 
   44300   -674.30215    36.378675   -637.92347    1103.6772   -3706.9452    9.4253789   0.30213446 
   44400   -676.65442    38.261887   -638.39253    1160.8111    3356.0982    9.5495135   0.25026662 
   44500   -677.68149    41.995175   -635.68632    1274.0738    2150.1683    9.5435913   0.25164694 
   44600   -674.00091    41.701236   -632.29967    1265.1561   -2307.4329    9.4228715   0.29129637 
   44700    -680.3813    39.503277   -640.87803    1198.4731   -40.089788    9.5682968   0.21106552 
   44800    -682.0141     42.44579   -639.56831    1287.7448    785.38973    9.6142974   0.21699106 
   44900   -679.00041    45.536193   -633.46421    1381.5032    1832.7207    9.5583842   0.25248271 
   45000   -677.65547    46.595207   -631.06026    1413.6322   -1844.5344    9.4865644   0.27949625 
   45100   -682.05545    42.344256   -639.71119    1284.6644   -9593.1491    9.4949453   0.21864039 
   45200   -677.66736    37.737231   -639.93013    1144.8938    -7900.822    9.4459198    0.2822239 
   45300   -675.71709    39.273691    -636.4434    1191.5078   -460.02293    9.4768685   0.28866767 
   45400   -676.93538    41.003441   -635.93194     1243.986   -3943.7585     9.478117   0.27209353 
   45500   -683.14673     39.79802   -643.34871    1207.4152    1391.4065    9.6390181   0.19866346 
   45600   -681.06149      42.5811   -638.48039    1291.8499    1632.3468    9.6044109   0.20536942 
   45700   -677.42807    40.300063     -637.128    1222.6465      9188.03    9.6172409   0.22340835 
   45800   -678.59085    36.602678   -641.98818    1110.4731   -10458.951    9.4328395   0.25447984 
   45900   -681.35661    36.158454   -645.19816     1096.996   -10815.674    9.4733316   0.24299549 
   46000   -678.85692    40.427081   -638.42984       1226.5    7118.7955    9.6152548   0.20849976 
   46100   -679.40026    41.323467   -638.07679    1253.6951    2970.9686    9.5749896   0.19740582 
   46200   -680.74374    39.501697   -641.24205    1198.4252   -1216.0641    9.5657638   0.23262948 
   46300   -684.08589    39.593348   -644.49254    1201.2058   -2953.2676    9.6122172   0.20106513 
   46400    -675.2454    37.748154   -637.49724    1145.2252    4817.6267    9.5356621   0.26033092 
   46500   -675.13318    38.714266   -636.41891    1174.5357    597.18523    9.4870267   0.26738313 
   46600   -681.72388    39.691807   -642.03207    1204.1929    1290.6224    9.6057727   0.21517097 
   46700   -679.88911    35.986872   -643.90223    1091.7904   -2211.0538    9.5463837    0.2178051 
   46800   -677.44728    39.335381    -638.1119    1193.3794   -2443.2392    9.4885158   0.23813629 
   46900   -679.66907    43.922099   -635.74697    1332.5339   -1978.8735    9.5364597   0.21843063 
   47000   -682.47128    39.588007   -642.88328    1201.0437    5741.9141    9.6814732   0.17894733 
   47100   -682.14219    40.848825   -641.29337    1239.2951    11943.006    9.7303804   0.18448561 
   47200   -678.92276    42.234739   -636.68803    1281.3418   -10307.248    9.4182419   0.22639571 
   47300   -678.93662    39.672234   -639.26438     1203.599    1590.6111    9.5599672   0.24538046 
   47400   -680.92564    37.167891   -643.75775    1127.6208   -411.73287     9.605436    0.2672826 
   47500   -679.09581    42.092811     -637.003    1277.0359    -1357.312    9.5364341   0.22831178 
   47600   -678.12976    39.374191   -638.75556    1194.5569    2610.3763    9.5556204   0.23801847 
   47700   -678.42044    39.937734    -638.4827     1211.654   -9450.9958    9.4441574   0.23392029 
   47800    -671.2934    40.938308    -630.3551    1242.0099    8347.5845    9.4919842   0.28672238 
   47900   -678.94297    42.592028   -636.35094    1292.1814    5881.2868    9.6038078   0.23122968 
   48000   -679.47992    40.177986   -639.30193    1218.9429    79.716174    9.5607018    0.2375581 
   48100   -679.53322     43.14464   -636.38858    1308.9469   -4074.3649    9.5209357   0.21752677 
   48200   -675.32598     40.39878    -634.9272    1225.6414     4635.884    9.5255101   0.22837703 
   48300   -679.00344    38.206064   -640.79738    1159.1175    423.46706    9.5445516   0.21467788 
   48400   -679.64036    40.831941   -638.80842    1238.7829   -12218.368     9.443882   0.22920767 
   48500   -678.92921    46.204497   -632.72472    1401.7786    428.79563    9.5361277   0.22872491 
   48600    -680.6279    44.496061   -636.13183    1349.9471    1753.4951    9.5921441   0.22548352 
   48700   -681.49761    40.586226   -640.91139    1231.3283   -257.58944    9.5919511   0.21946647 
   48800   -677.48676    39.441993   -638.04477    1196.6139    2158.3227    9.5560512   0.22728179 
   48900   -675.04721    40.920388   -634.12682    1241.4663    2420.6002    9.5065673   0.24226337 
   49000   -671.78478      43.4093   -628.37548    1316.9763   -4408.0214    9.3497251   0.30695716 
   49100   -672.10236    39.044029   -633.05833    1184.5402   -4056.3982    9.3800545    0.2909782 
   49200    -679.0205    43.124994   -635.89551    1308.3509    7134.6221    9.6257667   0.21380841 
   49300   -680.63509    42.952507   -637.68258    1303.1179    13388.916    9.7115528    0.1886589 
   49400   -682.09571    41.286848   -640.80886    1252.5842   -860.44695    9.5950322   0.18431045 
   49500   -681.50406    34.895371   -646.60869    1058.6758    1837.7121    9.6336151   0.20411841 
   49600   -676.78486    38.069796   -638.71506    1154.9834    406.83227    9.5253706   0.23739203 
   49700   -675.90635    38.167265   -637.73908    1157.9405    7344.7686    9.5886049   0.24205788 
   49800   -677.99993     41.99853    -636.0014    1274.1756    1235.8622    9.5405927   0.20775963 
   49900   -683.66307    39.763554   -643.89952    1206.3696   -75.979697    9.6269435   0.20238373 
   50000   -678.70587    37.853905   -640.85197    1148.4335     902.5069     9.566809   0.25900706 
   50100   -678.87461    42.445529   -636.42908    1287.7369   -1880.9369     9.512701   0.26341596 
   50200    -677.8161    40.889838   -636.92626    1240.5394    7795.0517    9.6103057   0.22694103 
   50300   -682.60994    38.750992   -643.85895    1175.6499   -4503.5973    9.5736616   0.20452249 
   50400    -680.5878    42.182479   -638.40532    1279.7563   -13049.322    9.4277435   0.22995776 
   50500   -676.82273    39.823934    -636.9988    1208.2014   -384.50011    9.4939209   0.21643623 
   50600   -681.07482    40.856487   -640.21833    1239.5276    2521.4575     9.604902    0.2090339 
   50700   -684.76104    39.198699   -645.56235    1189.2327   -859.79704    9.6329048   0.17271526 
   50800   -677.18184    39.005978   -638.17586    1183.3858    2175.4602    9.5381847   0.23406188 
   50900   -678.61676     40.69545   -637.92132     1234.642   -9048.5889    9.4360595   0.28635294 
   51000   -679.95194    41.467632   -638.48431    1258.0689    3375.7701    9.6152806    0.2251969 
   51100   -683.02097    40.458576    -642.5624    1227.4555    16520.498    9.8085529   0.18157068 
   51200   -678.05265     41.85892   -636.19373      1269.94   -4704.9623    9.4859877   0.24561999 
   51300   -675.32875    39.607032   -635.72172    1201.6209   -1187.5287    9.4714749   0.27153753 
   51400   -679.42418    40.492646   -638.93154    1228.4892    6324.1017    9.6194608    0.2230607 
   51500   -681.09147    39.450709   -641.64076    1196.8783   -1770.5041    9.5838995   0.20541112 
   51600    -678.6692    44.687675   -633.98152    1355.7604    246.15969    9.5365634     0.242628 
   51700   -680.88338     43.95259   -636.93079    1333.4589    4685.3376    9.6140479   0.21618302 
   51800   -679.74054    39.214963   -640.52558    1189.7261     3119.921    9.5899324   0.21076888 
   51900   -675.66996    39.456353    -636.2136    1197.0495   -9883.9852    9.3781903   0.26634651 
   52000   -672.33461    39.786184   -632.54843    1207.0561   -3717.0445    9.3996564   0.29057011 
   52100   -679.79553    39.042418   -640.75311    1184.4913    -4250.076    9.5201752   0.24278234 
   52200   -678.61838    39.687869   -638.93051    1204.0734    6701.3517    9.6140593   0.21506642 
   52300   -678.39458    43.624223   -634.77036    1323.4968    871.76351    9.5330593   0.25409653 
   52400   -673.80107    41.465195   -632.33588    1257.9949    2355.7731    9.4843549    0.2725111 
   52500   -677.96352    37.638446   -640.32508    1141.8968   -2251.1565    9.5197505   0.27267162 
   52600   -679.61293     40.88459   -638.72834    1240.3802   -9416.6196    9.4571852   0.24015403 
   52700   -674.75293     40.90246   -633.85047    1240.9223    2049.9875    9.4893532   0.28213334 
   52800   -674.09152    42.568223    -631.5233    1291.4592    4831.3067    9.5201372   0.27459843 
   52900   -680.33156    41.675317   -638.65625    1264.3697    3901.9909    9.6095356   0.21559374 
   53000   -681.09543    40.193286   -640.90214     1219.407   -4769.4964    9.5177624   0.25285836 
   53100   -677.46283      42.6834   -634.77943    1294.9535   -12328.418     9.373655   0.27080413 
   53200   -675.97091    41.446702   -634.52421    1257.4339    4504.5839    9.5373513   0.22698328 
   53300   -681.33365    40.592117   -640.74154     1231.507    4028.3604    9.6359862   0.20810319 
   53400   -678.90141    38.890386   -640.01102    1179.8789    -2958.194     9.524538   0.23264109 
   53500   -673.22191    39.480095   -633.74181    1197.7698   -1220.8777     9.434635   0.29593121 
   53600   -672.57857    39.618147   -632.96043    1201.9581   -533.59926    9.4366416   0.26856569 
   53700   -677.35872    38.980024    -638.3787    1182.5984    -3362.226    9.4876523   0.26914072 
   53800   -676.84776    38.551959   -638.29581    1169.6115     1642.312    9.5395518   0.23210275 
   53900   -682.57396    38.635994   -643.93797     1172.161   -102.11395    9.6188241   0.19732902 
   54000   -684.05511    40.775488   -643.27962    1237.0702   -819.07421    9.6158567   0.18508714 
   54100   -678.22306    40.975735   -637.24732    1243.1454    3497.9825    9.5746637   0.23378991 
   54200   -678.64515    38.643213   -640.00193      1172.38   -3315.9904    9.5096706    0.2321718 
   54300   -680.69656    41.195011   -639.50155     1249.798   -3798.2031    9.5446548   0.21499765 
   54400   -673.25065    41.333934   -631.91672    1254.0127    5884.9765    9.4956167   0.27495609 
   54500   -679.70683    41.654743   -638.05209    1263.7456   -1198.1135    9.5487256   0.21552917 
   54600   -679.08893    39.343885   -639.74504    1193.6374     1722.436    9.5710876   0.24996308 
   54700    -675.0715    40.272293    -634.7992     1221.804   -3764.1767    9.4481296   0.31087135 
   54800   -674.00869    40.676207   -633.33248    1234.0582   -1248.7682    9.4527542   0.28419881 
   54900   -680.71903    40.897445   -639.82159    1240.7702    2898.2735    9.6121579   0.19264745 
   55000    -681.5373    42.521837   -639.01546    1290.0519   -1639.8658    9.5658335   0.20061056 
   55100   -674.86149     42.88566   -631.97583    1301.0898    1168.0618    9.4750451   0.25615307 
   55200   -678.08951    39.955012    -638.1345    1212.1781   -3749.1454    9.4982067   0.23182266 
   55300   -679.14836    39.586759    -639.5616    1201.0059    5548.5517    9.6153852   0.22783962 
   55400   -674.04013    39.062924    -634.9772    1185.1135     8144.983     9.552645   0.25577653 
   55500   -672.83215      39.8417   -632.99045    1208.7404   -3577.1131    9.4041216   0.27152572 
   55600   -678.47447    37.061863   -641.41261    1124.4041   -5362.6834    9.5000088   0.23866588 
   55700   -678.91414    39.081738    -639.8324    1185.6842    6381.7693    9.6169371   0.20446742 
   55800   -681.72071     44.42145   -637.29926    1347.6835     6119.707    9.6500759   0.20976701 
   55900   -674.96551    42.673121   -632.29238    1294.6417    4613.9341     9.533302    0.2488422 
   56000   -676.82557    36.544707   -640.28086    1108.7143   -489.97924    9.5178879   0.25107467 
   56100   -681.47628    40.921466   -640.55481     1241.499   -6075.2602    9.5224054   0.21808711 
   56200   -675.67118    39.419541   -636.25164    1195.9327    1242.5812    9.4937465   0.26647535 
   56300   -673.59843    41.501237    -632.0972    1259.0884    3127.4571    9.4685464    0.2973408 
   56400   -676.79934    39.351384   -637.44796    1193.8649    1504.0174    9.5232447   0.24101304 
   56500   -677.19406    36.291125   -640.90294     1101.021   -4433.2221    9.4821277   0.27371571 
   56600   -676.24575    41.477882   -634.76787    1258.3798    -4456.741    9.4591168   0.26121924 
   56700   -678.49986    39.924234   -638.57563    1211.2444    380.74764    9.5589089   0.24698017 
   56800   -681.22198    39.968821   -641.25316    1212.5971   -655.93237    9.5764381   0.20672033 
   56900   -677.97545    43.427713   -634.54774    1317.5349     2353.863    9.5522192   0.23315301 
   57000   -679.13168    44.285235   -634.84645    1343.5509    3016.7841    9.5765482   0.21956665 
   57100   -681.46406    38.722644   -642.74142    1174.7898    4689.1059    9.6474312   0.20244223 
   57200   -676.77531    38.521943   -638.25337    1168.7009    -10441.99    9.4022864   0.24848727 
   57300   -675.60625    38.949648    -636.6566    1181.6768   -673.89186    9.4793862   0.26755616 
   57400   -683.16479    41.656917   -641.50788    1263.8115    5354.4673    9.6848702   0.20636082 
   57500    -682.4583    38.457952   -644.00034    1166.7595   -1710.0447    9.5937376   0.20624659 
   57600   -676.59941     39.03881    -637.5606    1184.3819   -3193.7195    9.4804263   0.22125578 
   57700    -680.1371    41.323456   -638.81365    1253.6948   -2669.2335    9.5343555   0.19622362 
   57800   -681.55164    38.638882   -642.91276    1172.2486    2075.1228    9.6117865   0.19364125 
   57900   -679.03151    42.144712    -636.8868    1278.6105    9286.7543    9.6619372   0.21741163 
   58000    -676.0525    41.069141   -634.98336    1245.9792   -1742.7708    9.4772948    0.3100292 
   58100   -675.56987    37.163383   -638.40649    1127.4841    1472.5542    9.5177174   0.28374021 
   58200   -682.07446    40.200622   -641.87383    1219.6296    148.15662    9.6066892   0.19980667 
   58300   -675.78197    41.092543   -634.68942    1246.6892     7932.363    9.5879287    0.2179483 
   58400   -674.92521    38.468808   -636.45641    1167.0888    4604.0163     9.541986   0.24219834 
   58500   -679.40241    40.692405   -638.71001    1234.5496   -2337.6094    9.5254453   0.23003081 
   58600   -680.53876    40.876061    -639.6627    1240.1214   -8361.9569    9.4897021   0.23439358 
   58700   -681.29949    36.706038   -644.59345    1113.6089    2190.2175    9.6259281   0.20377109 
   58800   -679.68025    41.077625   -638.60262    1246.2366    3598.8972    9.5998436   0.21144834 
   58900   -676.27272    40.093601   -636.17912    1216.3827   -2494.7461    9.4660259   0.25193528 
   59000   -670.57184    37.936665   -632.63518    1150.9444    -9242.357     9.306556   0.32749991 
   59100   -667.78635    39.962895   -627.82345    1212.4173    -1263.564    9.3338383    0.3132276 
   59200    -679.9392    44.000727   -635.93847    1334.9194   -849.06264    9.5416105   0.23640869 
   59300   -678.28137    40.511308   -637.77007    1229.0554    9298.2258    9.6268716   0.22755161 
   59400   -675.73411    39.370722   -636.36339    1194.4516   -3907.4156    9.4510506   0.26761451 
   59500   -673.45967    42.222679   -631.23699    1280.9759   -2719.8052    9.4204861   0.26112133 
   59600   -680.19458    41.222198   -638.97238    1250.6227   -4433.9814    9.5107406   0.24025411 
   59700   -679.70991     39.89274   -639.81717    1210.2889   -3453.7153    9.5227556   0.22656954 
   59800   -675.80759    41.385388    -634.4222    1255.5737    2867.6255    9.5067869   0.23658081 
   59900   -677.90865     43.08836   -634.82029    1307.2394   -5625.8869    9.4472896   0.26212515 
   60000   -680.57344    39.301342    -641.2721    1192.3467   -2690.2028    9.5419036   0.22839913 
   60100   -678.80802    41.348917    -637.4591    1254.4672   -4002.8556    9.5033638   0.23796603 
   60200    -677.5035    43.360151   -634.14335    1315.4852    2210.4343    9.5354447   0.21868991 
   60300   -680.18615     38.26548   -641.92067    1160.9201    8691.5136    9.6799207   0.19408982 
   60400   -680.91943    41.399303   -639.52012    1255.9959   -5279.5812    9.5212985   0.20766789 
   60500   -675.56698     39.99249   -635.57449    1213.3152   -5133.4794    9.4372324   0.27645401 
   60600   -678.93863    39.511932    -639.4267    1198.7357   -8824.7694    9.4587535   0.27224056 
   60700   -682.96939    42.403229   -640.56616    1286.4535   -527.48007    9.6088137    0.1924896 
   60800   -677.21963    41.763465   -635.45617     1267.044    9121.0596    9.6190778   0.21805143 
   60900   -676.06658    43.672099   -632.39448    1324.9493    2215.3995    9.5302672   0.22273272 
   61000   -681.05492    40.344341   -640.71058    1223.9898    490.46953    9.5952079   0.20021051 
   61100   -678.41579    38.767515   -639.64827    1176.1512   -1665.4793    9.5318661   0.21471865 
   61200   -677.00847     41.67966   -635.32881    1264.5015   -8280.1375    9.4187202   0.25381511 
   61300   -676.35807    38.163175    -638.1949    1157.8163   -3616.1659    9.4688811   0.28324946 
   61400   -682.68929    37.639786    -645.0495    1141.9375    136.78096    9.6188086   0.20250106 
   61500   -680.25563    40.674355   -639.58128     1234.002   -3040.9962    9.5341152   0.20891908 
   61600   -679.30147    42.366772    -636.9347    1285.3475   -3295.4884    9.5150085   0.21357364 
   61700   -682.70185    41.644904   -641.05695     1263.447    2378.8684    9.6367743    0.2148874 
   61800   -686.19909    41.754718   -644.44437    1266.7786    3614.0407    9.7035549   0.17296607 
   61900   -680.15666    42.234471   -637.92219    1281.3337    6854.8152    9.6491422   0.20239243 
   62000   -678.75067    40.885556   -637.86511    1240.4095   -5233.9915    9.4967655   0.22270546 
   62100   -681.34445     39.60707   -641.73738    1201.6221   -2815.3403    9.5536349   0.22657718 
   62200   -683.97369    38.602885   -645.37081    1171.1565   -9110.1657    9.5447282    0.1958971 
   62300   -679.15066     41.37159   -637.77907    1255.1551    5873.1647    9.6029994   0.20615394 
   62400   -679.08036    41.685706   -637.39465    1264.6849    5758.7716      9.60945   0.22985841 
   62500   -678.39056    44.453035   -633.93753    1348.6417   -2827.7216    9.5014967   0.23049741 
   62600   -679.67701    37.430604    -642.2464    1135.5912   -1456.6235    9.5625962   0.21462477 
   62700   -679.96138    38.783595   -641.17779     1176.639   -1442.7444    9.5535739   0.22577242 
   62800   -678.48923    40.773351   -637.71588    1237.0054    903.49829    9.5487478   0.22954248 
   62900   -675.02599    41.269423   -633.75656    1252.0555    4574.1835    9.5243975   0.24812302 
   63000   -674.62373    36.226251   -638.39748    1099.0528   -6299.4018    9.3915371   0.33652483 
   63100   -676.36544    36.590045    -639.7754    1110.0898   -5501.4609    9.4505769    0.2515643 
   63200   -678.34822     45.68203   -632.66619    1385.9277    4350.7952    9.5768058   0.22684761 
   63300   -678.50639    42.959282   -635.54711    1303.3234     11279.89    9.6649314   0.24669814 
   63400   -682.89245    40.816983   -642.07547    1238.3291   -9968.1116    9.5140443   0.24389053 
   63500   -675.99407    38.574011   -637.42005    1170.2805   -1209.7115    9.4851247   0.25756435 
   63600     -674.827    41.893473   -632.93353    1270.9883   -6572.8432    9.3890571   0.27322864 
   63700   -677.58868    41.587463   -636.00121    1261.7044   -1697.5132    9.4890552   0.25146777 
   63800   -682.50494    42.448148   -640.05679    1287.8163    5931.8184     9.660758   0.20264721 
   63900    -677.6323    39.574974   -638.05733    1200.6483    244.88252    9.5383438   0.23266843 
   64000   -673.05653    40.847339    -632.2092    1239.2501   -3066.8853    9.4059666   0.30911762 
   64100   -680.87462    41.870666   -639.00396    1270.2963   -4244.0009    9.5317509   0.21085991 
   64200   -682.48619    42.567056   -639.91913    1291.4238    15312.738    9.7716283   0.17859364 
   64300   -681.32575    43.592371   -637.73338    1322.5304    7930.0381     9.673052   0.19253764 
   64400   -673.93528    38.589266   -635.34601    1170.7433    1880.3636     9.467147    0.2514132 
   64500   -673.05541    41.731673   -631.32374    1266.0795   -9751.5417    9.3367541   0.30876603 
   64600   -680.73168    41.025033   -639.70664     1244.641    2807.5376    9.6052615   0.21262636 
   64700   -681.45353    42.028065   -639.42547    1275.0716    4426.6404    9.6386338   0.20303488 
   64800   -676.62044    42.854323   -633.76612    1300.1391    897.58783    9.5129505   0.23946359 
   64900   -679.29346     42.78477   -636.50869     1298.029   -7691.0899    9.4802697   0.27590396 
   65000   -677.92047     35.54816   -642.37231    1078.4805    10360.394    9.6645505   0.24019241 
   65100   -676.30104    38.897307   -637.40373    1180.0889    4109.7309     9.549486   0.25591369 
   65200   -674.55732    39.592064   -634.96526    1201.1668   -6334.2814    9.3905274   0.25992679 
   65300   -680.73905    39.609395   -641.12965    1201.6926   -6365.9412    9.5099334   0.22341527 
   65400   -681.17445    39.005376   -642.16908    1183.3675    9412.8701    9.6941104   0.18868968 
   65500    -677.8815    42.959887   -634.92161    1303.3418    4903.8537    9.5689894   0.24851602 
   65600   -678.61758    40.611289    -638.0063    1232.0887   -6942.8871    9.4719222   0.26018184 
   65700   -682.71508    39.975027   -642.74005    1212.7854   -3757.6564    9.5803567   0.20179259 
   65800   -677.20624    40.835845   -636.37039    1238.9014    7394.8489    9.6013782   0.23035127 
   65900    -680.1745    45.069257   -635.10524    1367.3371   -5068.9282    9.5017475   0.21583412 
   66000   -675.00083    36.265092   -638.73574    1100.2312    7576.2071     9.571874   0.21708108 
   66100   -680.16997    39.448243   -640.72173    1196.8035    4060.7907    9.6110521   0.21232142 
   66200   -685.82834    39.570023   -646.25831    1200.4981   -2272.0042    9.6507623   0.19139803 
   66300   -677.26599    38.264412   -639.00157    1160.8877   -11810.482     9.383812   0.28571196 
   66400   -677.33016    40.178585   -637.15157     1218.961   -5556.9531    9.4509877   0.25610984 
   66500     -682.094    41.568736   -640.52526    1261.1362    2726.0639    9.6340947   0.19206682 
   66600   -683.37048     39.19082   -644.17966    1188.9936    3001.3459    9.6680668   0.16942859 
   66700   -676.36739    40.148846   -636.21854    1218.0588   -4820.1446    9.4520348   0.26091314 
   66800   -677.78353    40.775327    -637.0082    1237.0653    1135.5511    9.5419406   0.23092756 
   66900   -680.53212    38.757896   -641.77422    1175.8593    4169.8678     9.616016   0.19396557 
   67000   -681.17877    38.873509   -642.30526    1179.3669   -1444.7979    9.5683954   0.20858715 
   67100   -677.13418    41.855993   -635.27819    1269.8512   -5511.2699    9.4589606   0.28983907 
   67200   -677.46104    42.569932   -634.89111    1291.5111    7088.2071    9.6136455   0.24084647 
   67300   -682.51675    41.774943   -640.74181    1267.3922    2009.2432    9.6338245   0.22028524 
   67400    -679.6392    40.449616   -639.18959    1227.1837   -6905.9121     9.470575   0.22764283 
   67500    -671.3653    37.950967   -633.41434    1151.3783   -5371.5675    9.3730311    0.2777805 
   67600   -679.76151    40.323535   -639.43798    1223.3586    4423.5363    9.6005663   0.21365264 
   67700    -682.1779    41.940102   -640.23779    1272.4029    7554.7222    9.6881089   0.17320401 
   67800   -678.16239    43.091933   -635.07046    1307.3479    -638.4998    9.5144965   0.23693671 
   67900    -676.4475     43.33125   -633.11625    1314.6084   -3866.3886    9.4432311   0.25639168 
   68000   -678.39917    38.505943   -639.89322    1168.2154    4265.6047    9.5903802   0.23945373 
   68100     -676.291    38.039336   -638.25166    1154.0592   -9163.5436    9.3996635   0.26632785 
   68200   -673.14546    38.079923   -635.06554    1155.2906     385.1638    9.4594611   0.28741439 
   68300   -679.71382     39.72768   -639.98614    1205.2812    3009.0427    9.5832643   0.23777014 
   68400   -681.24788    42.672969   -638.57492    1294.6371    2742.3455    9.6303108   0.20860156 
   68500   -674.87554    44.719938    -630.1556    1356.7392    1186.6769    9.4839777   0.25614258 
   68600    -681.3267    44.413973   -636.91273    1347.4567   -1464.9681    9.5567869   0.20830327 
   68700   -680.20218    40.711884    -639.4903    1235.1406    -6880.644    9.4900598   0.21360758 
   68800   -676.16523    38.659522   -637.50571    1172.8748   -1393.7948    9.5053445    0.2696902 
   68900   -673.87794    41.983043    -631.8949    1273.7057   -4845.1974    9.3896682   0.28713597 
   69000   -679.93329    40.312164   -639.62113    1223.0136    4219.4928    9.6061208   0.21597827 
   69100   -680.55028    41.254974   -639.29531    1251.6171    6285.8849    9.6553118   0.20803915 
   69200   -678.61734     42.75423   -635.86311    1297.1024    3883.7292    9.5706081   0.24536344 
   69300   -671.30162    37.904742   -633.39687    1149.9759   -8108.5664    9.3292176   0.30927298 
   69400   -679.16936    38.044865    -641.1245     1154.227   -7061.3748    9.4960382   0.25205993 
   69500   -681.58179    41.361648   -640.22015    1254.8535    5453.9557    9.6470058   0.18457013 
   69600   -676.14478    41.513912   -634.63087    1259.4729   -2600.3762    9.4666171   0.26895284 
   69700   -674.01661    36.727313    -637.2893    1114.2543   -6311.0706    9.4020677   0.34210428 
   69800   -682.03346    41.890013   -640.14345    1270.8833   -770.02141    9.6004261   0.24285296 
   69900   -675.01596    41.163788   -633.85217    1248.8507    8436.2586     9.580046    0.2611727 
   70000   -674.76572    42.420817    -632.3449    1286.9872   -5418.0859    9.4180707   0.23836461 
   70100   -678.13889    39.636843   -638.50205    1202.5253    2806.0075    9.5630677   0.24019204 
   70200   -679.69428    41.249582    -638.4447    1251.4535   -7917.5498    9.4757354   0.23449501 
   70300   -674.48831    41.290002    -633.1983    1252.6798   -4502.3288    9.4151427   0.28844492 
   70400   -672.57751    40.126518   -632.45099    1217.3814   -4584.9338    9.3849888   0.31439323 
   70500   -677.77277    38.260768     -639.512    1160.7772    1335.3437    9.5457656    0.2585448 
   70600   -679.71776    41.198601   -638.51915    1249.9069     6.204979    9.5573525    0.2142687 
   70700   -676.68396    40.113886   -636.57007    1216.9981    7346.0012    9.5878857   0.22756415 
   70800    -671.5228    42.273307   -629.24949    1282.5119   -4745.7343    9.3675898   0.28525386 
   70900   -677.29934    40.540832   -636.75851    1229.9511    2016.0262    9.5450314   0.21632803 
   71000   -678.78803     39.83777   -638.95026    1208.6212    7663.4161    9.6323432   0.21933734 
   71100   -678.24713    41.155351   -637.09178    1248.5947    -4401.887    9.4890762   0.27551736 
   71200   -674.09241    41.092602   -632.99981     1246.691   -2847.1838    9.4280791    0.2767946 
   71300   -678.36478    40.513298   -637.85149    1229.1157    1582.0381    9.5562721   0.28199764 
   71400   -677.47574    41.541957   -635.93378    1260.3238    7117.0338    9.6137491   0.23058255 
   71500   -684.15884    40.170596   -643.98824    1218.7187   -4933.1349    9.5866961   0.18827737 
   71600   -681.90314    41.608244    -640.2949    1262.3348   -4150.9506    9.5468423   0.19814446 
   71700   -679.89092    43.550055   -636.34086    1321.2466    3429.2235    9.5944265   0.22532322 
   71800   -682.27223    46.065992   -636.20624    1397.5766   -2578.7925    9.5709301   0.23886317 
   71900   -684.73656    40.165864    -644.5707    1218.5751    1375.4283    9.6663904   0.19666159 
   72000   -683.50362    41.219337   -642.28428     1250.536   -9461.0332    9.5340341   0.20756679 
   72100   -679.02331    39.567508    -639.4558    1200.4218   -2962.6917    9.5113601   0.23061546 
   72200   -677.12617    40.641286   -636.48488    1232.9987    9045.0053    9.6160568   0.22720635 
   72300   -674.71321    45.715683   -628.99753    1386.9487     10417.32    9.5820482   0.23557236 
   72400   -677.44385    43.288819   -634.15504    1313.3211    2897.9531    9.5494565   0.23986135 
   72500   -677.72985     39.33629   -638.39356     1193.407   -10563.505    9.4203073   0.24053287 
   72600   -679.09217    38.782831   -640.30934    1176.6158   -1151.4092    9.5306069   0.24737859 
   72700   -678.72623    45.022482   -633.70375     1365.918   -1393.8997    9.5143297   0.23424723 
   72800   -673.08671    39.230987   -633.85572    1190.2123    10135.739    9.5749421   0.25045015 
   72900   -681.50674    41.655923   -639.85081    1263.7814    -2040.025      9.55759   0.22759501 
   73000   -678.73333    39.413904   -639.31942    1195.7617   -2813.4604    9.5307217    0.2565811 
   73100   -676.71709    41.644564   -635.07252    1263.4367    2631.5088    9.5279745   0.23426053 
   73200   -681.17395     40.85375    -640.3202    1239.4446   -3621.9694    9.5533536   0.23003546 
   73300   -682.82348    39.166867   -643.65662    1188.2669    2668.0536    9.6582576    0.2045122 
   73400   -678.97632    41.278224   -637.69809    1252.3225    4347.9295    9.6078224   0.20584254 
   73500   -678.83188    42.240772    -636.5911    1281.5248    4632.3963    9.5936937   0.24210182 
   73600    -674.7312     42.94939   -631.78181    1303.0233    3713.8894    9.5068228   0.25506481 
   73700    -680.5547     41.22718   -639.32752    1250.7739   -4885.6057    9.5267261    0.1980029 
   73800   -679.80834      39.4214   -640.38694    1195.9891   -5022.6474    9.5091935    0.2067756 
   73900   -679.72465    41.791851    -637.9328    1267.9052    2579.0463    9.6015039   0.20305913 
   74000   -676.32069    44.359855   -631.96084    1345.8148     6044.017     9.564855   0.20545235 
   74100   -675.81394    42.548677   -633.26527    1290.8662   -3234.0553    9.4603627   0.27321907 
   74200   -676.63637    37.301105   -639.33527    1131.6624   -5763.7225    9.4493253   0.26105911 
   74300   -677.46399    39.148844   -638.31514    1187.7201    635.65022     9.527975   0.24632091 
   74400   -675.82658    43.249776   -632.57681    1312.1366    1270.2908    9.4951197   0.27454532 
   74500   -676.26088    42.670644   -633.59023    1294.5665    4309.0994    9.5480327   0.25348841 
   74600   -677.62508    38.090703   -639.53438    1155.6177   -510.67925    9.5142962   0.27856885 
   74700    -677.5722    41.055442   -636.51676    1245.5636    592.34391    9.5203044   0.22830203 
   74800   -677.95016    40.169285   -637.78088    1218.6789   -3022.0371    9.4922921   0.28095045 
   74900   -683.56204    37.639648   -645.92239    1141.9333   -810.21748    9.6320113   0.18852797 
   75000   -679.18683    38.992862   -640.19397    1182.9879    -952.1896    9.5477299   0.23137368 
   75100    -676.7375    39.547193    -637.1903    1199.8055    3744.1664    9.5419692   0.24556743 
   75200   -675.81563    37.525867   -638.28977    1138.4813   -6719.2587    9.4247506   0.27652752 
   75300   -683.06108    37.255202   -645.80588    1130.2697   -1310.2247    9.6002641   0.21785187 
   75400   -682.35545    42.538055    -639.8174     1290.544   -1899.9866    9.5898541   0.21518815 
   75500   -679.20755    42.243411   -636.96413    1281.6049   -6429.6154    9.4791741    0.2361167 
   75600   -679.35032    40.086163   -639.26416    1216.1571   -7621.7876     9.476796   0.26443077 
   75700    -682.2484    37.018413   -645.22999    1123.0859   -2741.5965    9.5830994   0.21593523 
   75800   -677.45099    40.524811   -636.92617     1229.465    3918.2562    9.5666125   0.25373733 
   75900   -675.81595    38.308906   -637.50704    1162.2376    998.91483    9.5078496   0.26575577 
   76000   -681.25073      42.3757   -638.87504    1285.6184    1579.0903    9.5995041    0.2086096 
   76100   -682.60922    37.772473   -644.83675     1145.963    4742.5762    9.6804135   0.20684239 
   76200   -677.37886    39.912811   -637.46605    1210.8978   -13267.605    9.3559172   0.27270399 
   76300   -677.82243     41.30495   -636.51748    1253.1333    -3778.651    9.4720148   0.22691708 
   76400   -681.16168    39.593856   -641.56782    1201.2212    2955.4147    9.6197818    0.1802424 
   76500   -680.87202    38.631781   -642.24024    1172.0332     7038.322    9.6531378   0.20266017 
   76600   -674.98533    40.421584   -634.56374    1226.3333   -5275.4136    9.4232714   0.28250156 
   76700   -676.70301    38.705961   -637.99705    1174.2837   -3036.7864    9.4883281   0.24946304 
   76800   -680.72187    39.505557   -641.21632    1198.5423    2862.8088    9.5943043   0.21154833 
   76900   -682.52575    39.274043   -643.25171    1191.5185    -775.4884    9.6010639   0.17648407 
   77000   -674.11229    39.928202   -634.18409    1211.3648   -45.742862    9.4487315   0.29954298 
   77100   -677.11957    41.119689   -635.99988    1247.5128   -1739.7686    9.4958432   0.27839636 
[...]
  481400   -675.23013    40.420257   -634.80987     1226.293     1935.619    9.5079532   0.25876716 
  481500   -674.79774    43.052149   -631.74559    1306.1409     8744.541      9.56426   0.25467313 
  481600    -681.7169    41.305387   -640.41152    1253.1466    6275.6349    9.6751402   0.19185781 
  481700   -679.21146    38.327796   -640.88367    1162.8107    1866.3317    9.5919577   0.22487004 
  481800   -674.64725    39.593132   -635.05412    1201.1992   -7739.9526    9.3855694   0.27665025 
  481900   -676.54345    39.609239   -636.93421    1201.6879    3042.9194    9.5395753   0.27969912 
  482000    -681.9837    41.098737   -640.88496    1246.8771     5789.968    9.6719764   0.20997098 
  482100   -679.51044    42.689176   -636.82126    1295.1288   -5031.3565    9.4903159   0.24056403 
  482200   -676.92075    42.528693   -634.39206      1290.26    332.08461    9.4934048   0.23011802 
  482300   -681.40958    41.769939   -639.63965    1267.2404    -6514.843    9.5053908   0.21271199 
  482400   -679.14313    38.031485   -641.11165    1153.8211    2235.4661    9.5822587   0.20895969 
  482500   -675.62079    42.326877   -633.29391    1284.1371   -1443.4624    9.4656775   0.25412514 
  482600   -678.11263     40.68084   -637.43179    1234.1987   -7787.7089     9.448419   0.24917525 
  482700   -680.43997    39.105347   -641.33462    1186.4005    2573.9218    9.6114258   0.22120236 
  482800   -680.48634    42.665295   -637.82104    1294.4043    859.84916     9.585092   0.21273588 
  482900   -674.72802     40.97446   -633.75356    1243.1067   -824.00417    9.4596204   0.26790643 
  483000   -678.43176    38.402984   -640.02878    1165.0918   -1366.5679    9.5320876   0.24381294 
  483100   -677.59088    37.070561   -640.52032     1124.668    400.69757    9.5319807   0.23341082 
  483200   -673.90406     40.53767   -633.36639    1229.8552    1960.9669    9.5036934   0.25608156 
  483300   -679.06467    44.413713   -634.65096    1347.4488    4247.3241    9.5853176   0.19220214 
  483400   -677.95729    37.526169   -640.43112    1138.4905    3530.3224    9.5701558   0.23076474 
  483500   -676.27562    37.526383   -638.74923     1138.497   -8182.6524     9.444728   0.27330643 
  483600   -674.23095    40.283215   -633.94774    1222.1354   -5725.3576    9.4058582   0.30998778 
  483700   -672.14109    44.410471   -627.73062    1347.3504    2690.3162    9.4644017   0.28065543 
  483800   -679.42501     43.30201     -636.123    1313.7213    172.08451    9.5603089   0.22680794 
  483900   -677.70696    38.781419   -638.92554     1176.573    -4271.404    9.4837619   0.22949607 
  484000   -678.73533    39.594273   -639.14105    1201.2338   -7172.9963    9.4716731   0.24142303 
  484100   -675.52271    42.358601   -633.16411    1285.0996    6644.2701    9.5509828   0.23744922 
  484200   -680.77866    40.982613   -639.79605    1243.3541   -2860.1369    9.5547733    0.2203893 
  484300   -681.00687    39.537065    -641.4698    1199.4982   -3025.6229    9.5420183    0.2296236 
  484400   -677.82333    42.551975   -635.27136    1290.9663    1589.7411    9.5530411   0.21121369 
  484500   -678.24551    39.233233   -639.01228    1190.2804    212.16459    9.5445556   0.24114782 
  484600    -682.7134    39.335822   -643.37758    1193.3928   -2593.4976    9.5866809   0.19721655 
  484700   -678.19541      41.1243   -637.07111    1247.6527    5900.1308    9.5977383   0.24152253 
  484800   -677.86212    42.275614    -635.5865    1282.5819    7277.6835    9.6158281   0.22400681 
  484900    -679.3579    42.521373   -636.83653    1290.0379    5750.2375    9.6042389    0.2515658 
  485000   -676.88905     40.95733   -635.93172     1242.587   -8562.1132    9.4315731    0.2724257 
  485100   -683.34594    39.045745    -644.3002    1184.5923   -3019.9058    9.5981887    0.1924675 
  485200   -680.17293    38.762167   -641.41076    1175.9889    2691.9501    9.6034853   0.22671125 
  485300   -680.49842    43.379191   -637.11923    1316.0629   -1305.2185    9.5613404   0.21811032 
  485400   -681.19388    43.139717   -638.05416    1308.7976   -1431.7625    9.5666348   0.22466836 
  485500   -682.71804    37.539018   -645.17902    1138.8803   -14734.963    9.4663046   0.22784992 
  485600   -681.27132     39.50375   -641.76757    1198.4875   -1752.2957    9.5730564   0.21484247 
  485700   -678.87147    41.071752   -637.79971    1246.0584    10092.173    9.6535543   0.23262325 
  485800   -677.82454    41.289308   -636.53523    1252.6588    1897.8469    9.5451212   0.22637033 
  485900   -680.14824    37.182474   -642.96577    1128.0633   -3167.4415    9.5496992   0.21987264 
  486000    -681.7708    39.305791   -642.46501    1192.4817    2984.8295    9.6278079   0.20555278 
  486100   -678.37119    41.360834   -637.01036    1254.8288    80.893856    9.5412008   0.24297927 
  486200   -675.24462     39.53744   -635.70718    1199.5096    5857.9341    9.5491661   0.29078609 
  486300    -679.8271    37.999167   -641.82794    1152.8406   -10503.642    9.4553852   0.24773568 
  486400   -681.45254    39.738487   -641.71405    1205.6091   -1653.4084    9.5723843   0.22780575 
  486500   -679.57953    42.995376   -636.58415    1304.4184    1418.2006    9.5650895   0.23981611 
  486600   -676.89475    38.722102   -638.17265    1174.7734     4184.999      9.55598   0.23807298 
  486700   -682.84449    38.414278   -644.43022    1165.4345   -6092.0731    9.5484266    0.1956762 
  486800   -677.04869    38.750026   -638.29867    1175.6206   -807.18885     9.519343   0.24148254 
  486900   -678.56161    43.400281   -635.16133    1316.7027    50.319241    9.5291543   0.22099082 
  487000    -679.3375    37.101103    -642.2364    1125.5946    8246.4215    9.6432213   0.21604247 
  487100   -680.82086    41.214746   -639.60612    1250.3967   -8179.0984    9.4728773   0.24529825 
  487200   -675.34298    40.988858   -634.35412    1243.5436   -8333.6135    9.3869332   0.27276035 
  487300   -679.19951    40.763059   -638.43646    1236.6931    6681.7448    9.6264786   0.20998564 
  487400   -682.54886    38.990191   -643.55867    1182.9069    4849.7227    9.6710946   0.19511151 
  487500   -676.11274    38.763201   -637.34954    1176.0203   -1727.2394    9.4830019   0.23667142 
  487600   -677.66269     41.49921   -636.16348    1259.0269   -2461.2129    9.4842648   0.23684989 
  487700   -682.32977    39.246434   -643.08333    1190.6809   -770.10582    9.5980941   0.20933914 
  487800   -681.90781    41.274179   -640.63363    1252.1998   -9142.5956    9.5096188   0.23587498 
  487900   -676.37235    38.888182   -637.48417     1179.812    3817.8578    9.5439934   0.22971888 
  488000   -679.73124    37.560185   -642.17106    1139.5225   -2199.0363    9.5395768   0.21011697 
  488100    -680.8036    40.656082   -640.14752    1233.4476    2524.7551    9.6185261   0.21083912 
  488200    -677.6811    44.125402    -633.5557    1338.7018    12605.219    9.6558872   0.21628663 
  488300   -680.56178    42.151789   -638.40999    1278.8252    1627.2789    9.5782808   0.22401703 
  488400   -677.50546     35.78251   -641.72295    1085.5904   -6930.4984     9.457649    0.2832355 
  488500   -674.39996    38.937293   -635.46267     1181.302   -1937.8894    9.4329354    0.2674891 
  488600   -680.96561    42.784785   -638.18083    1298.0294   -5431.4114    9.5101741   0.22045624 
  488700   -682.05896    40.764649   -641.29431    1236.7414     7968.206    9.6935625   0.18020952 
  488800   -678.47234    43.884038   -634.58831    1331.3792    -1391.112    9.5284561   0.21971118 
  488900   -676.42431    38.477694   -637.94661    1167.3584    2530.0408     9.542922   0.25725569 
  489000   -677.51308    37.993395   -639.51968    1152.6655   -95.315001    9.5164554   0.25988611 
  489100   -675.50676    42.782691   -632.72407    1297.9659   -3810.8694    9.4386548   0.26861323 
  489200   -681.80544    44.866767   -636.93867    1361.1938     8154.218    9.6704154   0.21665462 
  489300   -681.43839    41.003566   -640.43483    1243.9898    5780.3478    9.6516331   0.21843545 
  489400   -675.53991    40.856399   -634.68351    1239.5249   -7311.5824    9.4044635   0.26773971 
  489500   -675.86984     39.19382   -636.67602    1189.0846   -9718.6388    9.3894773   0.26675323 
  489600   -682.04094    40.848096   -641.19284     1239.273   -588.91282    9.5927585   0.21907103 
  489700   -679.07357    38.568649   -640.50492    1170.1179     11624.05    9.6854366   0.21733662 
  489800   -680.23335    45.538953   -634.69439    1381.5869    1110.9765    9.5738504   0.21802556 
  489900   -677.96672    39.574519    -638.3922    1200.6345    6187.5952    9.5994153    0.2201215 
  490000   -683.02878    39.610119   -643.41867    1201.7146   -8528.3983    9.5197932   0.22216988 
  490100    -678.0423    41.706958   -636.33534    1265.3297   -3864.6949    9.4761813   0.25250298 
  490200   -676.43121    38.976996   -637.45422    1182.5065   -203.85764    9.4942503   0.26038476 
  490300   -680.08677    38.786617   -641.30015    1176.7307    825.06418    9.5842488   0.19787531 
  490400   -679.27853    37.459374   -641.81916     1136.464   -3016.3077    9.5273304   0.21397149 
  490500   -678.09293    42.451968   -635.64097    1287.9322   -918.82265    9.5294202   0.22801991 
  490600   -679.82399    42.908169   -636.91582    1301.7727    5797.1516     9.637389   0.24526989 
  490700   -679.27619    39.205732   -640.07046     1189.446    17685.216    9.7566602   0.20161517 
  490800   -683.89978     38.96656   -644.93322    1182.1899   -7580.8025    9.5551287   0.18044739 
  490900   -677.35632    40.275912   -637.08041    1221.9138   -8197.0359    9.4290047   0.26455972 
  491000   -675.92762    38.750581   -637.17704    1175.6374    292.12733    9.4947458   0.26851774 
  491100   -679.35378    42.137711   -637.21607    1278.3981    4521.6721    9.6051616   0.21819673 
  491200   -683.02574    38.657107   -644.36863    1172.8016    14317.866    9.7791758   0.19388783 
  491300   -680.46898    41.163989   -639.30499    1248.8568   -1385.8083    9.5576785   0.25046829 
  491400   -675.11865    37.869899   -637.24875    1148.9188    -8356.868    9.3910037   0.28305128 
  491500   -676.74959    40.289676   -636.45991    1222.3314    3013.9327    9.5390074   0.23187023 
  491600   -684.19579    40.812942   -643.38285    1238.2065   -1787.2059    9.6193503   0.19194566 
  491700   -676.86621    37.946884   -638.91932    1151.2544   -988.27679    9.4949109   0.24227621 
  491800    -677.3777     43.01311   -634.36459    1304.9565   -8238.3405    9.4251994   0.26056058 
  491900   -676.47502    36.201418   -640.27361    1098.2994     2475.706       9.5486   0.25601063 
  492000   -678.99122    40.358765   -638.63245    1224.4274    8781.3392    9.6475462   0.20334725 
  492100   -673.04633    41.522019   -631.52431    1259.7189    1643.7582    9.4497704   0.28274967 
  492200   -673.46043    37.955184   -635.50525    1151.5062   -12297.704    9.3323585   0.32848723 
  492300   -679.18629    38.454144   -640.73214    1166.6439     304.9188    9.5664842    0.2162612 
  492400   -678.39039    41.670943   -636.71945     1264.237    5823.6368    9.6031014   0.19730867 
  492500   -673.49729    38.660361   -634.83693    1172.9003    3992.5692    9.5109222   0.27479231 
  492600   -680.33486    37.979459    -642.3554    1152.2427   -421.73566    9.5652232    0.2179753 
  492700   -679.22992    37.843362   -641.38656    1148.1137   -7226.6575    9.4846605   0.25729802 
  492800   -673.37554    38.460181   -634.91536    1166.8271     1978.928    9.4780675   0.28919282 
  492900    -677.5652    40.112033   -637.45316    1216.9419    5223.5334    9.5824997   0.22325379 
  493000    -683.3474    40.822691   -642.52471    1238.5023   -1291.4005    9.6124128   0.18394355 
  493100   -679.10034    42.279359   -636.82098    1282.6955    -4820.958    9.4764126   0.22543775 
  493200   -677.31829    42.132077   -635.18622    1278.2272     12550.98    9.6597239   0.22829883 
  493300   -682.85968    41.991298   -640.86838    1273.9562   -5835.2756    9.5481814   0.20722565 
  493400   -680.06537    37.937759   -642.12761    1150.9776   -4066.7865    9.5398265   0.22192287 
  493500   -675.43351    41.262614   -634.17089    1251.8489    5486.2601     9.553494   0.24165236 
  493600   -678.00645    40.965227   -637.04123    1242.8266    5933.8656    9.6058057   0.22680358 
  493700   -682.65619    40.499517   -642.15667    1228.6976    2353.8905    9.6368941   0.19604542 
  493800   -680.26386    42.710915   -637.55294    1295.7883    256.97389    9.5626103   0.23233978 
  493900   -679.08819    42.844999    -636.2432    1299.8562   -4639.1188    9.5001608   0.22880514 
  494000   -681.44771    40.472721   -640.97499    1227.8847   -4544.8917    9.5409086   0.21421068 
  494100   -681.48867    42.120893   -639.36777    1277.8879    3824.0866    9.6328576   0.19410199 
  494200   -677.55176    44.662068   -632.88969    1354.9835    7805.9953    9.5918365   0.22821141 
  494300   -680.68326    41.714117   -638.96914    1265.5469    -2246.501    9.5435272   0.22502683 
  494400   -678.51418    36.867095   -641.64708    1118.4951   -14638.813    9.3956459   0.24886934 
  494500   -676.18762    41.277766   -634.90986    1252.3086   -212.77863    9.4856926   0.24363888 
  494600   -674.90299    37.128414   -637.77457    1126.4232    13886.052    9.6312994   0.23075818 
  494700   -682.59345    40.600346    -641.9931    1231.7566   -1400.2612    9.5894425   0.19757338 
  494800   -676.42343    40.950726    -635.4727    1242.3867     1078.033      9.50211   0.24637371 
  494900    -675.2186    41.184321   -634.03428    1249.4736    947.54861    9.4760615   0.25481643 
  495000   -679.93501    38.838109    -641.0969    1178.2929    -1300.699    9.5521527   0.22794358 
  495100   -681.36241    40.380368   -640.98204    1225.0828   -1490.7203    9.5735477   0.24771732 
  495200   -678.70529    44.047483   -634.65781    1336.3379    2269.6146     9.568825   0.23345359 
  495300   -680.39028    42.171895   -638.21838    1279.4352    8246.8203    9.6497334    0.2156168 
  495400   -681.03672    36.510633   -644.52609    1107.6806    643.67697    9.6044721   0.19659502 
  495500   -678.20355     40.13162   -638.07193    1217.5362   -4107.6132    9.4830307   0.22288421 
  495600   -676.81699    42.259357   -634.55763    1282.0887   -7815.8804    9.4268076   0.27941721 
  495700   -679.32786    41.702447   -637.62541    1265.1928     5468.227    9.6167402   0.22750185 
  495800   -684.52393     44.25633    -640.2676     1342.674    14316.483    9.8031194   0.16700173 
  495900   -677.91296    40.705498   -637.20746    1234.9468     -1293.43     9.520691   0.22104497 
  496000    -679.0911    44.196301    -634.8948    1340.8528   -8671.4414    9.4385338   0.23507257 
  496100   -680.54291    38.629974   -641.91294    1171.9784   -1366.3081    9.5575136    0.2025883 
  496200   -679.23966    41.054722   -638.18494    1245.5418    6864.0433    9.6340404   0.22338044 
  496300   -676.97229    42.739377   -634.23291    1296.6518   -3406.6188     9.477421    0.2571375 
  496400   -681.13001    39.074743   -642.05526     1185.472   -1800.7144    9.5694131   0.22488319 
  496500   -683.70669    43.650519   -640.05617    1324.2946    1131.2584    9.6192569   0.19595183 
  496600   -677.04522    41.824739   -635.22048     1268.903   -3616.5457    9.4846732    0.2388466 
  496700   -675.33133    41.881771   -633.44956    1270.6333    1214.8438    9.4714033    0.2512969 
  496800    -681.7011    40.191307    -641.5098     1219.347   -5610.7572    9.5303636    0.2143484 
  496900   -678.25663    38.676657   -639.57998    1173.3947    212.90178    9.5443919   0.25056916 
  497000   -675.89734    39.787044    -636.1103    1207.0822    3935.4786    9.5396031    0.2297351 
  497100   -680.25842    39.563523   -640.69489    1200.3009   -6828.2933    9.5018088   0.23569437 
  497200    -681.5926    39.182225   -642.41037    1188.7329    7360.6297    9.6921869   0.19306739 
  497300   -678.82053    43.102087   -635.71844    1307.6559    10254.849    9.6449388   0.23952851 
  497400   -678.09068    41.245868   -636.84481    1251.3409   -6533.8989    9.4651841   0.24687375 
  497500   -681.60397    38.682412   -642.92155    1173.5693   -4159.2541    9.5502087   0.19111846 
  497600   -679.32552    40.312713   -639.01281    1223.0303    6614.2265    9.6188891   0.19415366 
  497700   -678.03744     42.95562   -635.08182    1303.2123   -5033.6337     9.466445   0.24378028 
  497800   -679.21151    38.132495   -641.07901    1156.8856    1796.5298     9.580413   0.20028797 
  497900   -682.05191    40.739227   -641.31268    1235.9701   -1672.7441    9.5777259   0.21903481 
  498000   -678.17939    41.509812   -636.66957    1259.3485    4227.1997    9.5922983   0.23733295 
  498100   -680.24748    43.851822   -636.39566    1330.4018    3076.4799    9.5969054   0.18989046 
  498200   -681.35998    37.647521   -643.71246    1142.1722   -2431.4447    9.5750531   0.20936238 
  498300   -678.54843     39.11789   -639.43054    1186.7811    1917.1409     9.560133   0.20367726 
  498400   -680.12492    45.998377   -634.12654    1395.5252  -0.22637588    9.5677528   0.23421437 
  498500   -680.46733    41.287682   -639.17965    1252.6094    2828.4085    9.6123605    0.2174043 
  498600   -680.77061    38.733073   -642.03754    1175.1062   -2992.0221    9.5563186   0.19961652 
  498700   -674.90446    39.292335   -635.61213    1192.0735   -3582.4136     9.444155   0.23575979 
  498800   -676.39489    40.808768   -635.58613    1238.0799    815.00234    9.5219039    0.2383992 
  498900   -684.49476    41.300873   -643.19389    1253.0097    6281.2596    9.7089888   0.17405571 
  499000   -679.05958    39.371352   -639.68823    1194.4707   -2361.2695    9.5243053   0.21971864 
  499100   -674.79025    39.277782   -635.51247     1191.632   -10945.503    9.3707316   0.24892425 
  499200    -679.0242    38.333241   -640.69096    1162.9759   -823.50162    9.5462933   0.21053118 
  499300   -681.05247    38.061427   -642.99104    1154.7295     9585.825    9.7040576   0.19436615 
  499400   -678.01724    41.497048   -636.52019    1258.9613    978.22963    9.5299307    0.2508595 
  499500   -677.15388     38.67334   -638.48054     1173.294   -2165.5794    9.4851082   0.23840694 
  499600   -682.31801    39.101649   -643.21636    1186.2883   -7287.2925    9.5229211   0.20755311 
  499700   -678.96145    43.355355    -635.6061    1315.3397    339.30215      9.53639   0.25663143 
  499800   -678.63402    42.697635   -635.93638    1295.3854    4768.9178    9.5739706   0.22696299 
  499900   -681.55326     41.01606    -640.5372    1244.3688    3865.5921    9.6359507   0.20916094 
  500000   -680.39779    38.177195   -642.22059    1158.2417   -171.70593    9.5720947   0.21174662 
Loop time of 350.071 on 1 procs for 500000 steps with 256 atoms

Performance: 617.018 ns/day, 0.039 hours/ns, 1428.283 timesteps/s
100.3% CPU use with 1 MPI tasks x no OpenMP threads

MPI task timing breakdown:
Section |  min time  |  avg time  |  max time  |%varavg| %total
---------------------------------------------------------------
Pair    | 210.31     | 210.31     | 210.31     |   0.0 | 60.08
Neigh   | 13.625     | 13.625     | 13.625     |   0.0 |  3.89
Comm    | 3.8062     | 3.8062     | 3.8062     |   0.0 |  1.09
Output  | 0.15095    | 0.15095    | 0.15095    |   0.0 |  0.04
Modify  | 121.38     | 121.38     | 121.38     |   0.0 | 34.67
Other   |            | 0.804      |            |       |  0.23

Nlocal:    256 ave 256 max 256 min
Histogram: 1 0 0 0 0 0 0 0 0 0
Nghost:    1431 ave 1431 max 1431 min
Histogram: 1 0 0 0 0 0 0 0 0 0
Neighs:    11729 ave 11729 max 11729 min
Histogram: 1 0 0 0 0 0 0 0 0 0

Total # of neighbors = 11729
Ave neighs/atom = 45.8164
Neighbor list builds = 24955
Dangerous builds = 0
    
Total wall time: 0:05:50
