LAMMPS (3 Mar 2020)
Reading data file ...
  orthogonal box = (0 0 0) to (17.469 17.469 17.469)
  1 by 1 by 1 MPI processor grid
  reading atoms ...
  217 atoms
  read_data CPU = 0.00106832 secs
Reading potential file library.meam with DATE: 2012-06-29
Reading potential file LiSi.meam with DATE: 2020-11-07
1 atoms in group Li
Neighbor list info ...
  update every 1 steps, delay 10 steps, check yes
  max neighbors/atom: 2000, page size: 100000
  master list distance cutoff = 6
  ghost atom cutoff = 6
  binsize = 3, bins = 6 6 6
  2 neighbor lists, perpetual/occasional/extra = 2 0 0
  (1) pair meam/c, perpetual
      attributes: full, newton on
      pair build: full/bin/atomonly
      stencil: full/bin/3d
      bin: standard
  (2) pair meam/c, perpetual, half/full from (1)
      attributes: half, newton on
      pair build: halffull/newton
      stencil: none
      bin: none
Setting up Verlet run ...
  Unit style    : metal
  Current step  : 0
  Time step     : 0.00161111
Per MPI rank memory allocation (min/avg/max) = 9.266 | 9.266 | 9.266 Mbytes
Step PotEng KinEng TotEng Temp Press Density c_msdli[4] 
       0   -951.06911    50.256344   -900.81276         1800    -114182.3    1.8918427            0 
     100   -919.33227    34.871844   -884.46043     1248.983    -83884.04    1.8918427    0.2651028 
     200   -911.66236    52.368665    -859.2937    1875.6557   -70709.088    1.8918427   0.10569669 
     300   -893.53921    46.966846   -846.57236    1682.1821   -57468.035    1.8918427    0.2097962 
     400   -908.20141    51.016799   -857.18461    1827.2367   -70318.608    1.8918427   0.44644083 
     500   -905.02642    48.301857   -856.72456    1729.9974   -65892.037    1.8918427   0.40655065 
     600   -904.13084    56.207137   -847.92371    2013.1358   -61719.181    1.8918427   0.24181878 
     700   -907.93423    53.120663   -854.81357    1902.5895   -68010.954    1.8918427   0.46895322 
     800   -905.25174     49.82986   -855.42188    1784.7249   -66285.996    1.8918427    1.9618757 
     900   -902.59796    53.727097   -848.87086    1924.3098   -63856.151    1.8918427   0.12293743 
    1000   -907.21209      46.8767   -860.33539    1678.9534   -69854.436    1.8918427    0.4040685 
    1100   -907.95053    52.708477   -855.24205    1887.8265   -66153.764    1.8918427    0.1129208 
    1200   -904.25623    53.909592   -850.34664    1930.8461   -67835.769    1.8918427  0.054566363 
    1300   -907.63702    47.813662   -859.82335     1712.512   -70469.794    1.8918427   0.16966163 
    1400    -903.9867    48.725345   -855.26135    1745.1652   -68632.737    1.8918427  0.041039211 
    1500   -904.48546    52.435261    -852.0502    1878.0409   -66197.582    1.8918427   0.36578196 
    1600   -907.39721    50.733129   -856.66408    1817.0767   -68869.678    1.8918427  0.046917214 
    1700   -908.77441    51.720265   -857.05415    1852.4323    -70642.77    1.8918427   0.13805156 
    1800   -900.54724    49.362741    -851.1845    1767.9944   -62288.789    1.8918427    5.4147814 
    1900   -903.72262    48.170131   -855.55249    1725.2794   -67069.334    1.8918427    8.3374419 
    2000   -905.88177    42.189609   -863.69216    1511.0788   -69065.829    1.8918427      6.29835 
    2100    -900.8694    48.459484   -852.40992     1735.643    -64649.47    1.8918427    5.4758735 
    2200   -903.91053    53.377645   -850.53289    1911.7937   -66006.537    1.8918427    6.2176435 
    2300   -906.10491    46.782791   -859.32212    1675.5899   -70016.829    1.8918427    5.3520464 
    2400   -898.95233    49.102181   -849.85014    1758.6621   -62149.427    1.8918427    6.9630738 
    2500   -902.80012     50.62897   -852.17115    1813.3461   -66981.017    1.8918427    6.0646843 
    2600   -903.50264    45.735697   -857.76694    1638.0868   -65923.485    1.8918427    5.3888116 
    2700   -901.50317    52.332895   -849.17027    1874.3745   -65063.803    1.8918427    6.1454664 
    2800   -903.70392    51.024455   -852.67947    1827.5109   -66987.526    1.8918427    5.1774189 
    2900   -903.66481    46.190124   -857.47469    1654.3627   -69843.842    1.8918427    6.5389464 
    3000    -902.0438    48.416072   -853.62773    1734.0881   -64716.417    1.8918427    7.8972515 
    3100   -905.80225    53.710899   -852.09135    1923.7296   -68069.047    1.8918427    7.0943114 
    3104   -906.62632    54.576629   -852.04969    1954.7369   -69104.613    1.8918427    7.0414509 
Loop time of 1.70166 on 1 procs for 3104 steps with 217 atoms

Performance: 253.915 ns/day, 0.095 hours/ns, 1824.102 timesteps/s
100.0% CPU use with 1 MPI tasks x no OpenMP threads

MPI task timing breakdown:
Section |  min time  |  avg time  |  max time  |%varavg| %total
---------------------------------------------------------------
Pair    | 1.6339     | 1.6339     | 1.6339     |   0.0 | 96.02
Neigh   | 0.036062   | 0.036062   | 0.036062   |   0.0 |  2.12
Comm    | 0.013917   | 0.013917   | 0.013917   |   0.0 |  0.82
Output  | 0.00097856 | 0.00097856 | 0.00097856 |   0.0 |  0.06
Modify  | 0.012967   | 0.012967   | 0.012967   |   0.0 |  0.76
Other   |            | 0.00386    |            |       |  0.23

Nlocal:    217 ave 217 max 217 min
Histogram: 1 0 0 0 0 0 0 0 0 0
Nghost:    902 ave 902 max 902 min
Histogram: 1 0 0 0 0 0 0 0 0 0
Neighs:    3622 ave 3622 max 3622 min
Histogram: 1 0 0 0 0 0 0 0 0 0
FullNghs:  7244 ave 7244 max 7244 min
Histogram: 1 0 0 0 0 0 0 0 0 0

Total # of neighbors = 7244
Ave neighs/atom = 33.3825
Neighbor list builds = 66
Dangerous builds = 0
Total wall time: 0:00:01
