LAMMPS (3 Mar 2020)

# ---------- 1. Initialize simulation ----------
units metal
atom_style atomic
dimension 3
boundary p p p
read_data /home/modeler/RemLabs/Project/arrhenius_4/T1600.0/n3_T1600.0_timestep3.000000e-03_eqsteps3200_time600_rseed3343/20201205-133351/lammps.data
  orthogonal box = (0 0 0) to (17.469 17.469 17.469)
  1 by 1 by 1 MPI processor grid
  reading atoms ...
  217 atoms
  read_data CPU = 0.0009789 secs

pair_style meam/c
pair_coeff * * library.meam Li Si LiSi.meam Li Si
Reading potential file library.meam with DATE: 2012-06-29
Reading potential file LiSi.meam with DATE: 2020-11-07

group Li type 1
1 atoms in group Li
group Si type 2
216 atoms in group Si

velocity all create 1600.0 3343 dist gaussian

# ---------- 2. Specify equilibration ensemble  ----------
fix 1 all npt temp 1600.0 1600.0 0.15 tchain 2 iso 1.0 1.0 1.0 pchain 2
# fix 1 all nvt temp 1600.0 1600.0 0.15

# ---------- 3. Run equilibration -------------
timestep 0.003
run 3200
Neighbor list info ...
  update every 1 steps, delay 10 steps, check yes
  max neighbors/atom: 2000, page size: 100000
  master list distance cutoff = 6
  ghost atom cutoff = 6
  binsize = 3, bins = 6 6 6
  2 neighbor lists, perpetual/occasional/extra = 2 0 0
  (1) pair meam/c, perpetual
      attributes: full, newton on
      pair build: full/bin/atomonly
      stencil: full/bin/3d
      bin: standard
  (2) pair meam/c, perpetual, half/full from (1)
      attributes: half, newton on
      pair build: halffull/newton
      stencil: none
      bin: none
Per MPI rank memory allocation (min/avg/max) = 8.895 | 8.895 | 8.895 Mbytes
Step Temp E_pair E_mol TotEng Press Volume 
       0         1600   -951.04357            0   -906.37126   -115280.58    5330.9442 
    3200    1622.8827   -952.14075            0   -906.82955   -564.42807    4606.3303 
Loop time of 2.3067 on 1 procs for 3200 steps with 217 atoms

Performance: 359.579 ns/day, 0.067 hours/ns, 1387.266 timesteps/s
100.0% CPU use with 1 MPI tasks x no OpenMP threads

MPI task timing breakdown:
Section |  min time  |  avg time  |  max time  |%varavg| %total
---------------------------------------------------------------
Pair    | 2.2201     | 2.2201     | 2.2201     |   0.0 | 96.24
Neigh   | 0.03637    | 0.03637    | 0.03637    |   0.0 |  1.58
Comm    | 0.014784   | 0.014784   | 0.014784   |   0.0 |  0.64
Output  | 2.5584e-05 | 2.5584e-05 | 2.5584e-05 |   0.0 |  0.00
Modify  | 0.030366   | 0.030366   | 0.030366   |   0.0 |  1.32
Other   |            | 0.005089   |            |       |  0.22

Nlocal:    217 ave 217 max 217 min
Histogram: 1 0 0 0 0 0 0 0 0 0
Nghost:    957 ave 957 max 957 min
Histogram: 1 0 0 0 0 0 0 0 0 0
Neighs:    4244 ave 4244 max 4244 min
Histogram: 1 0 0 0 0 0 0 0 0 0
FullNghs:  8488 ave 8488 max 8488 min
Histogram: 1 0 0 0 0 0 0 0 0 0

Total # of neighbors = 8488
Ave neighs/atom = 39.1152
Neighbor list builds = 61
Dangerous builds = 0

# ---------- 4. Describe computed properties----------
compute msdli Li msd
compute msdsi Si msd
thermo_style custom step pe ke etotal temp press density c_msdli[4] c_msdsi[4]
thermo 100

# ---------- 3. Run production -------------
timestep 0.003
run 200000
Per MPI rank memory allocation (min/avg/max) = 9.664 | 9.664 | 9.664 Mbytes
Step PotEng KinEng TotEng Temp Press Density c_msdli[4] c_msdsi[4] 
    3200   -952.14075    45.311196   -906.82955    1622.8827   -564.42807    2.1894453            0 5.7492575e-33 
    3300   -951.64012    45.821493   -905.81862    1641.1597    10297.397    2.2143077  0.027905882   0.10573318 
    3400   -946.69603    47.349621   -899.34641    1695.8917   -5520.2197    2.1625846  0.062805596   0.11189611 
    3500   -949.97883    45.156733   -904.82209    1617.3504   -13609.223    2.1514213  0.015203513   0.11380484 
    3600    -945.2764    42.118448   -903.15795    1508.5301    4900.8436    2.1931857   0.11656012   0.13436986 
    3700   -940.98693    46.325027    -894.6619    1659.1945    11481.516    2.1940516     0.142156   0.10620041 
    3800    -947.4808    44.502485   -902.97832    1593.9176   -3365.6987    2.1699137  0.011633025   0.11265722 
    3900   -945.70855    40.994235   -904.71432    1468.2648    -8812.312    2.1581703  0.029627703   0.12291134 
    4000     -945.372    47.876896   -897.49511    1714.7768     4702.401    2.1855247  0.048825346   0.10825095 
    4100    -945.7962     46.12583   -899.67037      1652.06    8399.5149    2.1944105   0.10650912   0.10036169 
    4200   -949.03205    43.646674   -905.38538    1563.2656   -7745.6105    2.1656342   0.15574742    0.1076423 
    4300   -943.05205    42.046271   -901.00577    1505.9449   -5589.1503     2.159055    6.8348748   0.14263926 
    4400   -938.37801    43.585699   -894.79231    1561.0817    6938.4435    2.1806899    5.1780069   0.17208596 
    4500   -947.03146    43.459882   -903.57157    1556.5754    4720.5203    2.1938388    3.0107394   0.14604861 
    4600   -947.10062    45.158834   -901.94179    1617.4257   -7724.6553    2.1536945    3.4189308   0.12276885 
    4700    -941.4285    44.888986   -896.53951    1607.7607   -1779.3266    2.1588868    5.5474437   0.15152426 
    4800   -948.32788    43.429286    -904.8986    1555.4795    11504.132    2.2062412    5.3257228   0.14729428 
    4900   -945.84296    43.175595   -902.66736    1546.3932    1608.5496    2.1798405    6.2523629   0.13951196 
    5000   -940.88618     42.85883   -898.02735    1535.0479    -5690.858    2.1514895     8.049073   0.15555162 
    5100   -950.03911    43.295559   -906.74355    1550.6899   -80.671743    2.1855479    4.0740026   0.14376019 
    5200   -946.28115    43.742791   -902.53836    1566.7081    8506.0762    2.1981853    3.0231922   0.13653767 
    5300   -945.30008    47.227273   -898.07281    1691.5097   -1802.1305    2.1693235     14.36827   0.14353815 
    5400   -945.70836    42.873472   -902.83489    1535.5723   -8365.5284    2.1585444    15.970378   0.15366443 
    5500   -949.10981    44.076533   -905.03328    1578.6616   -406.09741    2.1807969    12.692828   0.13762829 
    5600   -944.07105    46.604815   -897.46623    1669.2155    9526.5123    2.1927561    22.446572   0.13793322 
    5700   -946.79857    43.416593   -903.38198    1555.0249   -532.76518    2.1759999    23.619576   0.12393087 
    5800   -948.53577    40.550716   -907.98505    1452.3796   -8467.4399    2.1628529    22.185434   0.11636216 
    5900   -943.22216    43.867339   -899.35482     1571.169    1760.0218    2.1736793    21.848804   0.14072343 
    6000   -948.18887    45.907198   -902.28167    1644.2294    8182.6167    2.2020903    21.059189   0.13399835 
    6100   -950.62551    43.118558   -907.50695    1544.3504   -558.58912    2.1831677    19.743477   0.11254882 
    6200    -943.1374    43.816915   -899.32049     1569.363   -7990.1866    2.1497771     19.51133   0.12981884 
    6300   -947.68626    45.459604   -902.22665    1628.1982    2152.8044     2.183263    20.518838   0.11574837 
    6400   -950.52449     44.77189    -905.7526    1603.5667     7177.762    2.2034141    20.105042   0.11947802 
    6500   -943.27134    44.731004   -898.54034    1602.1023   -587.64652    2.1690897    23.221627    0.1384575 
    6600   -945.82733    43.874006   -901.95332    1571.4078   -8052.0473    2.1562765    20.149245   0.12394828 
    6700    -946.7876    40.592774   -906.19482    1453.8859    2577.2286    2.1908938    21.194743   0.11994999 
    6800   -944.92047    46.711383   -898.20909    1673.0323    8989.8859    2.1989144     19.15853   0.13839191 
    6900   -945.79381    43.339926   -902.45388     1552.279   -749.56417    2.1766847    21.005487   0.14132539 
    7000   -949.37221    41.829651   -907.54256    1498.1864   -10580.953    2.1606724    22.317796    0.1342381 
    7100   -945.93517    45.884088   -900.05108    1643.4016    1976.7651    2.1830494    22.988104   0.13151125 
    7200   -947.75536    46.247543   -901.50782    1656.4193    9205.3232     2.207645    21.516525   0.12088336 
    7300   -949.26951    41.049558   -908.21995    1470.2463   -1042.1044    2.1802868    21.885002   0.11612662 
    7400   -944.82347     43.67999   -901.14348    1564.4588    -12843.15    2.1412628    24.624756   0.11850871 
    7500   -948.02771     47.37699   -900.65072     1696.872    3544.9341    2.1879598    21.658528   0.11631872 
    7600   -952.35774    46.876423   -905.48132    1678.9435     17496.94    2.2336587    23.087425   0.13128554 
    7700   -945.59947    46.700548   -898.89893    1672.6443    -6760.362    2.1589557    21.749505   0.11909394 
    7800   -945.48131    45.346849   -900.13446    1624.1597   -14498.285    2.1400408    19.502875   0.12705312 
    7900    -948.3276    43.527639   -904.79996    1559.0022    5559.8319    2.1949646    19.430789   0.14371985 
    8000   -951.31969    46.930861   -904.38883    1680.8933    5004.2029    2.1992811    20.381559   0.12522114 
    8100   -946.02877     48.83253   -897.19624    1749.0041    -6427.465    2.1599051    23.545974   0.12117412 
    8200   -951.67608    46.444752   -905.23132    1663.4826   -6413.8018    2.1751418     23.38004   0.10460005 
    8300   -943.74386    40.265032   -903.47883    1442.1474    6624.9447    2.1939892    20.503218   0.12291274 
    8400   -944.59301    48.368247   -896.22476    1732.3752    401.84189    2.1755007    24.089371   0.12008615 
    8500   -946.26215    41.482141   -904.78001    1485.7399    99.084943    2.1766628    23.324882   0.12631898 
    8600   -948.74871     44.48545   -904.26326    1593.3075   -3023.5651    2.1734334    22.752389   0.12784074 
    8700    -946.5928    48.666202    -897.9266    1743.0469     3391.759    2.1811254    19.873169   0.12233416 
    8800   -950.81044    44.964972   -905.84546    1610.4822    3083.2709    2.1932002    22.465051   0.12723824 
    8900   -951.52234    46.050248   -905.47209    1649.3529   -7635.6003    2.1703083    19.338924   0.11623355 
    9000   -944.51507    44.559285   -899.95578     1595.952   -2287.0306    2.1675994    20.820501   0.12442805 
    9100   -952.19488    46.663555   -905.53132    1671.3193    4733.0922    2.2033649    20.356118   0.11062423 
    9200   -952.33002     45.38394   -906.94608    1625.4881    1892.6954    2.1951049    19.757896   0.11568951 
    9300   -946.50468    45.776269   -900.72841    1639.5399   -8018.4823    2.1588718    24.999081   0.12072362 
    9400   -949.85184    46.184688   -903.66715     1654.168   -3721.4215    2.1735708    22.974431   0.10277272 
    9500   -952.90649    45.441237   -907.46525    1627.5403    7830.3392    2.2100468     20.44322    0.1226168 
    9600   -947.49037    48.803643   -898.68673    1747.9695    745.70394     2.178389    18.981604    0.1319781 
    9700   -943.51487    40.602761   -902.91211    1454.2436   -9097.5953    2.1523032    13.970607   0.15087144 
    9800   -949.14936    42.526084   -906.62328    1523.1301   -1046.6216    2.1791268    19.095022   0.13401868 
    9900   -949.09823    44.767052   -904.33118    1603.3935    17480.722    2.2214904    22.258731   0.13259912 
   10000   -942.76938    43.944242   -898.82514    1573.9234   -867.33118    2.1685592    22.632301   0.15125116 
   10100   -942.41914    39.873584   -902.54555    1428.1272   -15312.744     2.131557    32.838682   0.14620937 
   10200   -945.82351     43.37259   -902.45092    1553.4489    1095.3344    2.1780651    26.574892   0.15181838 
   10300    -944.2204    48.447318   -895.77308    1735.2072    11350.665    2.1969773    24.536224   0.16880178 
   10400   -942.33429    46.177625   -896.15667    1653.9151   -1536.8744    2.1614393    30.484136   0.16111172 
   10500   -945.62331    43.275132   -902.34817    1549.9583   -5942.0765    2.1572525    23.823614   0.13827948 
   10600   -948.37245    43.807424   -904.56503     1569.023    1218.7938    2.1848158    19.629942   0.14145148 
   10700   -952.23587    43.134493   -909.10138    1544.9211    3916.5073    2.2020864    20.968689   0.14199881 
   10800   -953.40989    38.424993    -914.9849    1376.2439   -3108.1662    2.1876102    21.274592   0.11398175 
   10900   -949.73173    42.572743   -907.15899    1524.8013   -5987.9158    2.1703304    21.698856   0.12544363 
   11000   -949.75304     44.79066   -904.96238     1604.239    11005.405    2.2099539    21.612035    0.1237969 
   11100   -951.98829    48.684931   -903.30335    1743.7177    160.17221    2.1902424    17.545449    0.1188881 
   11200   -945.08328    42.372141   -902.71113    1517.6164   -9050.2474    2.1575209    21.237385   0.14691737 
   11300    -943.2698    47.421644   -895.84816    1698.4713   -1872.7614    2.1648849    20.510892   0.14157295 
   11400   -944.24176    46.830872   -897.41089     1677.312    5991.1933    2.1911556    19.520607   0.15166679 
   11500   -946.77129    44.278502   -902.49279    1585.8954   -1074.9488    2.1786125    21.395009   0.13107111 
   11600   -945.53162    42.407697   -903.12392    1518.8899   -1582.9939    2.1712647    22.886013   0.12461766 
   11700   -946.85314    44.074062   -902.77907     1578.573    1926.2421    2.1837511    20.266823   0.13386369 
   11800   -937.53329    44.979517   -892.55377    1611.0032    3305.3628    2.1665075    21.472698   0.13236886 
   11900   -943.07237    42.758207   -900.31416    1531.4439    4852.3352    2.1805958     20.88437   0.12859111 
   12000   -947.27908    43.602757   -903.67632    1561.6926   -3096.6034    2.1745828    19.368549   0.13569228 
   12100   -949.27554     45.77523   -903.50031    1639.5027   -4916.3465    2.1710825    21.432987   0.11960206 
   12200   -943.24132    49.275732   -893.96559     1764.878    3879.6056    2.1750634    20.429477    0.1388257 
   12300   -949.01677    47.455822   -901.56095    1699.6955    9158.0898    2.2033348    19.649015    0.1228496 
   12400   -949.07118    44.668445   -904.40273    1599.8617   -7770.5405     2.164163    20.557041   0.11888111 
   12500   -943.52035    43.815829   -899.70452    1569.3241   -10079.877    2.1460228    21.123239   0.13545175 
   12600   -939.33102    45.840013   -893.49101     1641.823    9321.7815     2.184053    20.775314   0.12331584 
   12700   -946.02094    42.940524   -903.08041    1537.9738    13347.213    2.2106395    22.264989   0.12519029 
   12800   -944.77401     41.56461    -903.2094    1488.6936   -5444.7871    2.1598108    20.503156   0.11042565 
   12900   -947.75363    47.476212   -900.27742    1700.4257   -9564.3006    2.1503109    21.437047   0.11469261 
   13000   -950.75356    40.648533   -910.10503     1455.883    7917.7108    2.2090017    19.467576   0.12885127 
   13100   -952.18338    45.809227   -906.37415    1640.7204     2996.399    2.1961127    20.739515   0.12814373 
   13200   -945.42656    43.305371   -902.12118    1551.0413   -2802.0933    2.1635298    21.476041   0.12071455 
   13300   -948.47079    47.163256   -901.30753    1689.2168   -4591.5809    2.1673078    22.616003   0.11208825 
   13400   -950.42128    40.527769   -909.89351    1451.5577     7623.487    2.2087657    21.514244   0.10607744 
   13500   -949.99365    47.570148    -902.4235    1703.7902   -2010.3552    2.1783076    23.823196   0.10705313 
   13600   -946.71926    44.909962   -901.80929     1608.512   -4907.3925    2.1634856    20.835928   0.10991819 
   13700   -950.53429    42.979331   -907.55496    1539.3638    -602.9351    2.1842726    19.427961   0.10736372 
   13800   -948.06541    41.331337   -906.73408    1480.3386    9476.0953    2.2042062    20.987027   0.11911202 
   13900   -947.96219    47.698118   -900.26407    1708.3736   -1710.1415    2.1769477    19.457654    0.1267292 
   14000   -945.76477    41.278326   -904.48644      1478.44   -9959.2367    2.1513284    19.433802    0.1283936 
   14100   -948.57181     43.63747   -904.93434    1562.9359    1560.4776    2.1853637    19.787071   0.11563056 
   14200   -944.13994    49.067498   -895.07245    1757.4199    14583.075     2.205501    22.971505   0.11609015 
   14300   -945.66572    44.750943   -900.91478    1602.8165   -3708.7227     2.170702    20.393153    0.1017373 
   14400   -949.25989    44.054405   -905.20548     1577.869   -17443.917    2.1406844    24.559194   0.11431382 
   14500   -947.57483    47.780621   -899.79421    1711.3286    4351.0533    2.1874268    24.401222   0.11786517 
   14600   -938.38188    42.543543   -895.83834    1523.7554    12976.937    2.1979581    21.456041   0.13329204 
   14700   -946.94745    41.815202   -905.13225    1497.6689   -830.61226    2.1779897    19.754932   0.12175164 
   14800   -948.08919    44.612196   -903.47699    1597.8471   -5776.8489    2.1652394     18.99578   0.11076373 
   14900   -943.44546    44.735741   -898.70972     1602.272    3177.6975    2.1753603    20.061832   0.13889492 
   15000   -949.62628    44.958667   -904.66761    1610.2564    1954.3258    2.1862723    20.861522   0.11844169 
   15100   -949.91801    43.517764   -906.40025    1558.6485   -2342.0151    2.1775144    21.322457   0.11947477 
   15200   -949.81562    47.260855   -902.55477    1692.7124   -4032.2555    2.1745282    23.270531   0.11026446 
   15300   -945.49754    45.369871   -900.12767    1624.9842    3851.2435    2.1837054    23.503658   0.11226825 
   15400   -952.03737    42.464555   -909.57282    1520.9263     3874.936    2.1948647    22.351989  0.096229463 
   15500   -945.20395    40.942739   -904.26121    1466.4204   -4753.4975     2.160126    21.546293   0.12071106 
   15600   -943.64774    42.329531   -901.31821    1516.0903    2173.5731    2.1733855    19.553322   0.14517718 
   15700   -949.81456    43.754538   -906.06002    1567.1289    9187.4301    2.2067979    18.900668    0.1267848 
   15800   -949.87456    40.719936   -909.15462    1458.4404    1496.1312    2.1867021    21.087106   0.12522571 
   15900   -946.46909    44.705766   -901.76332    1601.1984   -13079.321    2.1383372    21.462738    0.1156845 
   16000   -948.55395    45.510149    -903.0438    1630.0085    1218.4019    2.1778604    23.765099   0.11980246 
   16100   -952.63859    46.260719   -906.37787    1656.8912    16293.086    2.2284322    24.714901   0.11864096 
   16200   -945.27392    48.877395   -896.39652     1750.611   -5210.0649    2.1552192      22.7743   0.12034637 
   16300   -943.78051    42.478837   -901.30167    1521.4379   -7697.2061    2.1476286    21.861113   0.11355848 
   16400    -950.5221     46.41557   -904.10653    1662.4374    2624.1007    2.1894753    20.505671   0.10456661 
   16500   -950.50876    45.155347   -905.35342    1617.3008    5593.7383    2.1980292    19.767236      0.13494 
   16600   -943.42288    47.732946   -895.68994     1709.621   -5951.8911    2.1510206    20.826019   0.13329818 
   16700   -948.75593    46.024623   -902.73131    1648.4351   -4685.1774    2.1689289    20.915618    0.1189879 
   16800   -947.94104    43.768291   -904.17275    1567.6214    3747.7183    2.1883764    19.474412   0.12552546 
   16900   -943.90026    46.694501   -897.20576    1672.4277       2858.2    2.1750961    20.249704   0.12031816 
   17000    -947.1921     47.64317   -899.54893    1706.4056   -5590.9922    2.1572146    22.842817   0.12271527 
   17100   -948.85927    43.644497   -905.21477    1563.1876   -3065.8015    2.1731703    21.283107   0.11783631 
   17200   -948.00223    47.093738   -900.90849    1686.7269    4594.0165    2.1871841    20.611458   0.10820448 
   17300    -944.0508     47.18357   -896.86723    1689.9444    701.10294    2.1707231    19.226002   0.12658594 
   17400   -949.65255     43.74569   -905.90686     1566.812   -3807.8122    2.1746713    23.414086   0.13240284 
   17500   -950.74813    48.653937   -902.09419    1742.6076   -6581.0487    2.1660034    26.777265   0.12705211 
   17600    -944.9136    47.281654   -897.63195    1693.4574    4859.9136    2.1809536    23.981609   0.15092692 
   17700   -949.54784    43.394279   -906.15356    1554.2257    5142.5548    2.1962946    43.514607   0.14702884 
   17800   -944.39683    41.266254   -903.13058    1478.0076    -13445.11    2.1435156    37.462533   0.14517235 
   17900   -945.61588    45.770044   -899.84584     1639.317   -6937.6814     2.155698    32.042442   0.14577454 
   18000   -950.17402    45.960311    -904.2137    1646.1317    14218.853    2.2199471    34.932602   0.14965623 
   18100   -951.26458    44.328091   -906.93649    1587.6715    4637.4188    2.1960565     38.24113   0.13340931 
   18200   -943.93472    44.209223    -899.7255     1583.414    -14840.62    2.1332905    39.647293    0.1533136 
   18300   -945.69488    44.749394   -900.94549     1602.761   -905.13443    2.1743031    15.356851   0.12959683 
   18400   -949.17855    42.657573   -906.52098    1527.8396    10299.395    2.2081756    18.691522   0.12791356 
   18500   -943.77898     45.79053   -897.98845    1640.0507   -34.961294    2.1706632    28.542831   0.15099945 
   18600   -943.75027    43.030058   -900.72022    1541.1806   -4978.8494    2.1578186    29.447406    0.1522506 
   18700   -945.79564    40.766456   -905.02918    1460.1066    3627.9705    2.1859361    25.116812   0.13266985 
   18800   -946.99353    46.763414   -900.23012    1674.8959     3259.584    2.1853377    26.813249   0.14548187 
   18900   -943.26847     45.29159   -897.97688    1622.1805   -2108.4745    2.1637558    28.358894   0.15356596 
   19000   -947.89545     42.63225    -905.2632    1526.9326    -2996.231    2.1703523    26.004571   0.15322029 
   19100   -947.52431    46.861218   -900.66309    1678.3989    3139.4908    2.1816268    31.802914   0.16519758 
   19200   -943.40531     47.92173   -895.48358    1716.3826    4967.1135    2.1800922    31.068415    0.1580572 
   19300   -945.75146    40.675912   -905.07555    1456.8637    -1296.404    2.1787765    28.621441   0.16039977 
   19400   -945.46985    42.905829   -902.56402    1536.7312   -8701.1678    2.1534176    29.806813   0.14548534 
   19500   -941.69404    44.071119   -897.62292    1578.4677      1465.93    2.1752473    24.439529   0.18226124 
   19600   -949.69328    43.730577   -905.96271    1566.2707     15511.08    2.2229163    25.494582   0.16387407 
   19700   -943.11673     40.29245   -902.82428    1443.1294   -5603.1716    2.1635752    37.600126   0.15474623 
   19800   -942.68763    42.736112   -899.95152    1530.6526   -12813.068    2.1391955    38.094143   0.14982873 
   19900   -950.14773    45.368259   -904.77948    1624.9265    6064.7592    2.1968881    41.139097   0.12888411 
   20000    -949.4978    43.794099    -905.7037    1568.5458    12811.326     2.215438    38.714023   0.13192639 
   20100    -944.4408    45.785457   -898.65534     1639.869   -7607.8232    2.1501691    27.135898   0.15228565 
   20200   -951.45499     47.94122   -903.51377    1717.0806   -11889.052      2.15516    31.748678   0.14042378 
   20300   -950.57851    46.806664   -903.77185     1676.445    3714.2415    2.1935608    30.087371   0.13346759 
   20400   -942.50801    46.923959   -895.58405     1680.646    5831.4931    2.1826291    29.605381    0.1542147 
   20500    -944.0376    41.922119   -902.11548    1501.4983   -3588.5272    2.1685422    40.117997   0.16155667 
   20600   -945.33345    41.811415   -903.52203    1497.5332   -4755.3929    2.1625374    37.807657   0.14055172 
   20700   -942.89072    48.330795   -894.55992    1731.0338    5196.8244    2.1800102    37.559079   0.14086363 
   20800   -947.21453    45.673029   -901.54151    1635.8423    7096.8843    2.1968108    43.323374   0.14479737 
   20900   -946.25254    42.105436    -904.1471     1508.064   -8071.1601      2.15695    39.685784   0.14437404 
   21000    -942.8624    45.856696    -897.0057    1642.4205   -7008.6135    2.1504089    16.667701   0.14373252 
   21100   -948.34695    44.096582   -904.25037    1579.3796    5312.8426    2.1966553    19.742213   0.14452038 
   21200   -945.13583    40.569792   -904.56603    1453.0628    4512.5727    2.1871555    19.734457   0.14923369 
   21300   -943.83868    45.353707   -898.48498    1624.4053   -2667.3594    2.1606439    23.769074   0.14760621 
   21400    -948.0256    45.499397    -902.5262    1629.6234   -6180.7294     2.168155    22.376562   0.13975875 
   21500   -946.11547    40.727608   -905.38786    1458.7152    4631.5211    2.1915495    15.857359   0.14902277 
   21600   -947.05887    48.996876   -898.06199    1754.8904    1099.8173     2.175679    19.325277    0.1338547 
   21700   -946.24793      43.0394   -903.20853    1541.5152    -4737.103    2.1691316    26.081279   0.13784889 
   21800    -946.4139    40.598833   -905.81507     1454.103   -3165.2484    2.1705336    20.181617   0.16713635 
   21900   -945.65812    47.553757   -898.10436    1703.2031     1725.124    2.1776081    19.985412   0.13932367 
   22000   -945.35591    42.062286   -903.29362    1506.5185    6719.8645    2.1939852    17.790501   0.15683632 
   22100   -948.81836    43.032216   -905.78614    1541.2579   -3809.6436    2.1730322     20.69943   0.13902976 
   22200   -945.31631     46.82418   -898.49213    1677.0723   -10808.932    2.1464917    20.973788   0.13372803 
   22300   -946.60745    43.507095   -903.10036    1558.2664    9140.7617    2.2013011    21.889181   0.14580969 
   22400    -951.3199    47.282642   -904.03726    1693.4928    15144.902    2.2246391     23.32706   0.14540414 
   22500    -941.4814     42.81278   -898.66862    1533.3985   -11749.458    2.1337859    18.244351   0.13475686 
   22600    -945.9374    46.100177   -899.83722    1651.1412   -15790.171    2.1346378    21.104111    0.1571783 
   22700   -950.50344     46.09567   -904.40777    1650.9797    10975.543    2.2107404    19.431196   0.14351793 
   22800   -946.59335    47.307046   -899.28631    1694.3668    8570.5055    2.2018339    14.342057   0.15971505 
   22900   -944.67838    45.886478    -898.7919    1643.4872    -8706.351    2.1492402    21.598068   0.15549197 
   23000   -948.65963    42.975422   -905.68421    1539.2238   -7598.1369    2.1658888    21.402043   0.14753216 
   23100   -944.17364    44.360068   -899.81357    1588.8167    4761.9561    2.1908674    22.745035   0.14173905 
   23200   -943.12638     44.50811   -898.61827    1594.1191    5625.9543     2.188802    21.140485   0.15321683 
   23300    -948.8892    42.313373   -906.57583    1515.5116   -3698.1755    2.1772726    25.125877   0.13971482 
   23400   -947.05975    45.823659   -901.23609    1641.2373   -2946.7722    2.1722939    24.686485   0.15079139 
   23500   -945.72369    48.156409   -897.56728    1724.7879    3413.7073    2.1828326    18.804139   0.15226927 
   23600   -952.31426    45.769824   -906.54444    1639.3091    4637.5012    2.1974722    19.409123   0.14209757 
   23700    -942.9157    40.875965   -902.03973    1464.0288   -6310.4916    2.1588005     20.39382   0.17771765 
   23800   -947.32275    47.953311   -899.36944    1717.5137   -6988.6533     2.159041    20.773306   0.16833474 
   23900   -948.40126    41.911471   -906.48979    1501.1169    8593.1547    2.2039331    20.894199   0.15444789 
   24000   -945.53158    43.511503   -902.02007    1558.4242    7057.7948    2.1941715    26.236885   0.14951043 
   24100   -942.85224    44.037104   -898.81513    1577.2494   -8191.4168    2.1513394     11.36127   0.14808825 
   24200   -944.87821    39.273382   -905.60483    1406.6301   -4238.7095    2.1699226     22.81356   0.15730212 
   24300   -947.73332    44.146885   -903.58643    1581.1813    11861.523    2.2104805    19.878083   0.15139228 
   24400   -943.81404    47.340656   -896.47338    1695.5706    5615.3879    2.1864056     25.68166   0.15415693 
   24500   -947.60877    43.886843   -903.72193    1571.8676    -12251.16      2.14583    18.800464   0.13838884 
   24600   -946.09322    42.631954   -903.46127     1526.922   -3912.6356    2.1670485    25.302458   0.15650259 
   24700   -941.54288    46.734558   -894.80832    1673.8624    15091.297    2.2089527    8.3932373   0.16670148 
   24800   -946.57945    44.863272   -901.71618    1606.8397    2688.5819    2.1897352    9.8656723   0.14604503 
   24900   -945.05418    39.542903   -905.51128    1416.2834   -6855.0597    2.1623235    9.6786218   0.13321548 
   25000   -944.78083     47.80624   -896.97459    1712.2462   -1752.4981    2.1669177    14.532947   0.13549099 
   25100   -948.99182     46.89361   -902.09821    1679.5591    3834.9981    2.1934697    21.453581    0.1535504 
   25200   -946.99762    42.037005   -904.96061    1505.6131    527.69724     2.185501    28.000588   0.15229858 
   25300   -944.15932    46.118278   -898.04104    1651.7895   -1596.2094    2.1676573    44.264514   0.13071161 
   25400   -951.18043    46.604217   -904.57621    1669.1941   -2199.8864    2.1808908    48.506043   0.11614972 
   25500   -949.26866    43.629321   -905.63934    1562.6441    1220.8666    2.1874717    46.566543    0.1146409 
   25600   -944.43844    45.429324   -899.00912    1627.1136    3799.1142    2.1810347    45.801687   0.13373869 
   25700   -950.97791    45.820512    -905.1574    1641.1246   -4021.4514    2.1802734    42.763907    0.1486322 
   25800    -946.8848    40.261958   -906.62284    1442.0373   -1614.2909    2.1805007    45.050116   0.14513134 
   25900   -945.30657    45.938943   -899.36762    1645.3663    2006.4537    2.1802462    44.203181   0.13358182 
   26000   -951.89909    47.226264   -904.67282    1691.4735     2250.758    2.1921723    48.966995   0.11568857 
   26100   -949.91254    42.018936   -907.89361    1504.9659   -4119.7785    2.1796167     50.64896   0.11884005 
   26200   -945.42414    45.746906   -899.67723    1638.4883   -5028.8768    2.1649407    46.092206   0.14694907 
   26300   -950.47844     46.76601   -903.71243    1674.9889    4615.8793    2.1944322    42.301685   0.12871109 
   26400   -952.58861    46.082102   -906.50651    1650.4938    5653.3118    2.2047082      47.9276   0.12292245 
   26500   -943.28512    45.365579   -897.91954    1624.8305   -5265.7878    2.1546244    43.988224   0.13106626 
   26600   -947.95981    44.127143   -903.83266    1580.4742   -5876.9549    2.1660459    45.808118    0.1245347 
   26700   -950.07015    45.259517   -904.81063    1621.0318    8397.1744    2.2054791     46.21915     0.141488 
   26800   -943.83095    47.396174   -896.43478    1697.5591     6157.554    2.1915223    42.797854   0.14924291 
   26900    -945.8511    43.090991   -902.76011     1543.363   -8720.1268     2.158443    44.413697   0.13707193 
   27000   -949.89212    43.712488   -906.17964    1565.6228   -8928.9774    2.1648407     46.60685   0.12072299 
   27100   -946.40443    48.349038    -898.0554    1731.6872    8091.4408    2.1954582    44.403932   0.12142683 
   27200   -947.95466    46.003934   -901.95072    1647.6941    6524.3435    2.1980434    47.889326   0.13309762 
   27300   -950.02557    42.838778    -907.1868    1534.3297   -8714.9762    2.1643791    47.668277   0.12808996 
   27400   -947.57995    46.981646    -900.5983    1682.7122   -5551.1139    2.1623706    47.298931   0.12005397 
   27500   -944.36595    43.256134   -901.10982    1549.2778    6687.4578    2.1889261     46.65652   0.11949348 
   27600   -949.84568    42.138882    -907.7068    1509.2619    4295.7862    2.1953841    44.585342   0.11939591 
   27700   -942.96043    41.857971   -901.10246    1499.2007   -1905.2566    2.1665809    50.091516   0.12808205 
   27800   -948.01912    46.553567   -901.46556    1667.3799   -4213.7061    2.1683226    47.972298   0.14368139 
   27900   -950.98124     42.44754    -908.5337     1520.317    4188.1812     2.197043    45.651541   0.11593991 
   28000   -946.42728      46.1361   -900.29119    1652.4278     1362.073    2.1773718    45.395003   0.12010238 
   28100   -945.79115    43.742153     -902.049    1566.6853   -3226.3724    2.1713514    44.774211   0.13356534 
   28200   -948.26376    40.211597   -908.05216    1440.2336    701.31234    2.1828457    44.251936   0.11742504 
   28300   -947.14849    47.057629   -900.09087    1685.4336    3177.7521     2.181818    46.960838   0.12718456 
   28400   -946.68376    45.964333   -900.71943    1646.2757    3589.3969    2.1853999    45.100804   0.13714104 
   28500     -948.429    41.472873   -906.95613    1485.4079    -3488.559    2.1725333    48.577401   0.12511536 
   28600   -948.12165    48.340913   -899.78073    1731.3962   -7666.0011    2.1597387    46.829361   0.12683253 
   28700   -944.94491    45.636821   -899.30809    1634.5454    8896.5481    2.1946121    47.117728   0.13968806 
   28800   -949.66391    44.573172   -905.09074    1596.4494    2869.9329    2.1900337    47.137994   0.12374272 
   28900   -943.13417    41.862321   -901.27185    1499.3565   -10749.774    2.1422919    46.623562   0.13958304 
   29000   -944.19298    46.246905   -897.94608    1656.3964   -3563.4717    2.1567389    46.990939   0.13567734 
   29100   -950.87013    46.281626    -904.5885      1657.64    14551.786    2.2235934    43.910716   0.13537651 
   29200   -945.52415    41.910673   -903.61348    1501.0883    3193.4736    2.1861427     47.07082   0.14466546 
   29300   -945.00832    45.931777   -899.07654    1645.1097   -14060.318    2.1345035    48.195796   0.12762469 
   29400   -953.15063    45.232308   -907.91832    1620.0572   -2602.0274    2.1841345    45.568462   0.12441157 
   29500   -944.13118    39.982935   -904.14824    1432.0437    9656.8863      2.20155    45.998422   0.13478483 
   29600   -944.90633    45.410416   -899.49591    1626.4364     628.5369    2.1737391    45.893646   0.13985986 
   29700   -952.11751     45.81543   -906.30208    1640.9425    -7326.439    2.1678625    46.670265   0.12136073 
   29800   -949.26074     43.44065   -905.82009    1555.8866   -809.06428    2.1840838    46.101105   0.13029927 
   29900   -941.65015    42.957038   -898.69311    1538.5653    6972.9184    2.1853245    46.532423   0.13116438 
   30000   -950.29034    45.180976   -905.10936    1618.2187   -274.92166    2.1830036     48.88113   0.12581819 
   30100   -950.25865    43.492784   -906.76586    1557.7538   -4612.9276    2.1743832     53.16339   0.13944914 
   30200   -943.78764    44.477256   -899.31039     1593.014    -2445.418     2.167487    48.186538   0.14643355 
   30300    -950.6769    46.031614   -904.64528    1648.6855    3371.9802    2.1966774    47.449769    0.1181281 
   30400   -953.85058    47.141342   -906.70924    1688.4319   -720.35429    2.1932033    46.326149   0.11443746 
   30500   -944.83793     46.35843    -898.4795    1660.3908   -9874.6356    2.1495292    47.198107   0.11976045 
   30600   -949.17886    44.295466   -904.88339    1586.5029   -3362.2803    2.1758675    44.549557   0.12445717 
   30700   -953.49005     49.23466   -904.25539     1763.407    10454.229     2.217842    45.273898   0.12901617 
   30800   -942.70042    45.902642   -896.79778    1644.0662    3700.4716    2.1771629    44.904277   0.11867266 
   30900   -949.35004    46.562679   -902.78736    1667.7063   -16854.135    2.1405196    47.605623   0.12439793 
   31000     -948.851    43.627122   -905.22387    1562.5653    -1986.705    2.1808822    49.757891   0.12119354 
   31100   -945.13748    47.736485   -897.40099    1709.7478    12574.756     2.206595    47.089562    0.1338608 
   31200   -949.15099    47.121446   -902.02955    1687.7193   -2001.0611    2.1760597    50.804052    0.1159691 
   31300   -950.36626    43.045518   -907.32074    1541.7343   -10008.118    2.1636974    44.993052   0.11139452 
   31400   -945.39481    45.510927   -899.88389    1630.0364    693.57261    2.1787184    45.681846   0.12368754 
   31500   -944.34203     42.20008   -902.14195    1511.4538    8226.8221    2.1963314    42.366009   0.12438162 
   31600   -947.77916    39.829264   -907.94989    1426.5398    423.28706      2.18537    47.767322   0.12923281 
   31700   -945.75162    44.881318    -900.8703     1607.486   -4676.1015    2.1641585    44.221625    0.1263382 
   31800   -947.90495    46.066424   -901.83852    1649.9322   -113.19183    2.1798512    47.511847   0.12749532 
   31900   -952.66604    44.672442    -907.9936    1600.0049    6056.8135    2.2065944     46.03249   0.11120798 
   32000   -945.55519    45.990526   -899.56466    1647.2139   -3091.1873    2.1724474    46.559083   0.13178593 
   32100   -946.47347    44.389111   -902.08436     1589.857   -4919.8342    2.1685266    46.023355   0.12196263 
   32200   -947.22633    39.524249   -907.70208    1415.6153    2958.6738    2.1895407    42.189253   0.12378854 
   32300   -946.81922    47.672619    -899.1466    1707.4603    5912.7572     2.191934    45.896451   0.13015996 
   32400   -947.35452    46.423208   -900.93131    1662.7109     3528.203    2.1810414     44.21019   0.11785996 
   32500   -946.48764    39.438976   -907.04866    1412.5611   -7503.7079    2.1607707    46.020969   0.12266786 
   32600   -947.87244    47.657512   -900.21493    1706.9193   -2974.0025    2.1696363    46.298929     0.126371 
   32700   -944.95174    46.925094   -898.02664    1680.6867    17266.826    2.2160866     46.51606   0.13715953 
   32800   -947.81579     42.72525   -905.09053    1530.2635    1968.2576    2.1875812    43.397925   0.13418055 
   32900   -945.84043    43.417852   -902.42257      1555.07   -14389.336    2.1434804     44.30061   0.13258557 
   33000   -944.56289    48.160014   -896.40287     1724.917   -1366.7477    2.1701494    44.529371   0.13284525 
   33100   -950.70515    45.375622   -905.32953    1625.1902    10400.037    2.2176253    45.342542   0.13207392 
   33200    -944.6539     40.75032   -903.90358    1459.5287    687.23808    2.1801098    44.935102    0.1427164 
   33300   -948.06351    48.672387   -899.39113    1743.2684   -9847.8614    2.1527165    46.515512   0.12997022 
   33400   -951.04601     43.32558   -907.72043    1551.7651    2434.0873    2.1936108    46.417237   0.12045478 
   33500   -949.81098    45.623476   -904.18751    1634.0675    3925.2637    2.1960223    46.412633   0.12643577 
   33600   -944.38994    44.302543    -900.0874    1586.7564    361.76824    2.1743164    46.202329   0.14188378 
   33700   -952.03949    45.036153   -907.00334    1613.0317   -6192.6353    2.1722919    54.305871   0.13376717 
   33800   -944.46918    41.656188   -902.81299    1491.9736    5333.1813    2.1883376    49.600528   0.13801101 
   33900    -941.1529    42.347725   -898.80518    1516.7419    9009.6383    2.1876192    47.422975   0.13324402 
   34000   -948.74273    42.727433   -906.01529    1530.3417   -3844.4074    2.1701334     46.66419   0.12400667 
   34100   -945.81965    43.065297   -902.75435    1542.4427   -4999.0966    2.1650128    47.164937   0.12750637 
   34200   -944.04381    46.681342   -897.36247    1671.9564    6331.1868    2.1842432    47.482633   0.13981887 
   34300   -947.01429    42.913241   -904.10105    1536.9967     7587.294    2.1953601    45.670899   0.13761666 
   34400   -943.47187    39.419132   -904.05274    1411.8503   -5741.5364    2.1558569    45.526109   0.11873657 
   34500   -943.15447    45.528686   -897.62578    1630.6724   -12044.901    2.1392482    48.198965   0.13229039 
   34600   -947.93858    42.773326   -905.16525    1531.9854    17672.697    2.2211725     43.87007   0.10940433 
   34700   -951.53185    47.183655   -904.34819    1689.9474    8308.7289    2.2061101    44.654367   0.11675712 
   34800     -942.633    42.109391   -900.52361    1508.2057   -11781.184    2.1391959    46.155463   0.12408303 
   34900   -944.51542    42.999015   -901.51641    1540.0688    -5696.065     2.158485    49.188243   0.12577562 
   35000   -949.91341    42.846655   -907.06676    1534.6118    12199.908    2.2132603    46.992935   0.11525369 
   35100   -946.44005    46.249453    -900.1906    1656.4877    2660.1585    2.1842916     44.39101   0.12764326 
   35200   -946.53297    44.009442   -902.52353    1576.2586   -6638.1524    2.1593635    50.527885   0.14045397 
   35300   -952.10732    43.178636   -908.92868    1546.5022   -2918.8553    2.1811314    46.902082   0.11053961 
   35400    -947.0188    46.720073   -900.29873    1673.3436    3702.7056    2.1851271    49.253076   0.12837033 
   35500   -949.30091    47.791888   -901.50902    1711.7321    3670.4565    2.1881712     42.83047     0.115019 
   35600   -948.68762    40.917864   -907.76976    1465.5295   -2882.3883    2.1752053    45.977561    0.1029516 
   35700   -946.15197    46.463441   -899.68853     1664.152   -5059.9043    2.1603564     45.44624   0.11781966 
   35800   -948.39703    48.127447   -900.26958    1723.7506    2326.5924     2.189088    48.345129   0.11626789 
   35900   -949.30593    43.533089   -905.77284    1559.1974    4495.5583     2.194299    45.383438   0.10484432 
   36000    -948.9146    49.443007   -899.47159    1770.8692   -7739.4023    2.1625127    48.055279   0.12967985 
   36100   -943.18454    43.496512   -899.68802    1557.8873   -3255.0689     2.164002    45.561155   0.14473388 
   36200   -953.37607    48.037745   -905.33833    1720.5378    4682.7325    2.1993872    47.238156   0.10787949 
   36300   -947.75098    47.382297   -900.36869    1697.0621    6307.7063    2.1946963    46.350632   0.12974786 
   36400   -943.03313    43.690768   -899.34237    1564.8449   -9647.3845    2.1467371    45.839587   0.12150986 
   36500   -948.53486    40.694743   -907.84012    1457.5381   -6527.0769    2.1648219    48.177126   0.11194499 
   36600   -945.82297    44.178986   -901.64398    1582.3311    14284.297    2.2081151    43.589638   0.12210429 
   36700    -946.5479    47.004664   -899.54323    1683.5366    7877.5378    2.1932496    49.172799   0.10599945 
   36800   -946.79479    38.685006   -908.10979    1385.5566   -9800.9387    2.1575096    46.401619   0.11235337 
   36900    -950.4625    45.720195   -904.74231    1637.5316   -7864.9935    2.1632918    48.613666    0.1123222 
   37000   -948.06044    48.923089   -899.13735    1752.2476    7196.2324    2.1941177    46.717386   0.11375655 
   37100   -950.46493    44.416019   -906.04891    1590.8207    3049.4979    2.1934764     48.06061    0.1257856 
   37200   -949.83953    44.052229    -905.7873    1577.7911   -6789.4482    2.1676482    45.254203   0.12241356 
   37300   -945.44936    46.269647   -899.17972     1657.211   -4850.3673    2.1630822    45.301534   0.11856136 
   37400   -950.27763      46.1705   -904.10713    1653.6599    3045.1805    2.1887457    49.130754   0.10204497 
   37500   -952.86804    46.906288   -905.96175    1680.0131    2246.3158    2.1929607     45.51242   0.10903967 
   37600   -943.47802    46.676964   -896.80106    1671.7996   -5317.2152    2.1539618     50.16246   0.13300297 
   37700   -949.61461    45.633574   -903.98103    1634.4291   -4866.3486    2.1734402    46.820205   0.11656396 
   37800   -947.39987     42.72161   -904.67826    1530.1331    5429.2574    2.1932692    46.188982   0.11447733 
   37900   -947.18733     50.76316   -896.42417    1818.1523   -87.707302    2.1717811    42.705389   0.11146847 
   38000   -947.31332    44.269636   -903.04369    1585.5778   -2950.3981    2.1691277    45.952486   0.12012069 
   38100   -949.97972    44.639245   -905.34048    1598.8159   -5944.4349    2.1714489    46.917426    0.1235303 
   38200   -945.24154    47.168563   -898.07297    1689.4069    6665.8408    2.1876779    46.366004   0.13925866 
   38300   -946.57788    42.628517   -903.94936    1526.7989    7490.0375    2.1967827    47.567968   0.12944523 
   38400   -946.74349     40.09412   -906.64937     1436.026   -10851.706    2.1524192    49.179726   0.12483591 
   38500   -944.49725    42.988606   -901.50864     1539.696   -5937.2303    2.1598984    45.676027    0.1321404 
   38600   -946.99032    46.229365   -900.76096    1655.7682    11989.393    2.2102105    44.822411   0.11590061 
   38700   -951.11585    41.993006   -909.12285    1504.0372    5594.8717     2.202963    47.188247   0.11259422 
   38800   -944.43582    42.530142   -901.90568    1523.2755   -10426.199    2.1445183     44.44044   0.12252622 
   38900   -943.52012    42.368858   -901.15126    1517.4988   -1261.9996    2.1671623    51.035565   0.12020004 
   39000    -950.7319     44.01387   -906.71803    1576.4172    9416.0082     2.211301      49.0616   0.13616875 
   39100   -945.38825    42.789974   -902.59827    1532.5817    3496.3053    2.1871867    52.436703   0.13758558 
   39200   -943.09705    43.368841   -899.72821    1553.3146    -6462.374    2.1565053    50.234595   0.13871983 
   39300   -945.29332     40.53375   -904.75957    1451.7719     753.8857    2.1750694     51.61627   0.13302879 
   39400   -948.58661    45.280113    -903.3065    1621.7694    5821.6472    2.1974986    45.990751   0.12664116 
   39500   -944.13738    47.486307   -896.65107    1700.7873   -1014.9161     2.168598    45.625529   0.14944613 
   39600   -949.45725     44.41126   -905.04599    1590.6503   -6127.7547    2.1694974    44.778802   0.11159008 
   39700   -947.29055    44.597124   -902.69342    1597.3072    1141.4689    2.1800062    45.271046    0.1138858 
   39800   -944.74395    48.458456   -896.28549    1735.6062    4891.7415    2.1821899    44.411016   0.13323888 
   39900    -947.1962    41.664757   -905.53145    1492.2805    2849.5072    2.1871244    46.910369   0.12023793 
   40000   -949.62058    45.484838   -904.13574    1629.1019   -6995.3665    2.1642818    45.743222   0.10852927 
   40100   -947.42266    48.802516   -898.62014    1747.9291   -2605.1492    2.1673351    48.317662   0.11917115 
   40200   -950.98813    44.080755   -906.90737    1578.8128    11936.793    2.2136367    46.205225   0.10903555 
   40300   -950.75389    45.741239   -905.01265    1638.2853   -1752.9166    2.1783786    45.036353   0.12273348 
   40400   -947.04075    46.011349    -901.0294    1647.9597   -15862.128    2.1365271    47.821658   0.13099078 
   40500   -948.47356    45.767876   -902.70569    1639.2393    3237.5288     2.185419    43.473291    0.1105206 
   40600   -948.28444    41.276224   -907.00822    1478.3647    22543.228    2.2377878    44.588688   0.12810165 
   40700   -944.97483    45.183481   -899.79135    1618.3084   -3269.5739    2.1669114    47.514159   0.11585091 
   40800   -945.65741    43.458804    -902.1986    1556.5368   -11771.452    2.1488534    49.045453   0.12466576 
   40900   -950.79552    44.239347   -906.55617     1584.493    1265.4244    2.1912071    45.912315   0.12693687 
   41000   -950.27295    50.828428   -899.44452      1820.49    6480.6422     2.199969    46.774533   0.11197003 
   41100   -945.07859    45.385111   -899.69348    1625.5301   -2832.5524    2.1714387     48.06407   0.12934176 
   41200   -947.69813    42.003089   -905.69504    1504.3983   -6455.6989    2.1655666    46.715496   0.13749335 
   41300   -949.99469    48.445854   -901.54884    1735.1548    2584.5577    2.1890091    45.198364   0.12449912 
   41400    -943.7521    47.385685   -896.36642    1697.1834    6308.3073    2.1889993    45.460804   0.14450575 
   41500   -949.53421    44.626543   -904.90767    1598.3609   -2893.5467    2.1815989    43.198576   0.13188508 
   41600   -946.24459    43.044237   -903.20035    1541.6885   -6697.3219    2.1649115    48.704658   0.12862301 
   41700   -945.71472    49.554699   -896.16002    1774.8696   -564.11236    2.1743545    47.018321   0.12739894 
   41800   -950.14715    44.934948    -905.2122    1609.4069    9770.0696    2.2074746    46.890877   0.10991229 
   41900   -947.10608    43.209152   -903.89693    1547.5951   -2725.9367    2.1732847    43.944949    0.1254319 
   42000   -942.38153    43.174486   -899.20705    1546.3535   -6068.3304    2.1542886    50.086692   0.13743334 
   42100   -952.67748    44.407273   -908.27021    1590.5075    3338.5774     2.200572    47.523149    0.1297726 
   42200   -949.38547    44.657814   -904.72766    1599.4809    6362.4678    2.1988111    45.650102   0.12938597 
   42300   -945.85743    45.575102   -900.28233    1632.3349   -4779.5424    2.1615377    48.168441   0.13746312 
   42400   -946.47651    41.254871   -905.22164    1477.5999   -9419.8253    2.1556767    49.444439   0.14014639 
   42500   -950.63417    44.113413   -906.52076    1579.9825    10394.114    2.2123645    43.821651   0.13323566 
   42600   -944.55246    46.697365   -897.85509    1672.5303    12851.785    2.2086735     47.90051   0.13671099 
   42700   -946.31708    43.304653   -903.01242    1551.0156   -14409.913    2.1445787    46.541011   0.12950456 
   42800   -948.03898     42.02075   -906.01823    1505.0309    -8475.553    2.1586803    46.123265   0.12164238 
   42900   -948.41145    45.046001   -903.36545    1613.3844    12745.432    2.2125473    41.555698   0.13307267 
   43000   -944.99253    46.942338   -898.05019    1681.3043    4111.5355    2.1833271    46.376237   0.13334866 
   43100   -948.60018    44.263179   -904.33701    1585.3465   -9356.9321    2.1620877    45.480422   0.13237357 
   43200   -948.42843     45.09594   -903.33249     1615.173   -3178.0134     2.176541    44.687731   0.14050605 
   43300   -942.24797    47.820469    -894.4275    1712.7558    4492.3507    2.1810816    45.707831   0.14491972 
   43400   -947.21436    44.637614   -902.57675    1598.7575    2763.9007    2.1904906    46.089728   0.14172893 
   43500   -948.95492    44.047729   -904.90719    1577.6299   -5545.6155    2.1694474    47.408646   0.12394137 
   43600   -944.16627     46.79512   -897.37115    1676.0315   -1354.2963    2.1664793    45.119697    0.1285013 
   43700   -945.85272    44.720609   -901.13211      1601.73    4404.4281    2.1907164    47.137515   0.12849794 
   43800   -949.28637     44.36315   -904.92322    1588.9271   -1173.0834    2.1833349    45.013497   0.12243491 
   43900   -947.50462    45.998399   -901.50622    1647.4958   -4894.4309    2.1643356    45.302815   0.13042209 
   44000   -941.71708    45.137356   -896.57973    1616.6564     1589.082    2.1689664    48.012467   0.14214799 
   44100   -949.75621    43.265725   -906.49049    1549.6214     11865.72     2.213352    47.470362   0.14064041 
   44200   -947.86139    44.720581   -903.14081     1601.729   -2784.7551    2.1733421     44.49153   0.13452479 
   44300   -944.08447    42.950363    -901.1341    1538.3262   -12709.225    2.1390218    49.466673   0.12803282 
   44400   -950.29119    40.484334   -909.80685     1450.002    3327.4308    2.1954328    49.928849   0.12458054 
   44500    -949.8625    44.184905   -905.67759    1582.5431    14211.875    2.2167707    44.933706   0.11804476 
   44600   -946.60111    45.068794   -901.53232    1614.2008   -4494.4102    2.1676906    47.921675   0.11057384 
   44700    -944.9685    41.446096    -903.5224    1484.4488   -9994.4611      2.14805    46.076559   0.12266902 
   44800   -950.32466    40.675665     -909.649    1456.8548    4698.1769    2.1990546     45.95589   0.11416952 
   44900   -946.80645    46.409497   -900.39696    1662.2199    5664.1419    2.1899211    44.029702   0.13075655 
   45000   -946.06668    44.092795   -901.97389     1579.244    706.03736    2.1730571    47.592536   0.12764178 
   45100   -947.79222     41.23618   -906.55604    1476.9304    -3325.498    2.1722165     46.07108   0.11810433 
   45200   -947.36675    41.659842   -905.70691    1492.1045    3084.7599    2.1870185    46.253358   0.13174018 
   45300   -948.53112    49.477991   -899.05313    1772.1222   -1756.8337    2.1712169     44.76221   0.12510897 
   45400   -951.51278    47.868729   -903.64405    1714.4843   -4424.2392    2.1721865    46.549138   0.10968084 
   45500   -945.89364    40.265775   -905.62787     1442.174    1040.7125    2.1805007    48.979065   0.11948308 
   45600   -942.10613    46.230745   -895.87539    1655.8176    1564.3605    2.1682552    44.999401   0.12201297 
   45700    -947.1325     45.88977   -901.24273    1643.6051    2400.8256    2.1846683    44.588499   0.12160912 
   45800   -950.46338    45.364351   -905.09903    1624.7865   -5691.9172    2.1721059     49.64413   0.11026142 
   45900   -945.92107    47.143804   -898.77726    1688.5201   -3631.7186    2.1636836    46.647214   0.12971414 
   46000   -946.17893    47.705408   -898.47352    1708.6347    3212.5987    2.1809806    45.102191   0.13064738 
   46100   -952.07389    47.347337   -904.72655    1695.8099     2271.953    2.1905383    49.296079   0.11363513 
   46200   -945.48507    43.306932   -902.17814    1551.0972    -7346.967    2.1619324    41.594763   0.14224938 
   46300   -942.24269    45.007027   -897.23567    1611.9885   -6114.0304    2.1574353    46.537527   0.12342513 
   46400    -951.3327     44.18529   -907.14741    1582.5568    12767.505    2.2195446    45.001802   0.11402744 
   46500   -946.00987    42.400895   -903.60897    1518.6463     4452.365    2.1879707    48.416255   0.12112424 
   46600   -942.30867    41.248854   -901.05982    1477.3844   -9845.3402     2.144407    46.262188   0.14015773 
   46700   -950.39076    45.831164   -904.55959    1641.5061   -5369.7831      2.17108    48.868842   0.11266659 
   46800   -950.48635     42.90228   -907.58407    1536.6041    14445.447    2.2209121    46.824785   0.11261327 
   46900   -947.66831    47.105224   -900.56309    1687.1383    1893.5013    2.1828475    47.315647   0.12249597 
   47000   -946.79493    43.887589   -902.90734    1571.8943   -9585.9633    2.1527951    49.552027   0.12074811 
   47100   -950.30185    41.115047   -909.18681    1472.5919   -223.87775    2.1872271    46.899691   0.12547351 
   47200   -944.62499    42.664165   -901.96082    1528.0757    10273.417    2.2020945    44.730905   0.12920301 
   47300   -949.67807    48.766395   -900.91168    1746.6354   -1550.1391     2.180919    46.732725   0.12240107 
   47400   -953.42473    47.519355   -905.90538     1701.971    -10233.44    2.1627985    45.959537   0.11404471 
   47500   -946.25357    42.945425   -903.30815    1538.1494    2193.1019    2.1831827    46.169077   0.11617583 
   47600   -944.03235    46.417796   -897.61456    1662.5171    4909.7828    2.1873796    49.061725   0.13448135 
   47700    -947.4476    43.383839   -904.06376    1553.8518   -535.24056    2.1807241    46.068006    0.1238517 
   47800    -947.2651    43.054324   -904.21078    1542.0498   -3494.8606    2.1730889    47.510063   0.11139127 
   47900   -945.94997    50.473031   -895.47694    1807.7609   -1753.8687    2.1666348    46.462503   0.11911621 
   48000   -950.07958    46.442529   -903.63705    1663.4029    4825.5697    2.1942965     43.02893   0.12693477 
   48100   -948.21993    43.911268   -904.30866    1572.7424   -163.90171    2.1840261    48.962089    0.1263998 
   48200   -943.70975    46.676079   -897.03367    1671.7679   -4490.3918    2.1560013    44.771038   0.13862073 
   48300   -948.04534    44.883731   -903.16161    1607.5725    382.16416    2.1801028    42.797854   0.13072818 
   48400   -953.15677    48.492833   -904.66393    1736.8374    1641.4812    2.1934104    47.484182   0.11537058 
   48500   -948.95239    48.120631   -900.83175    1723.5065   -882.54511    2.1774386    51.336877   0.11638872 
   48600   -942.79442    42.432119   -900.36231    1519.7646   -9173.7038    2.1494122    46.695612   0.12760254 
   48700   -951.50332    42.666142   -908.83718    1528.1465    3821.4382    2.1955811    44.762512   0.10620081 
   48800   -946.44802     44.71244   -901.73559    1601.4374    18002.964    2.2206252     47.63219   0.12827449 
   48900   -945.67089    43.607605   -902.06328    1561.8663   -5406.7277    2.1633748    47.858676   0.12178644 
   49000   -950.50582    45.314732   -905.19108    1623.0094   -17222.019     2.141626    50.044003   0.12287672 
   49100   -952.63812    43.799461   -908.83866    1568.7378    5409.2105    2.2051294    41.715152   0.12714152 
   49200   -947.00556     46.76456     -900.241     1674.937    11179.944     2.201617    48.086941   0.12716132 
   49300    -947.1582    43.900859   -903.25734    1572.3696   -5477.2225    2.1629285    46.885549   0.13230033 
   49400   -947.81802     40.03485   -907.78317    1433.9031   -5891.0765     2.163109    46.250133   0.11858026 
   49500   -950.44222    43.209278   -907.23294    1547.5996    6763.6758     2.201284    44.140102   0.11625772 
   49600   -946.43399    45.999466   -900.43452    1647.5341    5268.3609    2.1866373    45.244195    0.1199244 
   49700   -947.22356    43.512125   -903.71144    1558.4465   -6990.0072    2.1558596    42.878769   0.11283666 
   49800   -949.44871    45.036682   -904.41203    1613.0506   -4377.9234    2.1685624    49.348519   0.12200544 
   49900   -942.21897    47.850712   -894.36826     1713.839    10108.907    2.1876305    48.033664   0.12988896 
   50000   -945.94533    46.927572   -899.01776    1680.7754    4973.9798     2.186847    45.220425   0.12419296 
   50100   -946.45287    42.486177   -903.96669    1521.7008   -7195.4259    2.1552799    44.684821   0.12210524 
   50200   -947.73388    45.071468   -902.66241    1614.2965   -4023.6629    2.1659679     44.90653   0.11618068 
   50300   -942.57366    49.232533   -893.34113    1763.3308    6828.8216    2.1813066    49.339959   0.12546604 
   50400   -949.42989    47.737116   -901.69277    1709.7704    3461.6013    2.1886736    44.101513    0.1277967 
   50500   -950.05175    45.365548    -904.6862    1624.8294   -7687.7882    2.1619404    44.253847   0.12782526 
   50600    -943.2905    44.158371   -899.13212    1581.5927   -1622.6316    2.1621924    32.860811   0.13973689 
   50700   -947.93257    52.772135   -895.16044    1890.1065    1461.2789    2.1791839    38.575316   0.13108647 
   50800   -948.00228     44.60435   -903.39793    1597.5661   -184.23949    2.1792501    34.884592    0.1285418 
   50900   -944.54332    43.282835   -901.26049    1550.2342   -718.07372    2.1704878     45.64338    0.1425191 
   51000   -941.43458    47.160389   -894.27419    1689.1141   -613.64715    2.1610947    39.579472   0.15041638 
   51100   -947.70402    44.316229   -903.38779    1587.2466    7123.3064    2.1997556    31.459917   0.14117935 
   51200   -952.85949    48.954767   -903.90473    1753.3822   -3513.3274    2.1772878    37.973859   0.12190252 
   51300   -943.06069    43.456752   -899.60394    1556.4633   -6228.4053    2.1574149    32.195078   0.13783893 
   51400   -944.64409    50.640292    -894.0038    1813.7516    372.11343    2.1713496    36.317966   0.14011484 
   51500   -949.83548    45.480363   -904.35512    1628.9417    7704.1196    2.2038762    34.324981   0.13383814 
   51600   -943.57796    40.234163   -903.34379    1441.0418   -351.36025     2.171048    37.452303   0.12625605 
   51700   -945.20043    44.030724   -901.16971    1577.0208   -3043.4467    2.1645271    33.468024    0.1142592 
   51800   -950.89296    41.650374   -909.24259    1491.7654    1335.8689    2.1921027     36.51611   0.11244264 
   51900   -952.23104    44.818075   -907.41296    1605.2209   -960.49617    2.1893692    37.339976   0.12413416 
   52000   -949.85309    47.523189    -902.3299    1702.1083   -2570.8272    2.1778079    37.779818    0.1283991 
   52100   -945.02151    42.986683   -902.03482    1539.6271   -698.73339    2.1752861    36.795545   0.13153127 
   52200   -952.54349    41.531819   -911.01167    1487.5192    938.90972    2.1948933    35.151322   0.11951998 
   52300   -947.32627    43.366267      -903.96    1553.2224   -1436.3776    2.1767795    33.160602   0.14203891 
   52400   -943.63175    41.939254    -901.6925     1502.112    1492.3826    2.1796255    35.213236   0.14008963 
   52500   -949.29136    43.320378   -905.97098    1551.5789    554.47893    2.1842921    34.799196   0.12690726 
   52600   -951.07913     40.71269   -910.36644    1458.1809    184.94991    2.1903931    36.698145   0.11444707 
   52700   -945.75444    44.516753   -901.23769    1594.4287   -2620.4096    2.1688276    36.580508   0.10867706 
   52800   -945.82083    43.021549   -902.79928    1540.8758   -168.84058    2.1773483    35.040417   0.13040914 
   52900   -947.01329    40.773578   -906.23972    1460.3617    5651.2609    2.1955125    33.111422   0.12663098 
   53000   -952.15169    39.060204   -913.09149    1398.9949    2415.1778    2.1967323    33.932372   0.12330046 
   53100   -948.17038    44.053609   -904.11677    1577.8405    -8090.114    2.1550078    34.724226   0.12164349 
   53200   -949.20295    45.880224   -903.32273    1643.2632    3127.4511    2.1903185    38.151537   0.11439543 
   53300   -948.26232    46.283726   -901.97859    1657.7152    8521.4253     2.201678    37.550695    0.1386363 
   53400   -949.97465    45.387339   -904.58731    1625.6099   -7075.3986    2.1614299    35.290597   0.13019183 
   53500   -951.68959    39.325482   -912.36411    1408.4962   -5317.5551    2.1744402    36.491239    0.1136631 
   53600   -945.83521    41.389709    -904.4455    1482.4293    8077.0949    2.1947315    37.556553   0.11721027 
   53700   -946.39416    44.705286   -901.68887    1601.1812    6367.3602    2.1898877     37.07124   0.12118867 
   53800   -949.43771    45.172491   -904.26522    1617.9148   -6335.5806    2.1661872    35.733234   0.11474678 
   53900   -950.13983    38.710652   -911.42917    1386.4752   -1693.5822    2.1847555    35.486611   0.11685751 
   54000   -948.36093    45.590253   -902.77068    1632.8775    4077.5531    2.1919983    33.764137   0.12736507 
   54100   -946.14165    44.211842   -901.92981    1583.5078    6067.0501    2.1897019    37.455181   0.11613406 
   54200   -949.86617     42.88935   -906.97682     1536.141   -5863.2816    2.1694504    36.557036   0.11196559 
   54300   -951.58574    41.957147   -909.62859    1502.7528   -4152.9374    2.1787196    36.298839   0.11560255 
   54400   -946.81025    45.545107   -901.26514    1631.2606     7251.401    2.1969495     37.55291   0.13374255 
   54500   -947.29275    45.042259   -902.25049    1613.2504    2143.7809    2.1862315    36.088476   0.13027154 
   54600   -948.06315    41.352181   -906.71096    1481.0852   -13920.961    2.1481051    35.491297    0.1189882 
   54700   -946.86159    42.158165   -904.70343    1509.9526   0.23788899    2.1805475    38.596169   0.12655651 
   54800    -945.9661    47.967328   -897.99877    1718.0157    15508.073    2.2111414     33.38591   0.12274293 
   54900     -948.876    46.198448   -902.67755    1654.6609    -5091.363    2.1713928    36.182132   0.12836116 
   55000   -949.44975    43.670165   -905.77959    1564.1069   -12606.051    2.1523219    36.392948    0.1168433 
   55100    -948.4781    45.388224   -903.08988    1625.6416    4435.8165    2.1906478    38.810334   0.12822348 
   55200   -946.78025    49.208883   -897.57136    1762.4837    4039.8712    2.1861892    37.334752   0.12604212 
   55300   -945.39474    42.009034    -903.3857    1504.6112   -3128.5164    2.1676534    43.265739   0.11907476 
   55400   -945.23798    40.686614   -904.55137    1457.2469   -2890.0795    2.1705658     36.79905   0.14468147 
   55500   -943.40459    48.067045   -895.33755    1721.5872    3865.8771    2.1789941    39.312174   0.14393046 
   55600   -946.73921    45.629929   -901.10929    1634.2986    4098.5592    2.1900874    33.960889   0.13856719 
   55700   -951.45108    46.468645   -904.98244    1664.3383   -7647.1081    2.1656316     41.50935   0.12156883 
   55800    -946.7427    46.737345   -900.00536    1673.9622   -3336.9881    2.1685862    38.478478   0.12957298 
   55900    -943.8127    47.416022   -896.39668      1698.27    5615.8144     2.181962    36.721163   0.12694906 
   56000   -951.22637    45.755037   -905.47134    1638.7795    4399.5555    2.1966466    36.006603   0.11622478 
   56100   -948.77259    45.799934   -902.97265    1640.3875   -5377.0906     2.169389    34.362239   0.12443636 
   56200   -943.18096    43.925623   -899.25534    1573.2565   -2636.1405    2.1637066    36.797655   0.13255768 
   56300   -951.49936    42.472611   -909.02675    1521.2149    3463.7774    2.2024762    35.723746    0.1289406 
   56400    -948.3037    43.946911   -904.35679     1574.019     712.5255     2.183891     34.22546   0.13117778 
   56500   -946.67155    45.532823   -901.13873    1630.8206   -3276.4702    2.1655213    34.465418   0.13373944 
   56600   -948.50557    42.115777   -906.38979    1508.4344   -181.29545    2.1793855    36.248384   0.12519466 
   56700   -950.97002     43.38763    -907.5824    1553.9876    7063.1533    2.2036451    33.982699   0.12272627 
   56800   -948.45795    48.295658   -900.16229    1729.7753    1058.6297    2.1821922    39.015131   0.12341375 
   56900   -946.34527    42.159913   -904.18536    1510.0152   -17223.686    2.1332623    37.639767   0.12495123 
   57000   -947.64623    42.583939   -905.06229    1525.2023   -3662.5095    2.1734601     38.91993   0.11991218 
   57100   -942.77265    47.529944    -895.2427    1702.3502    17824.868    2.2115404    34.580569   0.13457496 
   57200   -944.21704    44.018852   -900.19819    1576.5956    2509.7442    2.1755071    38.229762   0.12103541 
   57300    -946.6559    41.676454   -904.97944    1492.6994   -9812.6062    2.1490961    35.265125   0.12706919 
   57400   -945.63083    44.832039   -900.79879     1605.721      1074.84    2.1795335    33.846993   0.13713067 
   57500   -942.81631    48.038652   -894.77766    1720.5703    9940.8422    2.1914342    38.884202   0.14471342 
   57600   -948.67572    44.906383   -903.76933    1608.3838    -2004.757    2.1791101    35.825998   0.13146822 
   57700   -946.99589    43.502001   -903.49388    1558.0839   -8390.9274    2.1576942    30.982099   0.13472633 
   57800   -941.24911    45.179356   -896.06976    1618.1607    3621.6191    2.1732836    33.270107   0.14418581 
   57900   -949.74996    46.316255    -903.4337    1658.8803    8075.7554    2.2052105     24.77201   0.13188919 
   58000     -951.108    46.652061   -904.45594    1670.9076   -6261.1605    2.1724593    20.059729   0.13899938 
   58100   -944.63653    45.948837   -898.68769    1645.7207    -7700.472    2.1517321    24.017223   0.15282115 
   58200   -948.92699    45.119348   -903.80764    1616.0114     3793.381    2.1876579     18.42196   0.13323666 
   58300   -948.13006    43.196804   -904.93325    1547.1529    7560.7729    2.1972765    21.159105   0.14302996 
   58400   -943.06178    43.467425   -899.59435    1556.8455   -1830.2643    2.1657222    20.047706   0.14798531 
   58500   -947.25853    46.270684   -900.98785    1657.2481   -8178.5946    2.1582476    23.272756    0.1390316 
   58600   -950.31027    43.285319   -907.02496    1550.3231    3689.0259     2.195049    19.848726   0.13931732 
   58700   -944.38247    45.333335   -899.04914    1623.6757    4750.2949     2.186507    23.449274   0.14452382 
   58800   -948.54263    46.571932   -901.97069    1668.0377    -5749.809     2.165177    22.532913   0.14621619 
   58900   -948.88787    40.121059   -908.76681    1436.9908   -4863.6559    2.1721134      21.8331   0.14438725 
   59000   -948.00835    47.691093   -900.31726     1708.122    7479.4889    2.1970044    20.135353   0.14815232 
   59100   -944.67913    45.637638   -899.04149    1634.5747    10899.939    2.2012061    24.758417   0.13786532 
   59200   -947.62035    41.332976   -906.28737    1480.3973   -12187.182    2.1538845    20.603369   0.14749257 
   59300   -945.07131    44.230321   -900.84099    1584.1697   -12340.295    2.1455713    18.836586   0.15195008 
   59400   -942.84668    46.564194   -896.28248    1667.7606    10263.691    2.1933788    23.356272    0.1560464 
   59500   -950.35353     47.21311   -903.14042    1691.0024    6072.0194    2.2002345    18.673798   0.13849417 
   59600   -946.80346    43.147576   -903.65588    1545.3897   -7761.2982    2.1608189    21.585807   0.14595911 
   59700   -944.56789    49.815876   -894.75201     1784.224   -9308.5919    2.1483161    23.846189   0.14323939 
   59800   -946.33815     43.34301   -902.99514    1552.3894    7563.0213    2.1955388    25.110395   0.15279727 
   59900   -945.60079    42.783927   -902.81687    1532.3651    6167.6955    2.1882099    19.464532   0.14359352 
   60000    -944.0696    45.518779   -898.55082    1630.3176   -4771.2595    2.1543313    20.311322   0.13507742 
   60100   -942.93217    47.209525   -895.72265     1690.874   -6549.4244    2.1572311    21.316216   0.15833276 
   60200   -945.60967     40.38959   -905.22008    1446.6087    13108.231    2.2075702    16.490955   0.15042067 
   60300    -949.2604    47.192263   -902.06814    1690.2557    1047.1689    2.1824889    21.735971   0.14605077 
   60400   -944.36475    43.604223   -900.76052    1561.7451   -5316.4082    2.1540724    15.889932   0.12868315 
   60500   -948.34184    44.708071   -903.63377     1601.281   -4005.8929    2.1722607    17.871594   0.12353672 
   60600   -950.25008    42.176094   -908.07399    1510.5947     7023.504    2.2016193    20.880084     0.142192 
   60700   -950.24438    48.993456   -901.25093    1754.7679   -878.28973    2.1819062    18.814842    0.1377772 
   60800   -943.82338    43.504931   -900.31845    1558.1888   -3396.3732    2.1640311    28.518575   0.15612833 
   60900   -951.09903    42.562489   -908.53654     1524.434   -318.84129    2.1856588    19.590318   0.12960384 
   61000   -947.35838    46.008898   -901.34948    1647.8719    760.23093    2.1778133    17.549962    0.1238274 
   61100    -943.5727    43.247365   -900.32534    1548.9638    580.67962    2.1762254    20.849371   0.14702418 
   61200   -947.34086    40.468117   -906.87274    1449.4212    766.20696    2.1813426    23.411168     0.140062 
   61300   -947.75024    46.459695   -901.29054    1664.0178   -2007.9271    2.1730114    21.141558   0.14141013 
   61400   -943.09478    44.248104   -898.84668    1584.8066    2589.1566    2.1729177    22.019268   0.14323425 
   61500   -949.97751    44.933602   -905.04391    1609.3587    1126.1379    2.1812972    19.832958   0.13072132 
   61600   -943.78245    42.219284   -901.56317    1512.1417    2154.1237    2.1783906    25.322293   0.14041301 
   61700   -947.82591    50.770775   -897.05513    1818.4251   -4881.1522    2.1620031     26.02571   0.13955167 
   61800   -949.29601    45.367386   -903.92863    1624.8953   -57.623174    2.1770103    22.115431   0.13572973 
   61900   -948.54187    47.252859   -901.28901    1692.4261    5190.6796    2.1873913    19.780339   0.14922193 
   62000   -940.93451    47.588821   -893.34568     1704.459    49.647809    2.1645804    23.608874   0.15077989 
   62100   -944.50277    41.368227   -903.13454    1481.6599   -5443.9918    2.1601656     22.66039   0.15308212 
   62200   -946.03984    43.552102   -902.48774    1559.8784   -2249.1987    2.1695835    20.711065   0.14914179 
   62300   -945.59027    47.939889   -897.65038     1717.033    9351.8301    2.1989279    20.651922   0.15583054 
   62400   -948.39659    42.727905   -905.66869    1530.3586    1165.9164    2.1898362    23.359237   0.15473685 
   62500    -949.2135    43.643012   -905.57048    1563.1344   -12025.466    2.1504683    19.302835   0.15190589 
   62600   -943.32799    43.428132   -899.89985    1555.4382    3569.2642    2.1718218     20.16985   0.15282425 
   62700   -947.94708    44.957089   -902.98999    1610.1999    11747.818    2.2065549    19.970681   0.14128323 
   62800   -951.13273    43.335395   -907.79734    1552.1167    -1082.265    2.1879477    21.035883   0.14402945 
   62900   -944.20733    44.886924    -899.3204    1607.6868   -9694.3193    2.1448576    19.093031   0.16226279 
   63000   -946.10004    44.449643    -901.6504     1592.025   -1433.6831    2.1744483     22.08601   0.15441401 
   63100   -947.53605    42.191165   -905.34488    1511.1345    10938.461    2.2038271     19.31191   0.15007108 
   63200   -941.75023    45.291607   -896.45863    1622.1811     2460.537    2.1662032    18.316236   0.14912529 
   63300   -946.87864    45.534897   -901.34374    1630.8949   -5524.2068    2.1611085    19.570443   0.14867133 
   63400   -951.60424    46.664138    -904.9401    1671.3402   -2720.1768     2.180214      22.6275     0.144978 
   63500    -944.7445     48.05889   -896.68561    1721.2952    5399.0162    2.1872551     24.33382   0.16000633 
   63600   -946.76766    46.261742   -900.50592    1656.9278   -803.63033    2.1752431    21.751476   0.15328545 
   63700   -946.74113    41.741571   -904.99956    1495.0317   -7298.7245    2.1591193    20.579874   0.13653554 
   63800   -947.64452    48.744563   -898.89995    1745.8535   -3357.8071    2.1735151    22.046948   0.14945944 
   63900   -947.71475    49.044324   -898.67043    1756.5898    5517.0686    2.1877503    20.871255   0.13768346 
   64000   -947.56354    41.795333   -905.76821    1496.9573   -1064.3536    2.1833483    20.003063   0.16310588 
   64100   -945.41812    43.805928   -901.61219    1568.9695   -4692.3357    2.1684892    29.340827   0.16048585 
   64200   -946.04626    47.659773   -898.38649    1707.0002    458.83359     2.175956    16.080616   0.15491578 
   64300   -953.55441    46.352866   -907.20154    1660.1916     2636.644    2.1996215    18.248869   0.13852874 
   64400   -947.85555    45.240426   -902.61513     1620.348   -2329.1694    2.1771454    19.890707   0.15446851 
   64500   -943.26199    43.177537   -900.08445    1546.4628   -2049.8769    2.1691604    21.095973   0.15611478 
   64600   -946.42866    39.465509   -906.96315    1413.5114    111.75077    2.1860111    21.239519   0.15301899 
   64700   -946.60996    42.379218   -904.23075    1517.8699    652.45751     2.180079    21.060334   0.14487627 
   64800   -946.94461     47.67307   -899.27154    1707.4765   -3005.7684    2.1706543    26.028435   0.14462965 
   64900   -947.24392    42.291091   -904.95282    1514.7135    2411.5855    2.1821709    21.200327   0.15077098 
   65000   -946.21702    41.472283   -904.74474    1485.3868    4573.8626    2.1912952    18.957136   0.15380265 
   65100   -938.80842    41.988011   -896.82041    1503.8583    2655.1193    2.1659514    19.030082   0.17709359 
   65200   -947.76727    44.198711   -903.56856    1583.0375    -2529.614    2.1755096    21.965702   0.15320356 
   65300    -943.8371     40.98542   -902.85168    1467.9491    5916.9616    2.1880423    19.960992   0.14147645 
   65400   -941.69666    47.913225   -893.78344     1716.078    1638.0681    2.1649391    22.387934   0.13616874 
   65500   -947.78313    45.937003   -901.84612    1645.2968   -5868.9224    2.1676341    25.124472    0.1479901 
   65600   -945.52611     42.22303   -903.30309    1512.2758   -2583.2706    2.1752794     18.73243   0.15474367 
   65700   -946.61537    49.096281   -897.51909    1758.4507    3137.4835    2.1837936    20.441056   0.14195208 
   65800   -948.09357      49.4226   -898.67097    1770.1383   -2545.2136    2.1718287    20.153418   0.14329882 
   65900   -946.79806    42.140676   -904.65739    1509.3262   -4959.1749    2.1668431    20.903571    0.1521953 
   66000   -947.02956    45.832763    -901.1968    1641.5634    2449.1166    2.1814667    19.639515     0.147747 
   66100   -942.66626    44.826455   -897.83981    1605.5211    8175.3571     2.185654    24.965169   0.15707601 
   66200   -936.65623    48.641381   -888.01484    1742.1579   -5040.3459    2.1434058    20.143587   0.16505874 
   66300    -946.1524    48.187443   -897.96496    1725.8994   -4967.6676    2.1622109    23.556712   0.13057702 
   66400   -942.22522     42.42557   -899.79965    1519.5301     2278.658    2.1743683    18.582256   0.14648989 
   66500   -947.03351    45.265661   -901.76785    1621.2518    1917.6622    2.1838082    20.524349    0.1414459 
   66600   -950.47748     44.84577   -905.63171    1606.2128   -1393.4832    2.1793315    17.321159   0.13427273 
   66700   -953.99273    44.900059   -909.09267    1608.1573   -6704.3743    2.1765015    24.290556   0.12809791 
   66800   -947.49308    48.484171   -899.00891    1736.5272   -2182.4742    2.1682377    22.933161   0.12697891 
   66900   -947.22621    47.275699   -899.95051    1693.2441     5815.211    2.1885458    21.293624    0.1411776 
   67000   -948.17736    44.314752   -903.86261    1587.1937     1245.559    2.1804874    21.247875    0.1314499 
   67100    -946.1491    42.523292   -903.62581    1523.0301   -5652.8809    2.1604758    20.053949    0.1362071 
   67200   -942.81979    47.311876   -895.50791    1694.5398   -800.05573    2.1618693    21.586861   0.13475851 
   67300   -948.08999     47.00666   -901.08333    1683.6081     8207.759    2.2015499    21.355866   0.14248394 
   67400   -947.07432    43.484627   -903.58969    1557.4616   -993.60334    2.1806025    20.173882   0.14702018 
   67500   -942.42896    46.348111   -896.08085    1660.0212   -9533.2055    2.1396819    20.681071   0.14148369 
   67600   -944.66683    45.492176   -899.17465    1629.3648   -909.59084    2.1721283    20.268732   0.12687508 
   67700   -950.96166    48.336032   -902.62562    1731.2214    6328.2488    2.1999888    25.559395    0.1230733 
   67800   -945.70475     45.16319   -900.54156    1617.5817   -152.01396    2.1722976    37.178752   0.11965024 
   67900   -941.37109    44.208753   -897.16234    1583.3972   -9473.3092    2.1394845    44.874791   0.12156649 
   68000   -949.92643    43.019409   -906.90702    1540.7992     4778.921    2.1959225    46.642178    0.1152794 
   68100   -949.65668    47.768257   -901.88842    1710.8857    8728.8184    2.2035742     46.92438   0.12004921 
   68200   -946.32429    45.000709   -901.32358    1611.7622   -4526.2052    2.1651197    47.294687   0.13138785 
   68300   -951.78924    41.359224   -910.43002    1481.3374   -8591.9027    2.1713793    45.636264   0.12446432 
   68400   -953.22791    48.403703   -904.82421    1733.6451    -1638.167    2.1854179     45.86848   0.11251682 
   68500   -948.13496    47.507598   -900.62736    1701.5499    4064.1867    2.1850418    48.062769   0.10877451 
   68600   -949.80812    43.981796   -905.82633    1575.2684   -4869.3118     2.173952    45.043095    0.1058055 
   68700   -950.51701    41.153508   -909.36351    1473.9694   -1447.0782    2.1795934    44.391613    0.1080272 
   68800   -945.81878    44.764689   -901.05409    1603.3088    2823.0718    2.1784042    44.714749   0.11221151 
   68900    -948.5644    45.915967   -902.64844    1644.5434    2720.4289    2.1862396    44.000007   0.12277212 
   69000   -952.00811     42.93947   -909.06864    1537.9361   -2931.5115    2.1839149    48.509916   0.11662204 
   69100   -948.18445    45.188226   -902.99622    1618.4784   -2494.2766    2.1797286    47.953531   0.12974968 
   69200   -946.03393    45.257044   -900.77689    1620.9432    3639.3818    2.1875802    47.775814   0.12249933 
   69300   -950.48856    46.197047   -904.29152    1654.6107   -3548.9142    2.1762911     45.50492   0.11619231 
   69400   -951.34009    45.171178   -906.16891    1617.8678   -6440.5545    2.1713897    46.119606   0.11489869 
   69500   -945.61097    49.516626   -896.09435     1773.506   -40.496939    2.1733195    41.881043   0.12025668 
   69600   -945.18126    45.333395   -899.84786    1623.6778    13482.494    2.2072115    46.727352    0.1405998 
   69700   -948.57591    44.609939   -903.96597    1597.7662   -5392.2794    2.1670052    44.587829   0.11381231 
   69800   -945.82369    43.509267   -902.31442    1558.3441    -13968.29    2.1404469    48.385971   0.12118269 
   69900   -940.55433    46.904482   -893.64985    1679.9485    6182.4795    2.1754669    47.573615   0.11557013 
   70000   -950.36273    48.523303   -901.83943    1737.9287    12310.172    2.2142263    47.608889   0.12523262 
   70100   -949.48547    44.779992   -904.70547    1603.8569    -5406.303    2.1666199    50.959007   0.11933995 
   70200   -944.33756    44.857277   -899.48028     1606.625   -6887.7727    2.1522074     49.19156   0.13121804 
   70300   -946.85778    50.567229   -896.29055    1811.1348    1108.1118    2.1767767    44.297766    0.1401508 
[...]
  186800   -948.53012    45.433456   -903.09667    1627.2616    7136.5645    2.1983597    46.007889   0.13282003 
  186900   -947.61567    44.612412   -903.00326    1597.8548    15961.234    2.2199012    48.107056   0.11630084 
  187000   -948.01859    45.829181   -902.18941    1641.4351   -9886.5812    2.1545343    48.655465   0.11575604 
  187100   -940.05846     44.47361   -895.58485    1592.8834   -10693.577    2.1346666    53.358639   0.13735674 
  187200    -947.5798    41.675615   -905.90418    1492.6694    12894.925    2.2134619    47.970976   0.13319606 
  187300   -945.72668    42.525026   -903.20166    1523.0922    8664.5125     2.199574    46.954995   0.13838994 
  187400   -945.60618    45.156153   -900.45002    1617.3297   -7810.5712     2.155037    50.316311   0.11368399 
  187500   -947.95564    41.045485   -906.91016    1470.1004   -4852.3763    2.1688211    51.703155   0.11136405 
  187600   -951.07861    44.186609     -906.892    1582.6041    6646.4654    2.2017876    49.186351   0.12613738 
  187700   -946.51538    45.703874   -900.81151     1636.947    4588.6739    2.1902531    52.024122   0.12940937 
  187800   -945.20003    41.549367   -903.65067    1488.1477   -4757.2504    2.1651026    49.420691    0.1534224 
  187900     -952.132    41.995809   -910.13619    1504.1376   -3694.4056     2.179609    46.962011    0.1213882 
  188000   -944.90643    43.548016   -901.35842     1559.732    4802.1704    2.1879089    49.707464   0.12915387 
  188100   -947.51288    45.666725   -901.84616    1635.6165    3380.1481    2.1912273    49.587751   0.14717335 
  188200   -948.47512    40.359027    -908.1161     1445.514   -3862.9274    2.1749546    50.455935   0.14256613 
  188300   -945.89283    43.570147   -902.32268    1560.5247   -3817.2682    2.1685606    51.007122    0.1407929 
  188400   -947.00093    47.207357   -899.79358    1690.7963    7280.9548    2.1953349    46.969548   0.12822262 
  188500   -950.17668     45.89048    -904.2862    1643.6306    1507.5593    2.1890034    48.772691    0.1241499 
  188600   -949.03149    43.380713   -905.65078    1553.7398   -11237.483    2.1570319    51.649316   0.12524253 
  188700   -944.02162    47.395915    -896.6257    1697.5498   -9075.4028    2.1513558    50.105696   0.15891996 
  188800   -948.18086    46.421853   -901.75901    1662.6624    17818.915    2.2236641     49.47381   0.14409159 
  188900    -951.4253    47.224435   -904.20086     1691.408     3175.386    2.1935703    48.607437   0.12664859 
  189000   -944.21228    44.008214   -900.20406    1576.2146   -14744.717    2.1324145     56.13866   0.12402358 
  189100   -943.47962    48.513221    -894.9664    1737.5676   -2646.5315    2.1588867    55.176397   0.12084337 
  189200   -944.88256    40.543402   -904.33916    1452.1176    11777.392    2.2116971     45.70767   0.14611933 
  189300   -948.79589    45.740609   -903.05529    1638.2627   -1678.3898    2.1787441    52.203654   0.12125143 
  189400   -944.12923    45.878032    -898.2512    1643.1847   -5529.0068    2.1551632    49.136695   0.13174885 
  189500   -953.64097    45.760248   -907.88072    1638.9661   -698.29416    2.1917367    48.928127   0.12151273 
  189600   -949.43402    44.124655   -905.30936    1580.3851    2409.7837     2.191164    49.955906   0.11928962 
  189700   -945.80091    44.833862   -900.96705    1605.7863   -1407.8319    2.1730132    56.669889   0.13995698 
  189800   -946.99362    44.251121   -902.74249    1584.9147   -4517.8713    2.1685869     49.70518   0.12005316 
  189900   -954.06566    45.122976   -908.94268    1616.1414    344.37464    2.1949868    55.905379   0.11773439 
  190000   -946.45307    45.555818   -900.89725    1631.6442    5975.7194    2.1888047    50.069628   0.12182733 
  190100   -946.43036    44.068241   -902.36212    1578.3646   -2864.3016    2.1714491    53.663047   0.11994275 
  190200   -954.19281    44.029053   -910.16376     1576.961   -7094.7485    2.1757527    54.735711   0.12089074 
  190300   -945.39333    42.304509   -903.08882    1515.1941    4706.2408    2.1916908    51.678341   0.13598795 
  190400    -947.0234    46.414657   -900.60874    1662.4047    6808.9823    2.1976055    51.434459   0.11933528 
  190500   -949.49403     42.63509   -906.85894    1527.0343   -3943.1768    2.1710458    51.408648   0.12405926 
  190600   -944.12691    41.006094   -903.12082    1468.6896   -7669.2841    2.1578001    46.917958   0.14004425 
  190700   -944.03815    45.251688   -898.78646    1620.7514    7944.1934    2.1957795    47.705452   0.13629388 
  190800   -947.87474    44.836799   -903.03794    1605.8916    7749.7927    2.1962484    50.925524   0.13170643 
  190900   -948.45363    41.785048   -906.66858    1496.5889     -8732.63    2.1577284    53.140771   0.11027808 
  191000   -944.59849    47.165752   -897.43274    1689.3062   -8527.9259    2.1509187    50.399041   0.12996092 
  191100    -948.0375    47.367488   -900.67001    1696.5316    12738.139    2.2126999    50.918257   0.13072531 
  191200   -947.67783    42.993458   -904.68437    1539.8697    3987.0412    2.1929239    49.719658   0.13033296 
  191300   -947.67212    46.795359   -900.87676    1676.0401   -9646.1958    2.1546572    50.688864   0.13180388 
  191400   -945.60764    49.967651   -895.63999    1789.6601   -3899.6316    2.1603441    50.419552   0.12039382 
  191500   -948.40534    43.717731   -904.68761    1565.8106    7887.6937    2.1999294    47.820781    0.1262931 
  191600   -944.77796    42.161236   -902.61672    1510.0626    2969.9812    2.1811846    51.129062   0.12300119 
  191700   -946.76172    49.040789   -897.72093    1756.4632   -6976.0314    2.1593471     48.65001   0.13421715 
  191800    -952.1871    44.967333   -907.21976    1610.5668   -2026.4917    2.1859147    49.701949   0.12006196 
  191900   -950.43169    46.012331   -904.41936    1647.9948    982.56505    2.1816668    51.589482   0.11830663 
  192000   -945.15105    45.052146    -900.0989    1613.6045    549.02525    2.1741797    52.425822   0.12632897 
  192100   -950.76915    45.437597   -905.33156    1627.4099   -3854.3412    2.1776017    53.493342   0.12040389 
  192200   -953.83367    46.380124   -907.45354    1661.1678    -2193.095     2.187324    50.857849   0.11971739 
  192300   -946.45308    45.664426   -900.78866    1635.5341    2197.1476    2.1815224    46.334943   0.11200465 
  192400   -948.81666    45.172979   -903.64368    1617.9323   -3199.6061    2.1712146    51.703542   0.11908289 
  192500   -951.92372    41.955537   -909.96818    1502.6952   -1892.5634    2.1794204    50.178759   0.11821485 
  192600   -949.98052    48.479115   -901.50141    1736.3461   -344.95971    2.1790988    51.415494   0.12011259 
  192700   -948.43898    46.092275   -902.34671    1650.8581    2750.2245    2.1871116    46.711248   0.13877075 
  192800   -950.35629    41.345583   -909.01071    1480.8489   -2541.6487    2.1779193    49.760189   0.11162175 
  192900   -946.42737    45.525349   -900.90202    1630.5529   -5755.5519    2.1544699    51.882983   0.12709813 
  193000   -946.52504    45.716319   -900.80872    1637.3928    6488.3325    2.1919588    54.696013   0.12566523 
  193100   -947.43229    42.316349   -905.11594    1515.6182    8540.3065    2.1974859    52.706547   0.11499574 
  193200   -947.66544    47.678027   -899.98741     1707.654   -8477.6288    2.1515836    49.338586   0.12436492 
  193300   -942.86051    44.361785   -898.49873    1588.8783   -7608.4371    2.1531687    50.096507   0.12022114 
  193400   -944.08929    40.228217   -903.86107    1440.8288    10615.969     2.195981    49.110603   0.13016889 
  193500   -949.82824    46.193772   -903.63447    1654.4934    5657.2251    2.1923182     52.81656   0.11508314 
  193600   -942.45354    46.557162   -895.89637    1667.5087   -9097.8309    2.1418973    53.160762   0.12861438 
  193700   -947.90628    42.673996   -905.23228    1528.4278   -2877.1874    2.1727098    52.864428   0.12197812 
  193800   -951.43969     47.51264   -903.92705    1701.7304     4381.942     2.194897    50.209998   0.11324761 
  193900   -946.22165    47.359041   -898.86261    1696.2291       4112.3    2.1806184     49.51719   0.12519267 
  194000   -946.85446    43.550036   -903.30443    1559.8043   -9866.7966     2.149792    52.387343   0.12582264 
  194100   -947.33847    40.293382   -907.04509    1443.1628   -4674.5233    2.1669455    51.334307   0.10901984 
  194200   -945.22271    45.650808   -899.57191    1635.0464    17449.648    2.2182636    48.577424    0.1328785 
  194300   -946.11221    42.839407    -903.2728    1534.3522    6199.6498    2.1925137    52.777539   0.12780059 
  194400   -949.02083    38.841511   -910.17932    1391.1621   -15357.983    2.1479769     48.66966   0.11797964 
  194500    -946.4274    43.494237   -902.93317    1557.8058   -3718.6655    2.1683148    51.031552   0.13361686 
  194600   -945.40816    45.249932   -900.15823    1620.6885    10000.231    2.2000229    51.169418   0.12932926 
  194700   -949.41025     41.80405    -907.6062    1497.2695    1940.1629    2.1877977    50.855681    0.1204795 
  194800   -947.67319    46.111077   -901.56211    1651.5316   -7231.1131    2.1595327    51.292888   0.12159238 
  194900   -946.18052    46.231873   -899.94864     1655.858     1500.035    2.1759919    49.510039    0.1244135 
  195000   -952.44512    47.080098   -905.36502    1686.2384    1284.5003    2.1948993    49.458269   0.11743298 
  195100   -945.96068    42.669643   -903.29104    1528.2719    2226.3021    2.1780051     48.65858   0.11211237 
  195200   -939.74906    41.855698   -897.89336    1499.1193   -3529.4566    2.1543198     52.40992    0.1216094 
  195300   -949.85374    44.619702   -905.23404    1598.1159    -1208.069    2.1840247    53.515742   0.10933133 
  195400   -948.24092    45.199507   -903.04142    1618.8824     7488.048    2.2010536    49.708633   0.13625998 
  195500   -939.80066      43.4969   -896.30376    1557.9012    -1130.514    2.1634408    52.600454   0.13746948 
  195600   -950.54621    45.154432   -905.39178     1617.268   -8295.7064    2.1627293    52.509622   0.12834515 
  195700   -948.58709    44.852195   -903.73489     1606.443    1976.4257    2.1879901    52.209226   0.11462404 
  195800   -947.75681    50.181556   -897.57525    1797.3213    7791.2572    2.1981817    51.392208   0.11649922 
  195900   -948.87459     44.20607   -904.66852    1583.3011   -5283.0462    2.1723641     50.20431   0.12248762 
  196000   -944.98807    38.919123   -906.06895    1393.9418   -10552.429    2.1504592    47.011352   0.11617172 
  196100   -947.73107    47.759069     -899.972    1710.5567    4016.9267    2.1864091    49.992566   0.12955117 
  196200   -948.19958    44.046914   -904.15267    1577.6007    12781.881    2.2103719    51.224225   0.10224104 
  196300   -950.51331    41.421782   -909.09153     1483.578   -3162.8253    2.1784722    54.513971   0.11417542 
  196400   -944.90814    43.514424   -901.39372    1558.5288   -6000.4508    2.1594605    52.876886   0.12028202 
  196500   -947.67823    45.322498   -902.35573    1623.2875    504.36666    2.1848777    52.593928    0.1372131 
  196600   -949.46704    40.502914   -908.96413    1450.6675    5332.2472    2.2013208     53.76804   0.13204629 
  196700   -949.24412    49.140468   -900.10366    1760.0333    -6269.961    2.1663586    55.491284   0.11808218 
  196800   -946.92606    45.103193   -901.82287    1615.4328   -3037.4058    2.1724752    50.532042   0.12026763 
  196900   -949.66216    43.206742   -906.45542    1547.5088    2889.7558    2.1926794    49.642508   0.11524971 
  197000   -943.26589     42.94472   -900.32117    1538.1241    5960.1492     2.186228    46.011873   0.14437268 
  197100   -945.72086    46.251335   -899.46952    1656.5551   -3266.6742    2.1664554    52.266095   0.11122216 
  197200   -949.60167    44.098652   -905.50302    1579.4538   -6199.1693    2.1711253    55.069378   0.12089951 
  197300   -948.81085    46.544294   -902.26656    1667.0478    3847.8976    2.1896023    51.524994   0.12909913 
  197400   -948.27287    52.221167    -896.0517    1870.3728    1041.8239    2.1799233    52.743827   0.13316966 
  197500   -948.95029    44.110838   -904.83945    1579.8902   -5750.3987    2.1687296    54.898244   0.14801033 
  197600   -947.80133    44.353186   -903.44815    1588.5703   -4736.4667    2.1710386    50.212703   0.13926758 
  197700   -942.36839    46.610789    -895.7576    1669.4294    8050.8541    2.1874095    52.744818   0.12941816 
  197800   -950.79553     46.33694   -904.45859    1659.6212    5387.6891    2.1982466    52.494405   0.11371241 
  197900   -947.71269    42.745454   -904.96724    1530.9872   -13409.404    2.1489614    50.862576   0.12463797 
  198000   -943.48359    43.359761   -900.12383    1552.9894    -7738.822    2.1556222     50.39868   0.13388956 
  198100   -946.01764     40.39518   -905.62246    1446.8088    16639.874    2.2212872    53.115358   0.13664492 
  198200   -951.95578    44.683601   -907.27218    1600.4045    3954.2502    2.1981354    50.807974   0.12388991 
  198300   -944.52219    42.516741   -902.00545    1522.7955   -8304.9741    2.1523119    51.471757   0.13151194 
  198400   -948.55153    47.067107   -901.48442    1685.7731   -3619.2428    2.1725892    52.275289   0.13329804 
  198500   -955.01952    45.797744   -909.22178    1640.3091     7451.191    2.2128454    49.175767   0.12229004 
  198600   -947.58233    46.393078   -901.18926    1661.6318    -1051.975    2.1763451    46.288012   0.13318583 
  198700   -945.36742    43.561825   -901.80559    1560.2266   -2763.8253    2.1672553    54.797462   0.12795838 
  198800   -950.44393    43.837243   -906.60669    1570.0911    288.72652    2.1848135       54.127   0.10399565 
  198900   -952.61425    46.249246     -906.365    1656.4803    3355.2582    2.1965155    49.617176   0.10311326 
  199000   -944.62872    45.436736   -899.19198    1627.3791   -1869.5602    2.1661437    46.025826    0.1302255 
  199100   -945.72755     41.82997   -903.89758    1498.1978   -3089.6716    2.1701242    47.978514   0.13569666 
  199200   -950.14691    45.487362   -904.65955    1629.1923    3024.7206    2.1934051    52.012027   0.13388873 
  199300    -944.2489    49.283805   -894.96509    1765.1672    3232.7963    2.1759873    50.899503   0.14374196 
  199400   -946.49818    44.444438   -902.05374    1591.8386    -675.7911    2.1759642    52.948814   0.12626357 
  199500   -943.35909    38.447715   -904.91137    1377.0577    1490.6672    2.1744634    51.503118   0.13446338 
  199600   -944.42723    46.183166   -898.24407    1654.1135    2885.4841    2.1811191    47.713982   0.13422067 
  199700   -945.85607    47.191149   -898.66493    1690.2158    3912.2043    2.1864144    47.116744   0.14706564 
  199800   -950.57544    45.331697   -905.24375     1623.617   -8215.6839    2.1639467    52.455338   0.11709892 
  199900   -947.13307    44.943965   -902.18911    1609.7298   -2155.7063    2.1707554    50.354286   0.13238356 
  200000   -942.36302    46.674956   -895.68806    1671.7276    11948.703    2.1951056    47.860892   0.15446673 
  200100   -947.86616    43.442332   -904.42383    1555.9468    3257.9521     2.189175    50.832239   0.14673909 
  200200    -945.7365    40.809632   -904.92687     1461.653    -11939.29    2.1472852    47.553211   0.15327608 
  200300   -944.95855    44.198939   -900.75961    1583.0457    113.30872    2.1728617    51.331672   0.12512893 
  200400   -951.17444     45.72797   -905.44647      1637.81    12332.886    2.2145864    49.060297   0.12912083 
  200500   -954.21775    45.486793   -908.73096     1629.172   -2887.4215    2.1899287    50.031593   0.12473249 
  200600    -944.4137    42.160503    -902.2532    1510.0363   -8325.5522    2.1559799    51.330653   0.13971863 
  200700   -947.12392    45.341002   -901.78292    1623.9503   -1193.0679    2.1765315    47.394857   0.13069671 
  200800   -958.76524    49.468425   -909.29682    1771.7796    4667.5087     2.212765    49.802737   0.10755703 
  200900   -947.25302    45.339195   -901.91382    1623.8855   -584.15244    2.1770743    52.342437   0.12923244 
  201000   -946.23265    44.743964   -901.48868    1602.5665   -4409.8136    2.1678449    48.262434   0.13567101 
  201100   -950.59354    45.674001   -904.91954    1635.8771    1297.3709    2.1822717    51.553121   0.12037985 
  201200   -951.20064    42.560836    -908.6398    1524.3748    3719.8543    2.2003872    56.267888   0.13167588 
  201300    -945.0352    46.584946   -898.45025    1668.5038   -3371.2953    2.1635823    49.746065   0.12935938 
  201400   -947.25903    45.744827    -901.5142    1638.4138   -1901.6293    2.1739846    51.346693   0.12879593 
  201500   -946.87753     42.63199   -904.24554    1526.9233    4461.4029     2.192352    51.118883   0.13080411 
  201600   -949.65837    42.372851   -907.28552    1517.6419    2156.7569    2.1899867    50.737043   0.10918856 
  201700    -945.4144    48.456823   -896.95758    1735.5477   -8403.4644    2.1500082    52.291655   0.11139033 
  201800   -951.42246    51.351826   -900.07063    1839.2362    4830.4635    2.1929432    49.347127   0.12580226 
  201900   -949.38628    46.868954   -902.51732     1678.676    11344.196    2.2083039    53.651134   0.13994735 
  202000   -946.89745    40.359632   -906.53782    1445.5357   -9089.3429    2.1591385    49.986952    0.1308876 
  202100   -941.03475    43.850284   -897.18446    1570.5582   -10796.946     2.141569     50.41964   0.13182958 
  202200   -946.65336    47.127414   -899.52595    1687.9331    9933.8766    2.2023663    49.527596   0.11624664 
  202300   -949.22601    45.518284   -903.70773    1630.2999    6390.1664    2.1954971    49.800936   0.11544676 
  202400   -944.99277    42.127501   -902.86527    1508.8543   -6393.8356     2.161957    49.097117   0.13139566 
  202500   -939.03563    44.759017   -894.27662    1603.1057   -5130.1517    2.1503624    50.044944    0.1304871 
  202600   -947.73728    44.102825   -903.63445    1579.6032    10693.572    2.2066132    50.443024   0.12708842 
  202700   -947.01058    43.125368   -903.88521    1544.5943    2556.0614    2.1874598     52.25249   0.13519619 
  202800   -944.96702    45.276079   -899.69095     1621.625    -5882.753     2.154152    52.331541   0.11446782 
  202900   -941.55269    47.001247   -894.55144    1683.4142    73.958876    2.1644221    51.052751   0.13231728 
  203000   -947.52523    42.780813   -904.74441    1532.2536    10636.889    2.2094096    49.181371    0.1309247 
  203100   -947.07354    43.930096   -903.14344    1573.4167    497.52462    2.1787373    47.547375   0.12086853 
  203200   -949.55851    47.964966   -901.59354    1717.9311   -10298.928    2.1564198    50.690539   0.12252157 
Loop time of 143.202 on 1 procs for 200000 steps with 217 atoms

Performance: 362.006 ns/day, 0.066 hours/ns, 1396.628 timesteps/s
100.0% CPU use with 1 MPI tasks x no OpenMP threads

MPI task timing breakdown:
Section |  min time  |  avg time  |  max time  |%varavg| %total
---------------------------------------------------------------
Pair    | 138.48     | 138.48     | 138.48     |   0.0 | 96.70
Neigh   | 1.5083     | 1.5083     | 1.5083     |   0.0 |  1.05
Comm    | 0.90668    | 0.90668    | 0.90668    |   0.0 |  0.63
Output  | 0.072265   | 0.072265   | 0.072265   |   0.0 |  0.05
Modify  | 1.9124     | 1.9124     | 1.9124     |   0.0 |  1.34
Other   |            | 0.3194     |            |       |  0.22

Nlocal:    217 ave 217 max 217 min
Histogram: 1 0 0 0 0 0 0 0 0 0
Nghost:    953 ave 953 max 953 min
Histogram: 1 0 0 0 0 0 0 0 0 0
Neighs:    4156 ave 4156 max 4156 min
Histogram: 1 0 0 0 0 0 0 0 0 0
FullNghs:  8312 ave 8312 max 8312 min
Histogram: 1 0 0 0 0 0 0 0 0 0

Total # of neighbors = 8312
Ave neighs/atom = 38.3041
Neighbor list builds = 2538
Dangerous builds = 18
Total wall time: 0:02:25
