LAMMPS (3 Mar 2020)
Reading data file ...
  orthogonal box = (0 0 0) to (16.36 16.36 16.36)
  1 by 1 by 1 MPI processor grid
  reading atoms ...
  256 atoms
  read_data CPU = 0.00107917 secs
Reading potential file /usr/share/lammps-stable/potentials/Ag_u3.eam with DATE: 2007-06-11
Neighbor list info ...
  update every 1 steps, delay 10 steps, check yes
  max neighbors/atom: 2000, page size: 100000
  master list distance cutoff = 7.55
  ghost atom cutoff = 7.55
  binsize = 3.775, bins = 5 5 5
  2 neighbor lists, perpetual/occasional/extra = 1 1 0
  (1) pair eam, perpetual
      attributes: half, newton on
      pair build: half/bin/atomonly/newton
      stencil: half/bin/3d/newton
      bin: standard
  (2) compute rdf, occasional, copy from (1)
      attributes: half, newton on
      pair build: copy
      stencil: none
      bin: none
Setting up Verlet run ...
  Unit style    : metal
  Current step  : 0
  Time step     : 0.005
Per MPI rank memory allocation (min/avg/max) = 3.744 | 3.744 | 3.744 Mbytes
Step PotEng KinEng TotEng Temp Press Density c_msdall[4] 
       0       -729.6    85.699476   -643.90052         2600    20904.807    10.472245            0 
     100   -680.66878    40.179299   -640.48948    1218.9827    8665.1138    9.6785723   0.20754489 
     200   -669.28112    36.516689   -632.76444    1107.8643   -8367.2928    9.2898022   0.31437837 
     300   -668.85655    43.021484   -625.83507    1305.2105   -12014.125    9.2230289   0.37405044 
     400   -668.80545    49.618603   -619.18685    1505.3577   -7417.6952    9.2774555    0.3247708 
     500    -661.3705     49.15002   -612.22048    1491.1416    5816.7772     9.270889    0.4012385 
     600   -652.08265    46.632098   -605.45055    1414.7514    7745.7227    9.1387596   0.53115121 
     700   -646.88663    48.236905   -598.64972     1463.439    70.869522    8.9105791   0.69645002 
     800   -644.19172    52.148323    -592.0434    1582.1058   -7607.4927    8.7569999   0.89826809 
     900   -635.23262    50.388922    -584.8437    1528.7281    7266.0406    8.8090248    1.1870385 
    1000   -626.40985    48.688582   -577.72127    1477.1422   -1159.8868    8.3828811    2.2437008 
    1100   -621.88111    50.917972   -570.96314    1544.7787    9667.0733    8.4294248    3.5708571 
    1200   -618.31944    54.913702   -563.40574    1666.0035    8220.8855    8.3206432    5.3129303 
    1300   -612.86208     56.52632   -556.33576     1714.928   -1612.0811    8.0320531     7.084029 
    1400   -609.79566    60.721852   -549.07381    1842.2145   -1088.7818    7.9544218    9.9131174 
    1500   -606.60534    64.229246    -542.3761    1948.6238    1223.5742    7.9715785    12.925967 
    1600   -598.68649    63.948583   -534.73791    1940.1089   -8144.7039    7.6752287    15.650592 
    1700    -600.1508    71.727508   -528.42329    2176.1104    5970.7414    7.8719282    18.154821 
    1800   -593.32793    72.815304   -520.51263    2209.1126   -4685.2015    7.4278184      22.4783 
    1900   -585.30101    72.361868   -512.93914     2195.356   -6146.5227    7.2670716    27.436286 
    2000   -575.54747    69.816613   -505.73086    2118.1366    8890.0696    7.2954228    33.465602 
    2100   -575.28022    76.519708   -498.76051    2321.4989    3831.4938    7.1952485    39.958506 
    2200   -565.54563    74.396098   -491.14954    2257.0716   -1445.4423    6.8309291    47.842476 
    2300   -567.90369    84.587084    -483.3166    2566.2516   -2435.4292    6.7723374     55.23965 
    2400   -561.05225    86.337673   -474.71458     2619.362   -1549.9966    6.4764335    63.997711 
    2500   -554.87934    85.244656   -469.63468    2586.2014    930.09769    6.3537694    71.834452 
    2600   -551.89974    91.629869   -460.26987    2779.9197   -3140.5119    6.1045369    80.451385 
    2700   -552.62223    86.332713   -466.28952    2619.2115    4722.1201     6.437721    86.978911 
    2800   -562.30424    87.137803   -475.16644    2643.6368   -392.99452    6.7888679    92.399641 
    2900   -563.77831    81.559685   -482.21863    2474.4046    1844.8969    6.7902389    99.214666 
    3000   -558.35253    91.050958   -467.30157    2762.3563   -4167.4058    6.5642147     107.5303 
    3100   -558.72045    84.262226   -474.45822    2556.3959   -3755.5277     6.511962     115.3259 
    3200   -563.20096    86.669005   -476.53195    2629.4141    4810.0515    6.8423537    119.89989 
    3300   -573.21256    80.803194   -492.40937    2451.4538    420.72225     7.040654     125.8695 
    3400   -566.78128    84.635288   -482.14599     2567.714    5226.2578    6.9859973    135.70839 
    3500   -561.53548    88.822202   -472.71328     2694.739    95.642731    6.6208665    147.58913 
    3600    -560.7858    85.359203   -475.42659    2589.6766   -4672.3318    6.4247361    157.06523 
    3700   -558.09698    96.074022   -462.02296    2914.7489    8001.0828    6.7069838    159.79803 
    3800   -548.21788    77.914971   -470.30291    2363.8292   -1310.5311    6.4115263    172.57536 
    3900   -557.49094    84.767502   -472.72344    2571.7252   -183.83456    6.4663552    177.73645 
    4000   -555.94025    84.275989   -471.66427    2556.8134    924.02127    6.0810671    192.82852 
    4100   -543.51404    82.077083   -461.43696    2490.1018   -853.22821    5.8603409    204.37207 
    4200   -544.27661    85.650465   -458.62615    2598.5131   -3310.9473    5.9389375     205.9907 
    4300   -554.72411    82.419141   -472.30497    2500.4793   -1592.2879    6.3626961    202.08944 
    4400   -565.46712    82.904949   -482.56217     2515.218    787.96994    6.7896427    200.18237 
    4500   -569.69766    95.164584   -474.53307    2887.1579    3276.6606    6.9489257    202.62049 
    4600   -559.24181    83.770676   -475.47114     2541.483   -4375.7398    6.5327127    215.44006 
    4700   -551.54787    83.535477   -468.01239    2534.3473    4436.3647    6.3466605    226.55534 
    4800   -554.16743    89.463143   -464.70429    2714.1843   -1792.6397    6.1774794    235.73133 
    4900   -554.16559    90.917671   -463.24792    2758.3126     639.2915    6.2303866    240.23598 
    5000   -555.50588     80.94664   -474.55924    2455.8057     9164.502      6.33374    246.81445 
    5100   -558.83385     95.65592   -463.17793    2902.0643    1147.5415    6.5205845    249.37513 
    5200   -559.69729    81.814645   -477.88265    2482.1397    2850.2175    6.6912716    254.87146 
    5300   -561.11055    87.907727   -473.20283    2666.9952    -3476.555    6.5440325    264.61023 
    5400   -557.49747    90.911564   -466.58591    2758.1273    5337.4936    6.6532675    269.70321 
    5500   -563.86661    84.219884   -479.64672    2555.1113    1842.2316    6.6691063    274.70809 
    5600   -556.58794    84.152047   -472.43589    2553.0532   -5481.8791    6.5636511    284.74674 
    5700   -554.78218    88.574164   -466.20801    2687.2139    354.55725    6.5338496    295.02457 
    5800   -558.46041    89.841654   -468.61876    2725.6678    11465.579    6.5606213     306.4502 
    5900   -554.28951    83.913291   -470.37622    2545.8097    2465.3224    6.2571458    324.44519 
    6000   -560.16945    80.281974   -479.88747    2435.6407    1584.1869     6.556565     327.9628 
    6100   -550.48157    86.773639   -463.70793    2632.5886   -1644.9809    6.3419745    336.38704 
    6200   -548.28163    82.486292   -465.79534    2502.5166   -662.25932    6.2445136    349.08246 
    6300   -559.44391    81.246262   -478.19764    2464.8958    6805.4829     6.528464    345.09973 
    6400   -557.40113     93.63904   -463.76209    2840.8751   -7806.4436    6.5047985    351.32511 
    6500   -555.94342    87.122094   -468.82132    2643.1602   -4076.8331    6.3655284    359.60915 
    6600   -560.57617    86.792771    -473.7834     2633.169   -4004.6061    6.4116897    364.80951 
    6700   -568.97539    81.093553   -487.88183    2460.2629   -443.98303    6.7515757    359.09412 
    6800   -575.24725    89.868318   -485.37893    2726.4767    3892.6223    7.0652835    358.24124 
    6900   -559.12025    86.193799   -472.92645    2614.9971   -784.22293    6.6102463    385.34427 
    7000   -551.58913    83.387312   -468.20182    2529.8522   -2093.8758    6.3292204     398.8429 
    7100    -551.3563    81.430027   -469.92627     2470.471    903.85205    6.3240361    400.04542 
    7200    -572.7274    85.720207    -487.0072    2600.6289    7910.7345    6.8251832    386.17398 
    7300   -565.86574    84.360634   -481.50511    2559.3814   -2861.5515    6.8427131    397.90234 
    7400   -558.43921      83.6954   -474.74381    2539.1992   -309.39557    6.7694193    406.13718 
    7500    -551.6747    90.567569   -461.10713     2747.691   -261.08383    6.5385269    423.72834 
    7600   -558.41869    87.363128   -471.05556    2650.4728   -1405.4759    6.5565739    429.47656 
    7700   -555.47979    87.274797   -468.20499     2647.793   -930.07226    6.4735981    441.37388 
    7800   -553.88204    82.513949   -471.36809    2503.3556    1020.5569    6.2924466    454.06178 
    7900   -552.60096    93.462795   -459.13817     2835.528    10305.966    6.3995967    455.67435 
    8000   -553.31633    87.346589   -465.96974    2649.9711   -694.09542    6.3778922     460.5832 
    8100   -556.36265    78.403552    -477.9591    2378.6521   -10272.621    6.3360249    468.50794 
    8200   -559.73892    86.972625   -472.76629    2638.6255    5669.4403     6.540954    463.76812 
    8300   -562.93956    84.022796   -478.91676    2549.1319   -2038.3599    6.4863559     473.7366 
    8400   -558.97904    94.817028   -464.16201    2876.6135    7001.6472     6.737381    476.49437 
    8500    -550.0816     79.87756   -470.20404    2423.3714    -9257.342    6.1411117    515.87097 
    8600   -552.88753    81.861364   -471.02616    2483.5571    8334.5035    6.4073905    509.86139 
    8700   -553.89859    82.009412   -471.88918    2488.0487    5907.5912    6.5553515     498.5568 
    8800   -553.11286    84.646284   -468.46657    2568.0477   -3933.3368    6.3566004    517.56729 
    8900   -556.03507     93.13247    -462.9026    2825.5065    -1148.874    6.3899875    523.48862 
    9000   -556.06512    85.507353   -470.55777    2594.1713   -1953.4364    6.5529115    515.69375 
    9100   -562.89354    84.349243   -478.54429    2559.0359    5016.7785    6.8095493    509.60049 
    9200   -563.45356     78.28833   -485.16523    2375.1564    1433.1383    6.7502079    515.87075 
    9300   -554.57456    84.763151   -469.81141    2571.5932     582.9078    6.4699958    543.05455 
    9400   -551.69236    80.938521   -470.75384    2455.5594    165.99003    6.3621838    555.24656 
    9500    -560.0393    91.067822   -468.97147     2762.868     3991.241    6.7383966    540.74769 
    9600   -563.62092    80.562314   -483.05861    2444.1458    3038.4937    6.7390571    553.77719 
    9700   -559.44217    86.892888   -472.54928    2636.2064    8163.2161    6.6946654     563.6017 
    9800   -558.06233    89.516887   -468.54544    2715.8148    1939.4853    6.5681146    578.74957 
    9900   -567.47473    84.334409   -483.14032    2558.5858    248.77588    6.7833738    568.63881 
   10000   -566.31726    80.921599   -485.39567     2455.046   -2306.8345    6.7851898     576.3108 
Loop time of 5.22002 on 1 procs for 10000 steps with 256 atoms

Performance: 827.583 ns/day, 0.029 hours/ns, 1915.702 timesteps/s
100.2% CPU use with 1 MPI tasks x no OpenMP threads

MPI task timing breakdown:
Section |  min time  |  avg time  |  max time  |%varavg| %total
---------------------------------------------------------------
Pair    | 3.0223     | 3.0223     | 3.0223     |   0.0 | 57.90
Neigh   | 0.33546    | 0.33546    | 0.33546    |   0.0 |  6.43
Comm    | 0.077147   | 0.077147   | 0.077147   |   0.0 |  1.48
Output  | 0.0027024  | 0.0027024  | 0.0027024  |   0.0 |  0.05
Modify  | 1.7687     | 1.7687     | 1.7687     |   0.0 | 33.88
Other   |            | 0.01365    |            |       |  0.26

Nlocal:    256 ave 256 max 256 min
Histogram: 1 0 0 0 0 0 0 0 0 0
Nghost:    1218 ave 1218 max 1218 min
Histogram: 1 0 0 0 0 0 0 0 0 0
Neighs:    8600 ave 8600 max 8600 min
Histogram: 1 0 0 0 0 0 0 0 0 0

Total # of neighbors = 8600
Ave neighs/atom = 33.5938
Neighbor list builds = 763
Dangerous builds = 29
Total wall time: 0:00:05
