LAMMPS (3 Mar 2020)

    # ---------- Initialize simulation ---------------------
    units metal
    atom_style atomic
    dimension  3
    boundary   p p p
    read_data /home/modeler/RemLabs/Lab4/Problem2A_size_4/temp_1200/lammps.data
  orthogonal box = (0 0 0) to (16.36 16.36 16.36)
  1 by 1 by 1 MPI processor grid
  reading atoms ...
  256 atoms
  read_data CPU = 0.000990835 secs

    pair_style eam
    pair_coeff * * /usr/share/lammps-stable/potentials/Ag_u3.eam
Reading potential file /usr/share/lammps-stable/potentials/Ag_u3.eam with DATE: 2007-06-11

    velocity  all create 1200 87287 dist gaussian

    # ---------- Describe computed properties------------------
    compute msdall all msd
    thermo_style custom step pe ke etotal temp press density c_msdall[4]
    thermo 100

    # ---------- Specify ensemble  ---------------------
    #fix  1 all nve
    fix  1 all nvt temp 1200 1200 0.05

    # --------- Compute RDF ---------------
    compute rdfall all rdf 100 1 1
    fix 2 all ave/time 1 2500 2500 c_rdfall[*] file /home/modeler/RemLabs/Lab4/Problem2A_size_4/temp_1200/lammps.rdf mode vector

    # --------- Run -------------
    timestep 0.001
    run 10000
Neighbor list info ...
  update every 1 steps, delay 10 steps, check yes
  max neighbors/atom: 2000, page size: 100000
  master list distance cutoff = 7.55
  ghost atom cutoff = 7.55
  binsize = 3.775, bins = 5 5 5
  2 neighbor lists, perpetual/occasional/extra = 1 1 0
  (1) pair eam, perpetual
      attributes: half, newton on
      pair build: half/bin/atomonly/newton
      stencil: half/bin/3d/newton
      bin: standard
  (2) compute rdf, occasional, copy from (1)
      attributes: half, newton on
      pair build: copy
      stencil: none
      bin: none
Per MPI rank memory allocation (min/avg/max) = 3.744 | 3.744 | 3.744 Mbytes
Step PotEng KinEng TotEng Temp Press Density c_msdall[4] 
       0       -729.6    39.553604    -690.0464         1200    9648.3411    10.472245            0 
     100    -705.8866    24.492552   -681.39405    743.06914    40061.471    10.472245  0.069174792 
     200   -697.08426    35.994878   -661.08938    1092.0333    56109.507    10.472245  0.089164664 
     300   -685.88818    41.859655   -644.02852    1269.9623    71335.967    10.472245   0.11803433 
     400   -684.45368    40.864474   -643.58921    1239.7699    74034.131    10.472245   0.11252763 
     500   -694.10635    38.252433   -655.85391    1160.5243    60099.136    10.472245  0.082223629 
     600   -693.75788    37.621025   -656.13686    1141.3683    60749.719    10.472245  0.078908512 
     700   -690.58428    43.545774    -647.0385    1321.1167    66742.293    10.472245  0.089188977 
     800   -689.58994    38.267748   -651.32219    1160.9889    66426.521    10.472245   0.10857977 
     900   -691.06739    41.696001   -649.37139    1264.9973     64887.94    10.472245   0.11124001 
    1000   -688.67747    42.420249   -646.25722    1286.9699    69789.299    10.472245   0.10589986 
    1100   -692.47235    40.595671   -651.87667    1231.6148    63385.856    10.472245   0.08510216 
    1200   -691.45713    37.954722   -653.50241    1151.4922     64087.14    10.472245   0.09056853 
    1300   -688.26126    39.415297   -648.84596     1195.804     68995.93    10.472245  0.098811494 
    1400   -689.50335    39.326226   -650.17713    1193.1017    67163.861    10.472245   0.10031454 
    1500   -692.17082    41.690169   -650.48065    1264.8203    64698.071    10.472245  0.084570827 
    1600   -692.91357    38.756293   -654.15727    1175.8107    62417.917    10.472245  0.080814282 
    1700   -692.81174    42.870806   -649.94093    1300.6392    63523.789    10.472245  0.082727546 
    1800   -689.10653    38.533724    -650.5728    1169.0583    67697.965    10.472245  0.095219594 
    1900   -688.74973    44.965198   -643.78453      1364.18    70402.786    10.472245   0.08710742 
    2000   -688.25357    38.906921   -649.34665    1180.3806    70490.191    10.472245  0.091134151 
    2100   -688.02078    35.189934   -652.83084    1067.6125    69020.864    10.472245  0.091364651 
    2200   -689.31934    37.316801   -652.00254    1132.1386    67674.926    10.472245  0.087555564 
    2300   -691.93109    37.085296   -654.84579     1125.115    63867.407    10.472245  0.083491039 
    2400   -692.02878    40.936789   -651.09199    1241.9639    64808.627    10.472245  0.079398734 
    2500   -691.25316     39.56802   -651.68514    1200.4373    65425.081    10.472245  0.085766736 
    2600   -686.64634    39.394758   -647.25159    1195.1808    71391.716    10.472245  0.099713572 
    2700   -686.88685    39.964205   -646.92264     1212.457    71861.994    10.472245    0.1029007 
    2800   -691.45302     38.42238   -653.03064    1165.6802    64429.346    10.472245  0.083600608 
    2900   -692.58356    34.298263   -658.28529    1040.5604    61803.045    10.472245  0.082238818 
    3000   -693.34629    40.217807   -653.12848     1220.151    62240.523    10.472245  0.080282995 
    3100   -692.48717     41.42154   -651.06563    1256.6705     63843.28    10.472245  0.087964001 
    3200   -688.24528      41.8794   -646.36588    1270.5613    70021.962    10.472245  0.097710177 
    3300   -688.45147    37.966241   -650.48522    1151.8417    68945.652    10.472245  0.092331247 
    3400   -692.11585    37.455636   -654.66021    1136.3506    63921.445    10.472245  0.080215333 
    3500   -688.38175    41.662603   -646.71915     1263.984    70190.341    10.472245  0.087532463 
    3600   -687.86964    38.985215   -648.88442    1182.7559    70256.666    10.472245   0.10288939 
    3700   -691.22379    43.062638   -648.16115    1306.4591    66026.478    10.472245  0.097373351 
    3800   -692.18679    37.608036   -654.57876    1140.9742    63434.467    10.472245  0.097033266 
    3900   -689.04612    39.585937   -649.46018    1200.9809    68241.787    10.472245  0.091675295 
    4000   -690.75316    40.390193   -650.36297    1225.3809    65802.907    10.472245  0.087141269 
    4100    -690.9348    38.467483   -652.46731    1167.0486    65062.997    10.472245  0.088921668 
    4200    -689.9135    38.544372   -651.36913    1169.3813    66483.722    10.472245  0.095379609 
    4300   -688.13936    38.337216   -649.80214    1163.0965    68876.682    10.472245   0.10317273 
    4400   -685.88162    39.577664   -646.30396    1200.7299    72366.466    10.472245   0.11114829 
    4500   -689.57147     36.97238   -652.59909    1121.6893    66916.226    10.472245   0.10047748 
    4600   -691.47777    38.341535   -653.13624    1163.2275    63872.692    10.472245  0.084799458 
    4700   -691.21675    40.543727   -650.67303    1230.0389    66142.171    10.472245  0.084651981 
    4800   -688.08771    39.814548   -648.27316    1207.9166    69577.425    10.472245  0.098592367 
    4900    -690.3927    39.241963   -651.15073    1190.5453    66651.633    10.472245   0.09057812 
    5000   -692.94848    38.843261   -654.10522    1178.4492    63193.485    10.472245  0.074840746 
    5100   -692.45471    41.454851   -650.99986    1257.6811    64244.326    10.472245  0.081106408 
    5200   -689.21302    43.213343   -645.99968    1311.0313    69353.318    10.472245   0.10006993 
    5300    -690.6794    40.284695    -650.3947    1222.1802      66845.4    10.472245  0.099220189 
    5400   -694.13832    40.365219    -653.7731    1224.6232    61278.985    10.472245  0.082960942 
    5500    -689.9028    40.935973   -648.96683    1241.9391     67127.44    10.472245   0.08360582 
    5600   -687.08049    37.880654   -649.19984    1149.2451    70515.242    10.472245  0.094258623 
    5700   -690.99171    39.993542   -650.99816    1213.3471    65170.534    10.472245   0.09104134 
    5800   -691.78579    37.740918   -654.04487    1145.0057     62630.72    10.472245  0.098132503 
    5900   -686.26224    39.752107   -646.51013    1206.0223    71498.859    10.472245   0.10462836 
    6000   -687.88984    37.686365   -650.20347    1143.3506      69276.7    10.472245  0.092343652 
    6100   -692.61891    36.239806    -656.3791    1099.4641    62633.377    10.472245  0.084421685 
    6200   -689.26697    38.793877   -650.47309     1176.951    67652.282    10.472245   0.10001249 
    6300   -690.76932    42.292565   -648.47676    1283.0962    66068.361    10.472245  0.093293951 
    6400   -693.10361    39.352392   -653.75122    1193.8955    62284.889    10.472245  0.085865105 
    6500   -692.88809    40.848497   -652.03959    1239.2852    62834.548    10.472245  0.086609044 
    6600   -688.39788    37.154095   -651.24378    1127.2023    68189.561    10.472245  0.099404887 
    6700   -685.91414    39.430344   -646.48379    1196.2605    72559.603    10.472245   0.10420839 
    6800   -690.45064    39.166148    -651.2845    1188.2451    65942.306    10.472245  0.096928981 
    6900   -688.46571    36.900352   -651.56535    1119.5041    67770.981    10.472245  0.098169686 
    7000   -689.61274    40.014528   -649.59821    1213.9838    67228.261    10.472245  0.092304776 
    7100   -691.78303    39.521402   -652.26163     1199.023    63960.531    10.472245  0.096557783 
    7200   -687.88989      38.0934   -649.79649    1155.6995    69908.943    10.472245   0.10746341 
    7300   -687.80433    40.575617   -647.22871    1231.0064    69593.278    10.472245   0.09995505 
    7400   -690.76282    37.823261   -652.93956    1147.5038    65748.736    10.472245  0.088827959 
    7500   -692.76631    41.517322   -651.24898    1259.5764    63220.683    10.472245  0.076618055 
    7600   -693.64386    37.631337   -656.01253    1141.6811    61656.918    10.472245  0.080050164 
    7700   -690.44042    39.908526   -650.53189    1210.7678    67230.433    10.472245  0.088815414 
    7800   -688.16914    38.865665   -649.30348    1179.1289    69631.094    10.472245   0.09671272 
    7900   -691.27153    39.700512   -651.57102     1204.457    65951.775    10.472245  0.087566532 
    8000   -694.17917    40.057294   -654.12188    1215.2812    61160.105    10.472245  0.079076852 
    8100   -690.21832    41.590375   -648.62795    1261.7927    66847.527    10.472245  0.088679685 
    8200   -685.23294    38.828107   -646.40484    1177.9895    73574.509    10.472245   0.10740551 
    8300   -690.98688    38.204309   -652.78257    1159.0643    64984.164    10.472245  0.097272861 
    8400   -690.09751     36.49148   -653.60603    1107.0995    64937.289    10.472245  0.093372712 
    8500   -691.62829     43.81541   -647.81288    1329.2971    65572.724    10.472245  0.086914789 
    8600   -690.21285    38.705935   -651.50691    1174.2829    65804.836    10.472245  0.095076108 
    8700    -690.2224    44.130755   -646.09164    1338.8642    67983.579    10.472245  0.091817145 
    8800   -691.57149    38.711242   -652.86025    1174.4439    63933.647    10.472245   0.09834751 
    8900   -691.51525    43.381166   -648.13408    1316.1228    65484.756    10.472245  0.088586278 
    9000   -689.97242     39.65221   -650.32021    1202.9916    66579.288    10.472245  0.092090296 
    9100   -689.64441    37.452552   -652.19185    1136.2571    67095.376    10.472245  0.089148448 
    9200   -691.63132    35.383977   -656.24734    1073.4995    63177.526    10.472245  0.087957352 
    9300   -691.85355    41.718889   -650.13466    1265.6917    64821.917    10.472245  0.088678384 
    9400   -687.85361    39.707288   -648.14632    1204.6625    69252.279    10.472245  0.098619976 
    9500   -686.88874    42.057384   -644.83136    1275.9611    71030.603    10.472245  0.096910104 
    9600   -688.60575    37.164367   -651.44138    1127.5139    67105.429    10.472245   0.10005065 
    9700   -692.38042    43.929536   -648.45089    1332.7595    64581.583    10.472245  0.084784927 
    9800   -690.32545    37.491776   -652.83367    1137.4471    66071.798    10.472245  0.093643559 
    9900   -690.06317    41.397151   -648.66602    1255.9306    67687.744    10.472245  0.088504817 
   10000   -691.29984    36.327723   -654.97212    1102.1314    64770.092    10.472245  0.091184635 
Loop time of 4.93084 on 1 procs for 10000 steps with 256 atoms

Performance: 175.224 ns/day, 0.137 hours/ns, 2028.053 timesteps/s
100.0% CPU use with 1 MPI tasks x no OpenMP threads

MPI task timing breakdown:
Section |  min time  |  avg time  |  max time  |%varavg| %total
---------------------------------------------------------------
Pair    | 3.3015     | 3.3015     | 3.3015     |   0.0 | 66.96
Neigh   | 0          | 0          | 0          |   0.0 |  0.00
Comm    | 0.061547   | 0.061547   | 0.061547   |   0.0 |  1.25
Output  | 0.0027192  | 0.0027192  | 0.0027192  |   0.0 |  0.06
Modify  | 1.549      | 1.549      | 1.549      |   0.0 | 31.41
Other   |            | 0.01608    |            |       |  0.33

Nlocal:    256 ave 256 max 256 min
Histogram: 1 0 0 0 0 0 0 0 0 0
Nghost:    1431 ave 1431 max 1431 min
Histogram: 1 0 0 0 0 0 0 0 0 0
Neighs:    11008 ave 11008 max 11008 min
Histogram: 1 0 0 0 0 0 0 0 0 0

Total # of neighbors = 11008
Ave neighs/atom = 43
Neighbor list builds = 0
Dangerous builds = 0
    
Total wall time: 0:00:04
