LAMMPS (3 Mar 2020)

# ---------- 1. Initialize simulation ----------
units metal
atom_style atomic
dimension 3
boundary p p p
read_data /home/modeler/RemLabs/Project/Si_3x3x3_supercell_MD/8.0/20201204-011253/lammps.data
  orthogonal box = (0 0 0) to (17.469 17.469 17.469)
  1 by 1 by 1 MPI processor grid
  reading atoms ...
  217 atoms
  read_data CPU = 0.000991694 secs

pair_style meam/c
pair_coeff * * library.meam Li Si LiSi.meam Li Si
Reading potential file library.meam with DATE: 2012-06-29
Reading potential file LiSi.meam with DATE: 2020-11-07

group Li type 1
1 atoms in group Li

velocity all create 8.0 3320 dist gaussian

# ---------- 2. Describe computed properties----------
compute msdli Li msd
thermo_style custom step pe ke etotal temp press density c_msdli[4]
thermo 100

# ---------- 3. Specify ensemble  ----------
#fix 1 all nve
fix 1 all nvt temp 8.0 8.0 0.25
#fix 1 all npt temp 8.0 8.0 0.25 tchain 2 iso 1.0 1.0 1.0 pchain 2

# ---------- 4. Run -------------
timestep 0.005
run 1000
Neighbor list info ...
  update every 1 steps, delay 10 steps, check yes
  max neighbors/atom: 2000, page size: 100000
  master list distance cutoff = 6
  ghost atom cutoff = 6
  binsize = 3, bins = 6 6 6
  2 neighbor lists, perpetual/occasional/extra = 2 0 0
  (1) pair meam/c, perpetual
      attributes: full, newton on
      pair build: full/bin/atomonly
      stencil: full/bin/3d
      bin: standard
  (2) pair meam/c, perpetual, half/full from (1)
      attributes: half, newton on
      pair build: halffull/newton
      stencil: none
      bin: none
Per MPI rank memory allocation (min/avg/max) = 9.266 | 9.266 | 9.266 Mbytes
Step PotEng KinEng TotEng Temp Press Density c_msdli[4] 
       0   -951.06911   0.22336153   -950.84574            8      -124207    1.8918427            0 
     100   -952.07661   0.42871806   -951.64789    15.355126   -124495.09    1.8918427 0.00035026812 
     200   -952.25173   0.28379946   -951.96793    10.164668   -124785.57    1.8918427 6.8282539e-05 
     300   -952.19194   0.16890507   -952.02304    6.0495671   -124734.84    1.8918427 2.0231948e-05 
     400   -952.21805   0.28393486   -951.93412    10.169517    -124666.7    1.8918427 0.00023617305 
     500   -952.12738   0.17211804   -951.95526    6.1646439   -124892.82    1.8918427 4.8768753e-05 
     600   -952.22199   0.21550247   -952.00649    7.7185168    -124726.9    1.8918427 0.00025108945 
     700   -952.24823    0.2962522   -951.95198    10.610679   -124749.93    1.8918427 0.00035138086 
     800   -952.16878   0.21788518    -951.9509    7.8038569   -124647.47    1.8918427 5.3348969e-05 
     900    -952.1866   0.18938632   -951.99722    6.7831312   -124742.51    1.8918427 6.9102558e-05 
    1000    -952.1461   0.18364437   -951.96245    6.5774755   -124827.48    1.8918427 0.00025267024 
Loop time of 0.472167 on 1 procs for 1000 steps with 217 atoms

Performance: 914.930 ns/day, 0.026 hours/ns, 2117.894 timesteps/s
100.0% CPU use with 1 MPI tasks x no OpenMP threads

MPI task timing breakdown:
Section |  min time  |  avg time  |  max time  |%varavg| %total
---------------------------------------------------------------
Pair    | 0.46223    | 0.46223    | 0.46223    |   0.0 | 97.89
Neigh   | 0          | 0          | 0          |   0.0 |  0.00
Comm    | 0.0041285  | 0.0041285  | 0.0041285  |   0.0 |  0.87
Output  | 0.00025708 | 0.00025708 | 0.00025708 |   0.0 |  0.05
Modify  | 0.0042481  | 0.0042481  | 0.0042481  |   0.0 |  0.90
Other   |            | 0.001307   |            |       |  0.28

Nlocal:    217 ave 217 max 217 min
Histogram: 1 0 0 0 0 0 0 0 0 0
Nghost:    950 ave 950 max 950 min
Histogram: 1 0 0 0 0 0 0 0 0 0
Neighs:    3702 ave 3702 max 3702 min
Histogram: 1 0 0 0 0 0 0 0 0 0
FullNghs:  7404 ave 7404 max 7404 min
Histogram: 1 0 0 0 0 0 0 0 0 0

Total # of neighbors = 7404
Ave neighs/atom = 34.1198
Neighbor list builds = 0
Dangerous builds = 0
Total wall time: 0:00:00
