LAMMPS (3 Mar 2020)
Reading data file ...
  orthogonal box = (0 0 0) to (17.469 17.469 17.469)
  1 by 1 by 1 MPI processor grid
  reading atoms ...
  217 atoms
  read_data CPU = 0.00107279 secs
Reading potential file library.meam with DATE: 2012-06-29
Reading potential file LiSi.meam with DATE: 2020-11-07
1 atoms in group Li
216 atoms in group Si
Neighbor list info ...
  update every 1 steps, delay 10 steps, check yes
  max neighbors/atom: 2000, page size: 100000
  master list distance cutoff = 6
  ghost atom cutoff = 6
  binsize = 3, bins = 6 6 6
  2 neighbor lists, perpetual/occasional/extra = 2 0 0
  (1) pair meam/c, perpetual
      attributes: full, newton on
      pair build: full/bin/atomonly
      stencil: full/bin/3d
      bin: standard
  (2) pair meam/c, perpetual, half/full from (1)
      attributes: half, newton on
      pair build: halffull/newton
      stencil: none
      bin: none
Setting up Verlet run ...
  Unit style    : metal
  Current step  : 0
  Time step     : 0.003
Per MPI rank memory allocation (min/avg/max) = 8.895 | 8.895 | 8.895 Mbytes
Step Temp E_pair E_mol TotEng Press Volume 
       0         1550   -951.04357            0   -907.76727   -115560.29    5330.9442 
    3200    1519.8415   -950.30744            0   -907.87317   -11310.918     4675.163 
Loop time of 2.27939 on 1 procs for 3200 steps with 217 atoms

Performance: 363.887 ns/day, 0.066 hours/ns, 1403.886 timesteps/s
100.0% CPU use with 1 MPI tasks x no OpenMP threads

MPI task timing breakdown:
Section |  min time  |  avg time  |  max time  |%varavg| %total
---------------------------------------------------------------
Pair    | 2.2197     | 2.2197     | 2.2197     |   0.0 | 97.38
Neigh   | 0.011225   | 0.011225   | 0.011225   |   0.0 |  0.49
Comm    | 0.013996   | 0.013996   | 0.013996   |   0.0 |  0.61
Output  | 2.4522e-05 | 2.4522e-05 | 2.4522e-05 |   0.0 |  0.00
Modify  | 0.029559   | 0.029559   | 0.029559   |   0.0 |  1.30
Other   |            | 0.004853   |            |       |  0.21

Nlocal:    217 ave 217 max 217 min
Histogram: 1 0 0 0 0 0 0 0 0 0
Nghost:    957 ave 957 max 957 min
Histogram: 1 0 0 0 0 0 0 0 0 0
Neighs:    4189 ave 4189 max 4189 min
Histogram: 1 0 0 0 0 0 0 0 0 0
FullNghs:  8378 ave 8378 max 8378 min
Histogram: 1 0 0 0 0 0 0 0 0 0

Total # of neighbors = 8378
Ave neighs/atom = 38.6083
Neighbor list builds = 19
Dangerous builds = 1
Setting up Verlet run ...
  Unit style    : metal
  Current step  : 3200
  Time step     : 0.003
Per MPI rank memory allocation (min/avg/max) = 9.663 | 9.663 | 9.663 Mbytes
Step PotEng KinEng TotEng Temp Press Density c_msdli[4] c_msdsi[4] 
    3200   -950.30744    42.434266   -907.87317    1519.8415   -11310.918    2.1572099            0 5.6811367e-32 
    3300   -951.85835    39.935353     -911.923    1430.3395   -2590.7059    2.1845596   0.27299577  0.081616279 
    3400   -949.41621    46.182807    -903.2334    1654.1006    7605.9869    2.2016829   0.43533243  0.090968223 
    3500   -950.65259     45.15046   -905.50213    1617.1257    1510.6845    2.1890941   0.17755052   0.10048604 
    3600   -951.77218    40.874118   -910.89806    1463.9627   -6218.7559    2.1701986  0.074293976   0.10286045 
    3700   -949.54849    44.927835   -904.62065    1609.1521   -4017.9236    2.1734485  0.055252742   0.09166276 
    3800   -947.33075    44.469974   -902.86078    1592.7532    8341.0906     2.200452    0.1213176   0.10291565 
    3900   -952.03825    44.216961   -907.82129    1583.6912    1655.5777    2.1913644   0.11214649  0.094835109 
    4000    -949.6566    43.483965   -906.17263    1557.4379   -7931.6985    2.1647182   0.11362688   0.11595805 
    4100   -944.01745    44.024539   -899.99291    1576.7993   -2399.1225    2.1639319  0.085839358   0.09609066 
    4200   -951.52109    44.657854   -906.86323    1599.4824    6350.3997    2.2003804   0.27160071  0.099759718 
    4300   -949.15269    41.779733   -907.37296    1496.3985    4306.4456    2.1954085   0.20667844  0.092987281 
    4400   -946.70984    47.464693   -899.24515    1700.0132   -6722.8234    2.1553496  0.024820563   0.10008587 
    4500    -949.2527    42.024518   -907.22818    1505.1658   -3199.5879    2.1762234   0.17466621   0.12114048 
    4600   -949.84547    42.617288   -907.22818    1526.3967    3483.2822    2.1941092  0.004817669    0.1108366 
    4700   -945.59332    43.500027   -902.09329    1558.0132    5663.4653    2.1873631   0.21800534   0.11500372 
    4800   -945.37526    41.061465    -904.3138    1470.6728   -5610.3277    2.1666178   0.15937371    0.1188115 
    4900   -952.88972    43.328431   -909.56129    1551.8673   -5268.3936    2.1788475  0.015184468   0.10310904 
    5000   -947.95167    43.809597   -904.14207    1569.1009    6637.6367    2.1980802   0.13788617    0.1080859 
    5100   -947.13285    42.160648    -904.9722    1510.0415    5727.7975     2.192606  0.058572155    0.1219917 
    5200   -953.05644    40.482907   -912.57353    1449.9509   -4489.7894     2.180889  0.018432151  0.090964687 
    5300   -948.16274    41.956609   -906.20613    1502.7336   -3310.3797    2.1697239   0.26509302  0.094328179 
    5400   -948.43702    44.538359   -903.89866    1595.2025      4769.13    2.1885257   0.43280285   0.10451211 
    5500   -952.00532    40.143909   -911.86141    1437.8092    5542.4349    2.2071004   0.11635517   0.11348868 
    5600   -951.40096    44.713074   -906.68789    1601.4602    -7072.951    2.1697927   0.36851835   0.11239576 
    5700   -950.06021    45.551784   -904.50843    1631.4997   -7033.3961    2.1664983   0.13562618   0.10847354 
    5800   -949.27308    41.191472   -908.08161    1475.3291    5275.4046    2.1971973   0.14120424   0.10032745 
    5900   -951.82261    40.154169   -911.66844    1438.1767    6860.7682    2.2052143   0.13721216   0.10437579 
    6000     -942.945    40.323771   -902.62123    1444.2512   -3342.2091    2.1610143   0.27512413   0.11210778 
    6100    -954.3789    47.731447   -906.64746    1709.5673   -7921.9405    2.1728998  0.015588239  0.096938784 
    6200   -951.96633    43.290436   -908.67589    1550.5064    5931.8517    2.2051368   0.29321004   0.10498059 
    6300   -945.26288     46.06207   -899.20081    1649.7763    3910.9238    2.1839162   0.14933735   0.11735964 
    6400   -946.10336    41.389101   -904.71426    1482.4075    -2376.853    2.1732807   0.20133118   0.11467158 
    6500   -947.78187    39.429198   -908.35267    1412.2109   -3487.3928    2.1752491     0.553187   0.12668353 
    6600   -949.45335    47.286814   -902.16653    1693.6422    2138.5475    2.1873207   0.18697001   0.11616804 
    6700   -949.22769    47.085022   -902.14267    1686.4147    4203.5742    2.1945028   0.18682785   0.10216609 
    6800   -947.19126    38.949325   -908.24193    1395.0236   -2301.9972    2.1758404  0.052039656     0.107691 
    6900   -946.03801       40.888   -905.15001    1464.4599   -5024.6802     2.162317  0.088749183   0.10370575 
    7000   -942.76133    43.639791   -899.12154     1563.019    5320.7991    2.1819696   0.19064103   0.12101918 
    7100   -952.68887    44.315141   -908.37373    1587.2076    11957.677    2.2174966   0.19414634   0.11271963 
    7200    -950.0366    43.332366   -906.70424    1552.0082   -7352.9723    2.1660515   0.29022188    0.1006814 
    7300   -947.69837    44.235265   -903.46311    1584.3468   -12740.779    2.1422692   0.21843352    0.1065673 
    7400   -950.55127    38.426389   -912.12488    1376.2939    6521.7487    2.2042756  0.048204762   0.10771231 
    7500   -951.21132    43.204617   -908.00671    1547.4327    10491.817    2.2120066  0.045288567   0.10640821 
    7600    -948.8941    44.611162   -904.28294      1597.81    -2624.261    2.1707996   0.36785664   0.10029024 
    7700   -948.28375    42.207349    -906.0764    1511.7142   -7540.6519    2.1619832   0.62615294   0.11953194 
    7800   -953.47418     39.92795   -913.54623    1430.0744    1758.7232    2.2017243   0.27929842   0.10555517 
    7900   -947.55576    42.469941   -905.08582    1521.1193    3167.1873    2.1889216    0.1622151   0.12296792 
    8000   -948.08193    43.006546   -905.07539    1540.3385    1862.1807    2.1832203  0.097224241   0.12663543 
    8100   -952.70002    41.808337   -910.89168     1497.423   -4756.1102    2.1809104  0.068965727   0.11148594 
    8200   -946.96574    37.539251   -909.42649    1344.5198    2810.3047    2.1899517   0.24220911   0.12575492 
    8300   -950.28112    46.381618    -903.8995    1661.2214     2663.805    2.1878452   0.09758914   0.11344118 
    8400   -949.40412    42.417915    -906.9862    1519.2559   -3254.9477    2.1787099   0.20347535   0.11748002 
    8500   -953.48988     43.18149   -910.30839    1546.6044   -5371.7883    2.1783703   0.28860765   0.11396042 
    8600   -954.53738    45.012718   -909.52466    1612.1923    892.82165    2.1956553   0.23637365    0.1107605 
    8700   -947.88214    45.503574   -902.37856     1629.773    3707.6706    2.1870211   0.33908272   0.10516519 
    8800   -947.68169    42.506929   -905.17476     1522.444   -8272.4331    2.1619084   0.28880408   0.11844255 
    8900    -947.8149    40.382588   -907.43231    1446.3579   -3286.4364    2.1735547   0.14409937   0.11950904 
    9000   -952.32982    43.643495   -908.68632    1563.1517    11939.849    2.2177366   0.26781923   0.11721345 
    9100   -944.30608    45.432982    -898.8731    1627.2447    1291.6319    2.1804712   0.15206568   0.13999527 
    9200   -946.80594    42.769034   -904.03691    1531.8317   -12906.965    2.1486086   0.21669861   0.12057988 
    9300   -949.20584    41.680192   -907.52565    1492.8333   -2136.8297    2.1807705   0.14604023   0.12433866 
    9400   -947.12639    40.897798    -906.2286    1464.8108    14549.047    2.2202961   0.17675137   0.13202422 
    9500   -942.95565    44.657771   -898.29788    1599.4794    1876.7923    2.1747514   0.24358444   0.12362408 
    9600   -947.51466    40.868101   -906.64656    1463.7472   -7817.9722    2.1658002    0.2816959   0.11295215 
    9700   -949.06362    42.152747   -906.91088    1509.7585   -1434.6346    2.1830105   0.34701084   0.10668303 
    9800   -946.67103     45.63651   -901.03452    1634.5343     7745.973    2.1939105  0.075597885   0.11562724 
    9900   -949.18556    46.849296   -902.33626    1677.9719   -2863.3033    2.1744505   0.34710831   0.12917952 
   10000   -950.53321     42.31077   -908.22244    1515.4183   -4183.7546    2.1757606   0.18276864   0.12602831 
   10100   -947.09363    42.053134   -905.04049    1506.1907    2700.3266      2.18694   0.10648817   0.12614449 
   10200   -946.21623    45.613036    -900.6032    1633.6935    3992.5444    2.1846327  0.065672753   0.11578854 
   10300   -952.23433    43.129881   -909.10444    1544.7559   -3470.1561    2.1815962   0.91377599   0.10623467 
   10400    -950.2712    42.541164   -907.73003    1523.6702   -8699.3716    2.1661441    4.5118289    0.1323605 
   10500   -948.98147    45.520576   -903.46089    1630.3819   -1190.2619    2.1783199    5.9774676    0.1320928 
   10600   -946.58036    44.724277   -901.85609    1601.8614    5346.7975    2.1875355    15.860624    0.1222435 
   10700   -955.52982    43.948563   -911.58126    1574.0781   -2371.0247     2.197325    14.138028   0.11890374 
   10800   -949.32878    41.922135   -907.40664    1501.4988   -8866.1557     2.161312    4.5973121   0.11600509 
   10900   -947.26744    43.413233    -903.8542    1554.9046   -2562.6065    2.1714451    5.6393915   0.13559276 
   11000   -946.31295    41.157303   -905.15564    1474.1053    11207.673    2.2102025    5.1231383   0.15727493 
   11100   -955.97317    44.412328   -911.56084    1590.6885         3782    2.2083976    14.693942   0.12484972 
   11200   -949.13693    45.557512   -903.57942    1631.7049    -16361.09    2.1413903    16.862584   0.13335534 
   11300   -950.98454    45.377976   -905.60657    1625.2745    -9331.503    2.1646264     20.40761   0.11803384 
   11400   -949.61148    41.984127   -907.62735    1503.7192    17871.696    2.2343725    21.306386   0.12069732 
   11500   -946.06409    44.440962   -901.62312    1591.7141    7845.1763    2.2009607    22.713513   0.13232166 
   11600   -946.51849    44.096303   -902.42218    1579.3697   -8286.4648    2.1558138    23.035569   0.12100324 
   11700   -949.92332    41.891676   -908.03165    1500.4079   -4949.6566    2.1782976    20.770636   0.10755118 
   11800   -949.13795    43.419584   -905.71836     1555.132    5450.9739    2.1977791    22.100772   0.12190886 
   11900   -947.71012    48.227182   -899.48293    1727.3228    1683.1547    2.1810778    19.256015   0.12979228 
   12000   -951.31025    43.378681   -907.93157     1553.667   -3373.4414    2.1828628    21.222231   0.12134317 
   12100    -948.4067    42.051906   -906.35479    1506.1468   -1003.3472    2.1805631    22.820916   0.11571953 
   12200   -944.39037    44.906562   -899.48381    1608.3902    2157.9735    2.1794439     21.60299   0.12186348 
   12300   -948.77603    40.581119   -908.19491    1453.4685    7140.9849       2.1989    22.425089   0.11579521 
   12400   -949.91745    42.577816   -907.33964     1524.983   -3206.6335    2.1777956    24.085925   0.11709656 
   12500   -949.84032    47.503722    -902.3366     1701.411   -6293.6725    2.1669786    23.201618   0.11609996 
   12600   -951.76154    41.593764   -910.16778    1489.7378    3895.7745    2.1983485     22.18248    0.1108497 
   12700   -949.05906    40.459603   -908.59945    1449.1162    5151.6071    2.1988225    21.067478   0.10939438 
   12800   -945.66149    42.111942   -903.54954    1508.2971    95.028946    2.1737877    17.453158    0.1142901 
   12900    -946.0389    39.041566   -906.99734    1398.3273   -3678.6855    2.1703461    20.278986   0.12911689 
   13000   -953.44357     42.71502   -910.72855    1529.8971    2675.7763    2.1989925     22.52192   0.11323749 
   13100   -948.70749    45.719819   -902.98767    1637.5181    7393.7611    2.2007477    20.940996   0.12088497 
   13200   -946.39224    39.791255   -906.60099    1425.1785   -766.99322    2.1782288    23.571191    0.1132363 
   13300   -951.95553    39.323563   -912.63197    1408.4274   -8782.9002    2.1681488    23.184223   0.11225978 
   13400   -947.37025    42.823851    -904.5464     1533.795    1159.8989     2.184888    21.535394   0.12347436 
   13500      -949.65    45.788169   -903.86183    1639.9662    13100.202    2.2172499    22.939312   0.12553424 
   13600   -949.11612    39.199675   -909.91645    1403.9902     41.12399    2.1905783    22.100382   0.13282006 
   13700   -943.89356    41.763215   -902.13035    1495.8069   -11373.432    2.1457077     22.02661   0.12837791 
   13800   -946.77719    43.735994    -903.0412    1566.4647    2038.1554    2.1792159    22.844981   0.12151789 
   13900    -951.1042    43.809976   -907.29423    1569.1145    6765.1486    2.2041551    20.495195   0.11950073 
   14000   -950.68158    44.566009   -906.11557    1596.1928   -950.96155    2.1841497    22.040743   0.11871313 
   14100    -942.9453    43.388414   -899.55688    1554.0157   -5215.8929    2.1555134    25.386691   0.12279425 
   14200   -951.07321    43.094867   -907.97834    1543.5018    1227.5689    2.1895967      21.9248   0.11920642 
   14300   -948.31214    42.138815   -906.17333    1509.2595    5978.0273    2.1971355    21.301711   0.11902894 
   14400    -947.6967    47.508886   -900.18782     1701.596   -3221.3717    2.1717373    22.060458     0.130704 
   14500   -950.60239    41.746216   -908.85617    1495.1981   -2331.6549    2.1830944    22.106085   0.13557095 
   14600   -950.31429    42.579141   -907.73515    1525.0304   -3099.5984    2.1823665    22.577074   0.12548764 
   14700   -949.86038    47.344802   -902.51558    1695.7191    126.21891    2.1828056    22.435577   0.12128069 
   14800   -952.67351    43.552511     -909.121     1559.893    1445.8388    2.1930962    21.010018   0.10226252 
   14900   -949.63249    40.293625   -909.33887    1443.1715   -1496.0316     2.182789    22.030755   0.11306513 
   15000   -946.01037    42.221107   -903.78926    1512.2069   -599.66781    2.1769597    19.957185   0.12241411 
   15100   -947.76221    40.426602   -907.33561    1447.9343     3751.072    2.1926014    22.305846     0.120029 
   15200   -951.99913    40.502556   -911.49657    1450.6547     3368.225    2.1989566    22.100382   0.10947029 
   15300   -946.92115    43.277505   -903.64364    1550.0433      -3669.7    2.1702811    22.165157   0.11836866 
   15400   -949.95764    43.350461   -906.60718    1552.6563   -5541.9535    2.1693407    20.086126   0.12301805 
   15500   -948.57278    37.960171   -910.61261    1359.5957    7440.7037    2.2019367    19.810165   0.11091188 
   15600   -948.48037    46.957522   -901.52285    1681.8481    2886.3899    2.1846567    18.980299   0.11972005 
   15700   -949.45662    44.958031   -904.49859    1610.2336   -2013.9411    2.1737761    22.699052   0.10652934 
   15800   -951.47322    42.630115   -908.84311    1526.8561   -4713.5345    2.1730093     21.43269  0.099672349 
   15900   -950.80561    47.274974   -903.53064    1693.2181    2743.3182     2.190775    21.147365   0.10762192 
   16000   -946.60573    45.292327   -901.31341    1622.2069    5816.6107    2.1899209    18.936192   0.11385088 
   16100   -952.44575    44.334009   -908.11174    1587.8834   -7255.6078    2.1731444    20.648457   0.11462533 
   16200   -949.37102    43.933918    -905.4371    1573.5536    -6376.869    2.1679683     23.01245   0.10706292 
   16300   -946.63643    47.993279   -898.64315    1718.9452    1940.8417    2.1830502    23.647543   0.12890043 
   16400   -952.64876    45.046549   -907.60222     1613.404    7546.7601    2.2092305    21.269623   0.11715559 
   16500   -949.85103    43.045976   -906.80505    1541.7508   -6561.0263    2.1700373    22.293955   0.11808331 
   16600   -941.85651    39.650388   -902.20612    1420.1331   -6673.4418     2.149342    22.206518   0.11417514 
   16700   -951.76194    40.281255   -911.48068    1442.7285    6044.9162    2.2046742    20.091327   0.10975037 
   16800   -950.14986      42.3915   -907.75836    1518.3098    7760.7444    2.2049724    21.925892   0.11452691 
   16900   -952.17047     48.03726   -904.13321    1720.5204   -7756.0117    2.1661267     17.59753  0.098982308 
   17000   -949.66502     42.59049   -907.07453    1525.4369   -8448.4693    2.1603673    19.550961   0.11638021 
   17100   -951.42116    40.557394   -910.86377    1452.6188    5012.1054     2.201565    21.245676   0.10650171 
   17200   -945.41383    42.477745   -902.93608    1521.3988    6819.1171    2.1921037    23.277805   0.10890186 
   17300   -949.40565     42.85317   -906.55248    1534.8451   -1489.7813    2.1769819    23.962121   0.10306153 
   17400   -951.44074     40.08334    -911.3574    1435.6399   -2269.0827     2.183178    20.094642   0.10783096 
   17500   -946.47572    44.045689   -902.43003    1577.5568    -1454.319    2.1750463    19.076106   0.11991227 
   17600   -946.73907    41.906371   -904.83269    1500.9342    4578.4251    2.1934006    19.845471   0.11899705 
   17700   -949.76233    40.275322   -909.48701     1442.516    1690.4905    2.1899228    21.541428   0.10961007 
   17800   -945.78174    44.684628   -901.09711    1600.4413   -3241.3452    2.1682242    20.018223   0.11158825 
   17900   -950.76127    46.560032   -904.20124    1667.6115    88.827404    2.1871516    19.191153   0.11276852 
   18000   -947.72019    39.470511   -908.24968    1413.6905    5919.4973    2.1982473    20.065554   0.11557374 
   18100   -946.34349    44.356123   -901.98736    1588.6755    347.96535    2.1751812    22.018486    0.1071547 
   18200     -947.279    44.300706   -902.97829    1586.6906   -3079.2153    2.1666607    21.602093   0.10673955 
   18300     -950.271      41.4435    -908.8275    1484.3559   -260.74698    2.1864726    21.878364  0.098258512 
   18400    -947.2291     44.10945   -903.11965    1579.8405    9204.8647    2.1975741    19.487268   0.11684149 
   18500   -947.92122    45.284559   -902.63666    1621.9287    1563.5962    2.1819753    21.302096   0.10901564 
   18600   -952.35371    42.071059   -910.28265    1506.8328   -8124.4235     2.169068    18.108154  0.099403137 
   18700   -949.88029    44.196893    -905.6834    1582.9724   -4339.9629    2.1748876    23.989513   0.10940039 
   18800   -948.49436    46.980939   -901.51342    1682.6869    10917.979    2.2059435    22.149067   0.11061925 
   18900    -955.2333    44.823259   -910.41004    1605.4066    3155.7838     2.203676    21.472667   0.10770923 
   19000   -947.98265    41.727992   -906.25466    1494.5453   -12720.152    2.1506166    21.489645   0.12391307 
   19100   -945.20727    41.577608   -903.62966    1489.1591   -4041.7422    2.1661412    21.132394   0.11543999 
   19200   -951.44571    42.339378   -909.10634     1516.443    11173.071    2.2177125    21.791584   0.11768197 
   19300   -950.63855     41.49788   -909.14067    1486.3036    6928.7572    2.2038657    21.735045   0.11160771 
   19400   -946.24082    43.214448   -903.02637    1547.7848   -7032.3935    2.1595642    23.428389   0.11391438 
   19500   -952.76621    44.499554   -908.26666    1593.8126   -7368.5386    2.1767557    21.289118   0.11529717 
   19600   -953.01172    44.601341   -908.41038    1597.4583     4002.207    2.2029277    23.550534  0.099970668 
   19700   -946.53434    45.823222   -900.71112    1641.2216    1367.8959    2.1816933    21.606954   0.12328297 
   19800   -949.65734    41.971906   -907.68543    1503.2815    -2265.875    2.1783376    24.249098   0.11018539 
   19900   -948.81353    41.580205   -907.23332    1489.2522   -954.84483    2.1805566    21.513426   0.12261798 
   20000   -948.75286    48.955589   -899.79727    1753.4117    165.89494    2.1797803    21.921279   0.12631088 
   20100   -951.06138    43.382388   -907.67899    1553.7998    3663.1389    2.1944266    21.540815   0.10401749 
   20200     -950.115    42.532159   -907.58284    1523.3477   -3073.1289    2.1774587    23.030862   0.10533549 
   20300    -944.8942    44.112436   -900.78177    1579.9475   -3759.9447    2.1650064    21.640738   0.11724559 
   20400    -951.9175    42.867658   -909.04984    1535.3641    3240.0588    2.1962113    22.104413   0.10673398 
   20500   -949.68566    42.255378   -907.43028    1513.4344    1553.0321    2.1899912     20.22178   0.10890903 
   20600   -946.39341    44.114683   -902.27873     1580.028   -2845.3651    2.1679539    22.328002    0.1155998 
   20700   -953.57579    43.601928   -909.97386    1561.6629   -4298.5635    2.1811464    25.152518   0.10819362 
   20800   -947.91664    39.621302   -908.29534    1419.0914    4239.2647    2.1985407    23.237636    0.1340045 
   20900   -946.35153    44.172972   -902.17856    1582.1157    7321.9184    2.1968508     22.87557   0.12846215 
   21000   -952.15617    43.608099   -908.54807     1561.884   -5714.3785    2.1763174    21.587717   0.11571203 
   21100   -950.30221    40.785301   -909.51691    1460.7816   -8970.4971    2.1664867    22.979067   0.11485746 
   21200   -950.03847    47.434588   -902.60388    1698.9349     1740.372    2.1891091    22.120438   0.11050164 
   21300   -954.37095    47.327886   -907.04306    1695.1132    5814.1553    2.2097576    24.399241   0.11815066 
   21400   -950.60785    39.782764   -910.82509    1424.8743   -544.27948    2.1843639    18.984656   0.10817533 
   21500   -944.27339    42.294187    -901.9792    1514.8244   -9442.1125    2.1494456    23.246975   0.11386878 
   21600   -950.95171    44.353402   -906.59831     1588.578    148.57811    2.1897469    19.582506   0.11705424 
   21700   -951.75972    43.510906   -908.24882    1558.4029    9535.9504    2.2137957     23.82365   0.11806065 
   21800   -944.02601    43.777702   -900.24831    1567.9585   -827.42194    2.1728161    26.229876   0.13471332 
   21900   -950.47584    44.316868   -906.15897    1587.2695   -7587.4284    2.1640849    22.115165   0.11054901 
   22000   -951.96434    43.890703   -908.07364    1572.0058   -1119.7557     2.184735    21.867609   0.10680885 
   22100    -946.8416    46.352029   -900.48957    1660.1616    5260.8852    2.1903043      20.0992   0.11315567 
   22200   -949.18618    42.971936   -906.21424    1539.0989    1163.2891    2.1870187    22.252191   0.10624483 
   22300   -950.69081    41.734044   -908.95677    1494.7621   -4161.1807    2.1751184    23.172833   0.10099586 
   22400   -947.30703    45.403374   -901.90365    1626.1842   -2393.9867    2.1698843    23.745818   0.12218883 
   22500   -950.84453      45.6287   -905.21582    1634.2546    1713.7502    2.1925051    19.006593   0.10565282 
   22600   -951.47578    42.351888    -909.1239     1516.891    2364.3877    2.1956828     22.67941   0.11039439 
   22700   -949.23033    46.082614   -903.14771    1650.5121   -1611.2732    2.1738669    22.345686   0.10787142 
   22800   -945.37649     40.95542   -904.42107    1466.8746   -1220.0764    2.1754503     22.25313   0.11840937 
   22900   -951.29077    41.122108   -910.16866    1472.8448    2225.4589    2.1993775    23.037595   0.11366799 
   23000   -948.54069    45.397305   -903.14339    1625.9668    3772.4365    2.1872788    20.641675   0.10917741 
   23100   -947.15144    41.840682   -905.31076    1498.5815   -2942.1019    2.1763155    17.202754   0.10905795 
   23200   -954.45967     43.15107    -911.3086    1545.5148   -3321.4537    2.1872494    21.404376   0.10475531 
   23300    -948.0562    44.575045   -903.48116    1596.5165    354.67229    2.1823552    22.258068   0.12288647 
   23400   -949.90291    44.449739   -905.45317    1592.0284    4275.3389    2.1933554    20.241434   0.10109147 
   23500   -952.97747    41.780088   -911.19738    1496.4112    -1613.522    2.1896442    20.864688   0.10544143 
   23600    -945.6386    42.885438   -902.75316    1536.0009   -8157.9568     2.158156    18.572419   0.10908157 
   23700   -951.49445    46.172982   -905.32146    1653.7488       1148.1    2.1870221    20.773441  0.095774703 
   23800   -951.89611    43.375203   -908.52091    1553.5425    11885.216     2.217691    22.075021   0.10989727 
   23900   -945.84901    45.489296   -900.35971    1629.2616   -2065.6675    2.1671991    20.235666   0.10741627 
   24000   -948.02404    43.588652   -904.43539    1561.1875   -11937.849    2.1501271    18.710486   0.11342141 
   24100   -948.97344    40.691118   -908.28232    1457.4083    2279.2787    2.1904234    19.040662   0.11958889 
   24200    -945.5992    42.920535   -902.67866    1537.2579    15493.232    2.2145976    20.198639   0.12252229 
   24300   -948.45604    46.090785   -902.36525    1650.8048    -3574.752    2.1759029    22.263517   0.12029071 
   24400   -949.02733    39.077668   -909.94966    1399.6204   -8901.4564    2.1668184    22.213416   0.11486168 
   24500   -945.86766    40.636524   -905.23113    1455.4529   -1102.5106     2.183168    19.388215   0.11220288 
   24600   -947.57928    46.217829   -901.36145     1655.355    6326.9911    2.1979942    21.564197   0.10940605 
   24700   -951.76836    41.373304   -910.39505    1481.8417    1091.3618    2.1962516    21.461402   0.10554522 
   24800   -947.44425    41.068163   -906.37609    1470.9127   -5886.8267    2.1680837    23.585447  0.098664146 
   24900   -949.82834    47.135973   -902.69237    1688.2396   -2512.7818    2.1761891    21.370229   0.10095507 
   25000   -951.86918     41.04355   -910.82563    1470.0311    6658.3669    2.2102729    20.384031   0.10767342 
   25100    -948.1553    41.667522   -906.48777    1492.3795    2875.4452    2.1889117    21.039758   0.11796114 
   25200   -949.27487    45.391454   -903.88342    1625.7573   -4864.5768    2.1680153    21.143606    0.1103478 
   25300   -951.46803    41.215743   -910.25229    1476.1985   -383.23612    2.1867352    20.567135   0.11550585 
   25400   -949.88561    42.486901   -907.39871    1521.7267    3777.5849    2.1979139    21.453195   0.11226499 
   25500   -949.16472     46.56507   -902.59965    1667.7919    973.18616    2.1825794    20.320404   0.11178197 
   25600   -951.24696    42.122831   -909.12413    1508.6871   -4936.8318    2.1751086    19.586634  0.095479461 
   25700    -950.9594    44.418176   -906.54123     1590.898    -1850.644    2.1810623    22.112464  0.089489631 
   25800   -953.09479    51.861724   -901.23307    1857.4989   -704.41965    2.1835106    22.063213  0.089977131 
   25900   -953.79794    45.499701   -908.29824    1629.6343   -880.63387    2.1921665    21.309102  0.094191653 
   26000   -946.31526    40.001757    -906.3135    1432.7179    827.97319    2.1839175    23.106111   0.11308332 
   26100    -945.5228    45.005211   -900.51759    1611.9235   -1893.9551    2.1700494    18.492677   0.11312042 
   26200   -951.31492    42.705979   -908.60894    1529.5733    2896.2454    2.1915496    22.238028   0.10997192 
   26300   -949.75336     43.72206    -906.0313    1565.9656    834.98273    2.1870626    21.151775   0.10418921 
   26400    -945.2501     44.04772   -901.20238    1577.6296   -1755.8486    2.1695542    22.907193   0.10904681 
   26500    -952.8753    42.675415   -910.19988    1528.4786    88.113105    2.1921508    21.661906   0.10713567 
   26600   -951.66225    45.229498   -906.43275    1619.9566   -1116.3609    2.1847858    22.861114   0.11497614 
   26700   -952.49017    50.099612   -902.39056    1794.3864   -2535.3699    2.1774416    21.494523  0.091509527 
   26800   -953.02222    42.111761   -910.91046    1508.2906   -98.405133    2.1891365    24.279187  0.092493425 
   26900   -948.96368    42.048941   -906.91474    1506.0406   -2445.6477    2.1805957    26.526379   0.10582798 
   27000    -948.7979    45.874869   -902.92303    1643.0714   -1464.0931    2.1797048    20.842959   0.10198234 
   27100   -950.53836    40.106371   -910.43199    1436.4648    3524.2817    2.1965501    22.158499   0.11291182 
   27200   -948.07907    41.655674    -906.4234    1491.9552   -803.66878    2.1760256    20.312102   0.10945043 
   27300   -946.02876     43.12878   -902.89997    1544.7165   -1494.1335      2.17199    30.767955   0.12331505 
   27400   -949.46507    41.864867    -907.6002    1499.4477    3835.3995     2.197908    25.053743   0.11393837 
   27500   -951.96274    41.735254   -910.22749    1494.8054    2881.1647    2.1959676    22.473472   0.10696908 
   27600   -945.99694    44.220277   -901.77666      1583.81   -8754.8807    2.1532136    22.599341   0.12509056 
   27700   -948.35291    42.096791   -906.25611    1507.7544   -812.90817    2.1822046    21.913209    0.1102817 
   27800   -949.82524    42.042369   -907.78287    1505.8052    10110.713    2.2118053    18.738689   0.10218056 
   27900   -945.72336    46.729787   -898.99358    1673.6915    1863.6463    2.1790667    22.249526   0.11126348 
   28000   -948.16833    43.530025    -904.6383    1559.0876   -4582.8586    2.1644845    22.297995   0.10387079 
   28100   -950.66597    42.466433   -908.19954    1520.9936   -4726.1147    2.1767522    22.850989   0.10995307 
   28200   -945.63996    43.726417   -901.91355    1566.1217    9175.0855    2.2011491    22.807914   0.13186818 
   28300   -949.46337     47.04824   -902.41513    1685.0974    4097.4456    2.1921375    20.846553    0.1118183 
   28400   -951.01648    41.962181   -909.05429    1502.9331   -9306.1685     2.167578     21.47792   0.10778445 
   28500    -948.0928     42.80973   -905.28307    1533.2893    -4526.479    2.1713235    22.568056   0.11452125 
   28600   -945.15135    44.582259   -900.56909    1596.7748    8644.8874    2.1967661    20.397463   0.12125516 
   28700   -948.69573    38.897329    -909.7984    1393.1613    8544.2284    2.2077626    22.521059    0.1125563 
   28800    -950.6065     43.33799   -907.26851    1552.2096   -9487.8092    2.1609129    19.419006   0.09881719 
   28900   -947.90738    44.064297   -903.84308    1578.2233   -6475.5995    2.1667164    22.867151   0.10903843 
   29000   -953.37489    42.737898   -910.63699    1530.7165    4667.4777    2.2083326    22.090218   0.11015851 
   29100   -953.00279     43.96208   -909.04071    1574.5623    3060.0835    2.1996142    21.214952   0.10772006 
   29200    -949.9857     45.77644   -904.20926    1639.5461   -4206.4297    2.1740379    22.955959     0.122004 
   29300   -948.26018    40.242467   -908.01771    1441.3392   -1264.0947    2.1806143    20.563661   0.11405698 
   29400   -953.88404    41.959917   -911.92412    1502.8521   -227.29161    2.1954355    20.993463  0.098482152 
   29500   -943.32906    40.346257    -902.9828    1445.0566     4137.843    2.1806314     21.95088   0.11410163 
   29600    -949.5759    43.272376   -906.30353    1549.8596   -959.53146    2.1809016    18.786383    0.1145483 
   29700   -953.09659    42.982176   -910.11441    1539.4657   -1806.6818    2.1878791    19.924857   0.10785921 
   29800   -949.17675    47.835887   -901.34086     1713.308   -19.110848    2.1785078     20.80373    0.1052614 
   29900   -947.66214    44.181015   -903.48112    1582.4037    4726.5573    2.1901115    19.763555   0.11346846 
   30000   -950.49638    42.578134   -907.91825    1524.9944   -2125.3114    2.1811665    18.705156   0.10914426 
   30100    -948.3366     44.50563   -903.83097    1594.0303   -6640.0606    2.1661842     21.10664   0.11520546 
   30200   -946.96227    46.527767    -900.4345    1666.4559   -662.34054     2.173552    20.807191   0.11559975 
   30300   -950.27199    43.083134   -907.18885    1543.0816    5144.9759    2.1966171    22.490925   0.10742215 
   30400   -947.17587    41.125045   -906.05083      1472.95    3188.7072    2.1873354    20.785337   0.10071739 
   30500   -945.91973    46.649609   -899.27013    1670.8198   -9564.8743     2.147397    19.414629   0.10311922 
   30600     -951.225    42.405383   -908.81961     1518.807   -135.25248    2.1845141    22.157172    0.1045104 
   30700   -948.20191    41.225288   -906.97662    1476.5403    10913.801    2.2050189    23.092982   0.10371622 
   30800   -947.90171    44.448667   -903.45305      1591.99    1075.9571    2.1774516    20.754392  0.088722409 
   30900   -947.56446    45.452064   -902.11239    1627.9281   -13236.199    2.1437237    19.788095   0.11257197 
   31000   -949.56989    38.760403   -910.80949    1388.2571    4242.3754    2.1955518    20.102265   0.11043123 
   31100   -951.51541    46.633803   -904.88161    1670.2537    11592.424    2.2149101    19.201601   0.11377919 
   31200   -950.13363    45.352089   -904.78154    1624.3474   -2667.8476    2.1776768    20.583442   0.10781834 
   31300    -948.6718    35.969691   -912.70211    1288.3039   -6336.5523    2.1655149    21.894519   0.10358583 
   31400   -947.97744    40.226175   -907.75126    1440.7557    -326.7934     2.182925    20.908192   0.11000905 
   31500   -949.72058    46.325158   -903.39542    1659.1992     5717.262    2.1996977    21.287619   0.11899614 
   31600    -952.1849      42.6137    -909.5712    1526.2682   -499.87353    2.1865469    22.090242   0.10749548 
   31700   -952.96383    43.542357   -909.42148    1559.5293   -4991.7523    2.1791132    22.222287   0.10860249 
   31800   -945.36051    42.587837   -902.77267    1525.3419    1518.5861    2.1763754    21.046641   0.10456999 
   31900   -949.77889    42.488959   -907.28993    1521.8004    2229.5346    2.1921526    21.896835   0.10592471 
   32000   -952.62218    42.453591   -910.16859    1520.5337    92.247892    2.1925998     19.76077   0.11251435 
   32100   -944.97632    44.145367   -900.83095     1581.127   -3801.2452    2.1634735    19.484718   0.11773363 
   32200   -946.54482    40.366389   -906.17843    1445.7777    2818.1807    2.1843144    21.062822   0.11359725 
   32300   -951.92971    43.529371   -908.40034    1559.0642    2186.4884    2.1951718    20.065986  0.099006277 
   32400   -945.33185    45.554736   -899.77711    1631.6054   -1097.9731    2.1689264    21.214014   0.12155235 
   32500   -948.85297    43.078773    -905.7742    1542.9254   -1824.7563    2.1766205    20.721163   0.09956093 
   32600   -949.58635     41.41437   -908.17198    1483.3125    194.27282    2.1849139    20.626614  0.096533859 
   32700   -945.36046    44.258795   -901.10166    1585.1895    5627.0422     2.185906    18.380538   0.10619836 
   32800   -948.33182     43.31686   -905.01495    1551.4529     746.2956    2.1844394    20.493633   0.10344261 
   32900   -949.46056    40.377808   -909.08275    1446.1866   -4553.7831    2.1723701    20.632299   0.11192136 
   33000   -949.58566    45.850389   -903.73527    1642.1946   -3801.3087    2.1779146    19.599808   0.12188828 
   33100   -946.38307    42.232624   -904.15044    1512.6194    7713.6899    2.1998984    23.676766   0.12192374 
   33200   -952.36999    41.741002   -910.62899    1495.0113     3094.824    2.1990495    23.539557   0.11550453 
   33300   -946.18273    41.005742   -905.17699     1468.677   -5797.6134    2.1678518    21.432865   0.13406395 
   33400   -948.80939     44.64872   -904.16067    1599.1552   -4560.9247    2.1716658     19.24218   0.12497173 
   33500   -954.19996    42.389973   -911.80999    1518.2551    6614.2189    2.2146163     21.29105   0.11418717 
   33600   -948.18602    43.580701   -904.60532    1560.9027    2504.5722      2.19398    20.288213   0.11913819 
   33700   -950.31592    45.576984   -904.73894    1632.4023   -8786.8155    2.1663007    21.782978   0.10999577 
   33800   -952.31885    41.861943   -910.45691     1499.343   -5393.8959    2.1766437    21.786198   0.10611145 
   33900   -948.91882     42.53966   -906.37916    1523.6164    7505.4584    2.2046748    22.851629   0.12114926 
   34000   -948.12431    45.863905   -902.26041    1642.6788    6452.2166    2.1981515    25.545968   0.13276046 
   34100   -952.00736    43.366402   -908.64095    1553.2273   -8900.1987    2.1655879    23.591213    0.1155971 
   34200   -946.90565    41.571426   -905.33422    1488.9377   -7191.9282    2.1600501    23.022997    0.1330411 
   34300   -948.09663    48.262677   -899.83395    1728.5941    3669.5369    2.1847679    22.645387   0.11832903 
   34400   -949.83774    43.011617   -906.82612    1540.5202    9234.4839    2.2078207    19.424084   0.10892601 
   34500   -948.11133    40.375986   -907.73535    1446.1214     -4230.88    2.1753863    22.649114   0.11886801 
   34600   -944.08882    43.982321   -900.10649    1575.2872   -8981.5444    2.1523107    24.664291   0.12006142 
   34700   -950.64739     42.04905   -908.59834    1506.0445    5047.1026    2.2003875    19.651814  0.094603632 
   34800   -950.22082    42.714232   -907.50659    1529.8689    6026.9862    2.1992103    19.498278   0.11053993 
   34900       -947.6    44.736814   -902.86318    1602.3105   -2640.4341     2.174029    19.560904   0.11270915 
   35000   -950.83135    43.918061   -906.91329    1572.9857   -4263.1208    2.1761345    23.309897   0.11715999 
   35100   -950.23603     40.27399   -909.96204    1442.4683    1304.1746    2.1919453    22.219543   0.12232381 
   35200   -947.73627     43.71687    -904.0194    1565.7798    3240.2564    2.1881437    20.328855   0.11451769 
   35300   -949.37514    43.171042    -906.2041    1546.2302   -1470.8272    2.1803821    19.841863   0.11602282 
   35400   -948.90134    36.726401   -912.17493    1315.4065   -122.51313    2.1897915    21.443285   0.11422975 
   35500   -949.92747    45.620177   -904.30729    1633.9493     333.7822    2.1835305    17.731221   0.12089031 
   35600   -951.10159    45.800994    -905.3006    1640.4255    2865.8107    2.1923779     21.78512   0.10739906 
   35700    -953.7628    41.696647   -912.06616    1493.4227   -1828.3314    2.1940735    20.862064   0.10942151 
   35800   -947.73152    44.200842   -903.53068    1583.1139   -5931.4718    2.1652387    22.767458   0.10475897 
   35900   -951.21139    46.364636   -904.84675    1660.6131    535.95811    2.1875419    22.807243  0.097924401 
   36000   -951.47319     42.13196   -909.34123     1509.014    9261.2253    2.2107195    20.999606   0.11869627 
   36100   -942.58767    41.259322   -901.32835    1477.7593    1292.7469    2.1752315    21.527784   0.13236226 
   36200    -946.9673    43.335067   -903.63223     1552.105   -5714.5806    2.1627331    22.413816   0.12191861 
   36300   -949.77209    41.538273   -908.23382    1487.7503   -657.94904    2.1826941    19.972898   0.10600738 
   36400   -946.29993    42.280514   -904.01941    1514.3347    13069.174    2.2087294     21.60087   0.12212047 
   36500   -946.91379    46.551337   -900.36246    1667.3001    695.15774    2.1767246    22.383353   0.10789165 
   36600   -951.48182    43.034114    -908.4477    1541.3259   -10989.171    2.1571223    20.715155   0.10261319 
   36700   -948.22435    42.131027   -906.09332    1508.9806    -350.6897    2.1780815    21.641394   0.10805718 
   36800   -948.48094    48.935472   -899.54547    1752.6912    9595.4617    2.2050993    18.898871   0.10877642 
   36900   -949.54286    41.655326   -907.88754    1491.9427    2186.4808    2.1916735      20.5951   0.11488572 
   37000   -950.84395    42.475766   -908.36818    1521.3279   -13111.342    2.1550003    20.991007   0.10990424 
   37100   -951.73007       48.911   -902.81907    1751.8146   -4560.2717    2.1734062    22.874824   0.10948216 
   37200   -950.60712    41.510466   -909.09665    1486.7544    6817.9989    2.2032826    22.786817   0.11612621 
   37300   -950.16152    40.420132   -909.74139    1447.7026     3189.832    2.1923453    20.527179   0.10686855 
   37400    -946.0755    42.426549   -903.64895    1519.5651   -1243.8115    2.1700697    24.820759   0.11507492 
   37500   -951.28007    43.582334   -907.69773    1560.9611   -2831.9853    2.1787573    19.869416   0.10977942 
   37600   -952.58658    41.767501   -910.81908    1495.9604    3321.0515    2.2003717    23.371011  0.098435799 
   37700   -945.02887    42.510074    -902.5188    1522.5567     2754.024    2.1801942     22.91686   0.10844657 
   37800   -950.25424    43.264817   -906.98943    1549.5888   -2384.1608    2.1773072    19.374299  0.098821061 
   37900   -953.39053    43.334816   -910.05571     1552.096   -1863.5928    2.1854812    20.770947   0.10315314 
   38000   -949.10225    48.113438   -900.98882    1723.2489   -1225.9207    2.1764813    20.193006    0.1205711 
   38100   -951.78829    45.966673   -905.82161    1646.3595    1843.1414    2.1930814    22.361515   0.10996457 
   38200   -952.07943    43.107861   -908.97156    1543.9673   -2464.1901    2.1834758    22.099329   0.11542506 
   38300   -945.46483    44.975836   -900.48899    1610.8713   -6308.3671    2.1554732    22.150458    0.1196952 
   38400   -950.56876     44.69579   -905.87297    1600.8411    3560.9228    2.1944755     20.63574   0.10616698 
   38500   -950.63651    42.939733   -907.69678    1537.9455    9231.4682    2.2095504    22.070903   0.11382404 
   38600   -948.37689    45.488902   -902.88799    1629.2475   -5020.1339    2.1701182    20.924777    0.1112493 
   38700   -947.53837    44.264987   -903.27338    1585.4113   -11115.022    2.1492867    23.847221   0.10375243 
   38800   -949.83326    40.374321   -909.45893    1446.0618    3664.2309    2.1957889     19.85786   0.11149784 
   38900   -948.89929    46.156574   -902.74271    1653.1611     12643.05    2.2143673    21.383399   0.10682272 
   39000   -949.18511    44.296737   -904.88837    1586.5485   -1068.8871    2.1782971    20.090877   0.10396953 
   39100   -948.79293    36.960854   -911.83208    1323.8037   -6650.8236    2.1666366    20.480315   0.11813085 
   39200    -947.4736    42.360947   -905.11266    1517.2155   -313.87717    2.1817448    20.433672   0.11467241 
   39300   -948.99119    45.182313   -903.80888    1618.2666     7084.918    2.2029047    22.595284   0.13229037 
   39400   -952.40637    40.436919   -911.96945    1448.3038     2093.008    2.1992272    21.137664   0.10801473 
   39500   -949.30743    44.413446   -904.89399    1590.7286   -7196.1295    2.1639669    23.931147   0.10127978 
   39600   -948.22884    43.977647    -904.2512    1575.1198    -1457.583    2.1777185    20.609243   0.12290881 
   39700   -952.30449    42.362461   -909.94203    1517.2697     3084.558     2.198934    19.841615    0.1043074 
   39800   -947.63282    43.942011   -903.69081    1573.8435    1776.4881    2.1834161     20.21136   0.11108304 
   39900   -948.86986     45.77325   -903.09661    1639.4318   -4947.4745     2.170959     23.55888    0.1079858 
   40000   -950.05284    41.264336   -908.78851    1477.9389   -1688.3745    2.1804486    21.456581  0.095597393 
   40100   -947.65423    42.746524   -904.90771    1531.0255    4217.0212    2.1904777    19.041525    0.1242605 
   40200   -949.28044    48.209791   -901.07065    1726.6999    482.38632    2.1842523    22.344459   0.12796547 
   40300   -949.38983    41.069404   -908.32043    1470.9571   -3602.2137    2.1758004    21.283937   0.11771364 
   40400   -946.30161    40.590108    -905.7115    1453.7905   -2968.4061    2.1695731    22.387537   0.11688326 
   40500   -945.99613    46.860401   -899.13572    1678.3696    6594.4159     2.189945    20.020718   0.10660766 
   40600   -951.59665    44.237713   -907.35894    1584.4345    9529.3356    2.2094886     20.14984   0.09828386 
   40700   -946.10829    38.822889    -907.2854    1390.4951   -8230.2811    2.1539225    22.104271   0.11764443 
   40800    -945.9103    43.882958   -902.02734    1571.7284   -13095.946      2.13916    21.563793    0.1034414 
   40900   -953.79733    43.617586   -910.17974    1562.2238    9197.7851    2.2112979    23.154837  0.095880721 
   41000    -954.4097    46.917011   -907.49269    1680.3972     8937.932    2.2103213    22.147767   0.10343745 
   41100   -946.66184    42.727872   -903.93396    1530.3574     -5542.94     2.161058    20.192332   0.11506695 
   41200   -951.69106    43.256522   -908.43454    1549.2918   -10896.063    2.1622753    20.566699   0.11537972 
   41300   -952.60943    42.563484   -910.04595    1524.4696    6000.8088    2.2029051    21.051707    0.1205508 
   41400   -948.98318    46.468247   -902.51493    1664.3241    5547.5224    2.1965215     19.07283   0.11419475 
   41500   -949.09353    41.996794   -907.09674    1504.1729    -1858.329     2.176334    19.877435   0.10155933 
   41600   -953.14835    42.347216   -910.80114    1516.7237   -5645.4541    2.1757842    18.436414  0.096093862 
   41700   -946.56663     44.66187   -901.90476    1599.6262   -1451.3374    2.1784818    22.279457   0.11171404 
   41800   -948.79685    43.341668   -905.45518    1552.3414    6441.2041    2.2006023       20.664   0.10436906 
   41900   -950.30763    40.944126    -909.3635    1466.4701     781.1725    2.1906446    23.260429   0.10085135 
   42000   -943.06274    42.537257   -900.52548    1523.5303   -3990.5223    2.1582767    22.197737   0.12056166 
   42100   -945.23073    40.485268   -904.74546    1450.0355      2482.48    2.1829392    23.813151   0.12433551 
   42200   -947.31702    39.188655   -908.12837    1403.5955    7690.0716    2.2008586    19.640629   0.13029931 
   42300   -947.04857    45.284025   -901.76455    1621.9096    1148.5642    2.1790381    22.313268   0.11964837 
   42400   -947.96514    44.014925   -903.95021     1576.455   -7437.2702    2.1636724    22.219075   0.11307526 
   42500    -949.4699    40.201241   -909.26866    1439.8626   -959.69706    2.1809678    20.885922   0.10247649 
   42600   -949.13992    46.621226    -902.5187    1669.8032    13600.087    2.2128185    22.749921  0.098886238 
   42700   -948.33744    42.591177   -905.74626    1525.4615    3977.0977    2.1894174    20.889036   0.09995038 
   42800   -952.31234     40.41283   -911.89951     1447.441   -13503.082     2.155141     20.43408  0.087838623 
   42900   -949.61959    44.152258   -905.46733    1581.3738   -3072.1808    2.1705494    22.773741    0.0981982 
   43000   -949.35257    46.251866    -903.1007    1656.5741    10611.508    2.2074191    21.872393   0.11685076 
   43100   -954.67947    43.530713   -911.14876    1559.1123    5448.4393    2.2060105    21.166312   0.11465306 
   43200   -949.82749    44.708807   -905.11868    1601.3073   -8629.1209    2.1616045    19.470377   0.12373726 
   43300   -950.05603    46.144544   -903.91149    1652.7302   -5151.9639    2.1700734     19.51752   0.12102129 
   43400   -953.65068    44.491951   -909.15873    1593.5403    5424.4526    2.2030624    21.959268    0.1034705 
   43500   -947.82205    41.278227   -906.54382    1478.4364    6343.6235    2.1971952    20.655256   0.11688871 
   43600   -945.68578     43.45701   -902.22877    1556.4725   -3418.4776    2.1648819    20.245025   0.10197497 
   43700   -951.23737    42.343938   -908.89343    1516.6063   -6418.6146     2.173467    21.047525   0.10985582 
   43800   -946.03049    40.008329   -906.02216    1432.9533    6805.5639    2.1937081    24.911089    0.1063085 
   43900   -948.84865     48.71129   -900.13737    1744.6617    2527.9019    2.1868795    22.950094   0.10284105 
   44000   -950.75845    42.523052    -908.2354    1523.0215   -4106.5563     2.179579    24.461011   0.11592362 
   44100   -947.49879    41.081138   -906.41765    1471.3774   -3530.2053    2.1669429    20.476884   0.10562319 
   44200    -946.6295    46.435817   -900.19368    1663.1626    1168.4115    2.1771288    19.837761   0.12671027 
   44300   -952.15373     43.68979   -908.46394    1564.8098    7019.5867    2.2074843    20.492876   0.11965585 
   44400   -949.45683    42.689306   -906.76752    1528.9761   -1760.8899    2.1772066    20.762519   0.10756964 
   44500   -947.62442    45.938538   -901.68588    1645.3518   -12275.324    2.1445893    21.577674   0.10904639 
   44600   -952.71888    41.986861   -910.73202    1503.8171    3179.4427    2.1997089    22.563365   0.10784953 
   44700   -950.50817    43.825004   -906.68316    1569.6527    19612.375    2.2359553    23.608262   0.11887375 
   44800   -947.37738    44.404222   -902.97315    1590.3982   -5812.8302    2.1621686    25.377329   0.11024388 
   44900   -947.89209    42.747533   -905.14456    1531.0616   -20136.468    2.1263464    22.465043   0.10658567 
   45000   -953.64469    44.270229   -909.37447    1585.5991    2456.7305    2.1961271     22.06028   0.10596265 
   45100    -949.2542     47.97305   -901.28115    1718.2207    12443.252    2.2072702    22.005604   0.12007805 
   45200   -947.31509    42.767003   -904.54808     1531.759    651.29289    2.1773365    19.349467   0.11359176 
   45300   -950.18429    39.737907   -910.44638    1423.2677   -7105.3445    2.1668899    20.587658   0.11444516 
   45400   -946.31345    43.004891   -903.30856    1540.2792   -312.54556    2.1761645    20.884781   0.12457276 
   45500   -947.94728     44.39237   -903.55491    1589.9737    9264.5852     2.202313    23.480236     0.108176 
   45600   -950.83808    41.222944   -909.61513    1476.4564    1043.4295    2.1893076    21.918645   0.10726682 
   45700   -947.54337    43.883069    -903.6603    1571.7324   -8396.0323    2.1597626    22.705189   0.10493122 
   45800   -948.91362    45.683578   -903.23004    1636.2201   -1974.5771    2.1744588    21.709211  0.094511698 
   45900   -953.00779    43.526981   -909.48081    1558.9786    7946.9727    2.2088503    22.539145  0.099827564 
   46000   -949.23942    46.136735   -903.10269    1652.4505    1415.0937     2.184452    22.215688    0.1068246 
   46100   -947.34544     42.80214    -904.5433    1533.0174   -9009.7045    2.1572754    21.489312   0.11076082 
   46200   -949.01672    37.973468   -911.04325    1360.0719   -1377.8863    2.1792946    20.133155   0.10681912 
   46300   -946.88573    43.275238    -903.6105    1549.9621    8386.8259    2.1976281    24.037968   0.11750074 
   46400   -946.56184    42.097871   -904.46397    1507.7931    7090.3961    2.1953071    20.210605   0.11253434 
   46500   -951.37361    40.021192   -911.35242     1433.414   -5875.1918     2.176243    21.135958   0.11772314 
   46600   -946.98642    43.102678   -903.88374    1543.7816   -6678.0766    2.1585677     22.45566   0.12039455 
   46700   -948.00296    44.230549   -903.77242    1584.1779    4012.9977    2.1907643    21.431407   0.11772336 
   46800   -954.46877     44.92036   -909.54841    1608.8844    4827.5122    2.2088151    23.065616   0.11337101 
   46900   -947.39436    44.939439   -902.45492    1609.5677   -4602.5995    2.1652993    21.515522   0.10932313 
   47000   -948.39339    44.302862   -904.09053    1586.7679   -8729.1628    2.1588445    21.667374   0.11638784 
   47100   -951.02727     41.89721   -909.13006    1500.6061    6074.2024    2.1996288    21.344494   0.10967252 
   47200   -950.90397    48.277813   -902.62616    1729.1362    14242.875      2.21933    19.243479   0.10407174 
   47300   -942.90013    39.311901   -903.58823    1408.0097   -5700.3711    2.1625808    22.102585   0.12504666 
   47400   -948.55062    38.099241   -910.45138    1364.5766   -22269.111    2.1274852     21.76836   0.11608288 
   47500   -948.74735    42.364643   -906.38271    1517.3479    4555.2851    2.1947517    21.715139   0.11434409 
   47600   -946.37853    44.833885   -901.54464    1605.7872    15321.347    2.2134855    20.345957   0.11905074 
   47700   -950.30444    41.350063   -908.95437    1481.0093   -2328.4436    2.1798985    23.317034   0.11340861 
   47800   -949.71862    40.416937   -909.30168    1447.5881   -8940.5022    2.1611608    18.330813    0.1029055 
   47900   -951.02055    47.633344    -903.3872    1706.0536   -2559.4477    2.1790668    22.881009   0.10379921 
   48000   -950.54404    42.806682   -907.73735    1533.1801     9679.775     2.209404    20.168183   0.10072123 
   48100   -952.16335    41.214044    -910.9493    1476.1376    1821.1062    2.1953826    20.970199   0.10002691 
   48200   -947.63119    44.492358   -903.13883    1593.5549   -10680.843    2.1523049    21.833797   0.10806161 
   48300   -949.09418    42.088441   -907.00574    1507.4553   -2970.7412    2.1790441    20.966814   0.10971423 
   48400   -950.73205    41.687336   -909.04472    1493.0892    11175.349     2.216899     23.45506   0.11096725 
   48500   -945.36159    45.020431   -900.34116    1612.4686    1746.0743    2.1782736    21.659303   0.11612795 
   48600   -949.01383    42.590873   -906.42296    1525.4506   -8769.7823    2.1632329    19.808317   0.11704672 
   48700   -955.15885    46.703755   -908.45509    1672.7591    -6035.869     2.180181    21.623473   0.11054326 
   48800   -947.57925    47.715677   -899.86357    1709.0025    6458.3195    2.1957162    21.376166   0.12277705 
   48900   -948.03834    42.658838    -905.3795    1527.8849    2717.0878     2.191795    17.758126   0.11898764 
   49000   -951.46928    42.153206   -909.31607     1509.775   -8386.4619    2.1683464    20.397796   0.11734302 
   49100   -947.76018    45.754039   -902.00614    1638.7437   -4557.8776    2.1687662     20.08349   0.11038596 
   49200   -947.12912    41.105563   -906.02356    1472.2522    8610.4102    2.2028183    21.327373   0.11471144 
   49300    -950.7621    41.700917   -909.06118    1493.5756    3957.4079    2.1989802    23.132495   0.10592946 
   49400   -948.63355    45.445911   -903.18764    1627.7077    -4537.234    2.1664647    23.339444   0.11747057 
   49500   -947.87681    43.345389   -904.53142    1552.4747   -3753.5807    2.1701497    21.853425   0.12897247 
   49600   -948.61746    38.628247   -909.98921    1383.5237    5765.9975    2.2008784    18.629288   0.12107149 
   49700   -944.63803    41.862012   -902.77602    1499.3455    6599.7881    2.1883512    19.022734   0.12860325 
   49800   -949.95566    44.404327   -905.55134    1590.4019   -3607.1808    2.1768686    20.980056   0.11121548 
   49900   -949.26267    38.534481   -910.72819    1380.1654    835.40163    2.1879266    23.107344   0.11557584 
   50000   -950.31571    47.727509   -902.58821    1709.4263   -1835.5989    2.1790176    23.911493   0.10532736 
   50100   -947.56282    41.641754   -905.92107    1491.4566    2040.1183    2.1845974    21.924767  0.097465617 
   50200   -951.04281    40.810322   -910.23248    1461.6777    1296.4285    2.1893783    24.076103  0.091762863 
   50300   -949.80945    48.011319   -901.79813    1719.5913   -4246.2938    2.1730414     22.14351   0.11615309 
   50400   -948.08005    41.819051     -906.261    1497.8068    876.40247    2.1845028    24.447116   0.11901463 
   50500   -951.08158    41.490188   -909.59139    1486.0281   -355.14511    2.1892968    20.537934   0.11221708 
   50600   -944.70074    43.481521   -901.21922    1557.3504   -1639.2725     2.173437    20.927526   0.12813301 
   50700    -951.8157    45.227985   -906.58771    1619.9024   -346.74741     2.184631    20.618198   0.10085578 
   50800    -951.9906    42.981602   -909.00899    1539.4451   -1171.9099    2.1884737    21.551351   0.11411275 
   50900   -946.08406    44.995115   -901.08895    1611.5618    253.64031    2.1762575    22.576392   0.11630158 
   51000   -951.16101     43.84183   -907.31918    1570.2554   -601.83141    2.1854365    21.171181    0.1102111 
   51100   -950.94267    42.213387   -908.72928    1511.9304   -1123.8328    2.1842285    22.537489   0.10475849 
   51200   -946.56485    45.119787   -901.44507    1616.0271   -1620.6639    2.1767946    19.586301   0.11616775 
   51300   -950.18143    42.197639   -907.98379    1511.3664    2374.0342    2.1935449    20.879555   0.10015902 
   51400    -949.8431     41.00283   -908.84027    1468.5727   -183.26854    2.1878729    20.937917   0.12272976 
   51500   -948.50187    46.181698   -902.32017     1654.061   -3156.7675    2.1724362    23.377746   0.13042862 
   51600   -951.29234    42.398383   -908.89395    1518.5563    266.53826    2.1905832    23.196193   0.11379922 
   51700   -951.52767    42.825194   -908.70248    1533.8431     1147.159    2.1914584     23.62128   0.11439079 
   51800   -950.37503    47.830548   -902.54449    1713.1168   -4076.6794    2.1764637    20.889831   0.11114291 
   51900   -950.15199    41.266638   -908.88535    1478.0213   -838.26098    2.1840663    21.887678   0.11306331 
   52000   -950.75737     42.40303   -908.35434    1518.7228    1052.7618    2.1897897    22.805581   0.11072585 
   52100   -945.78078    43.775626   -902.00516    1567.8842    174.69667    2.1812165    21.220858   0.11670473 
   52200   -951.95073    43.250203   -908.70053    1549.0654   -2482.4023    2.1876826    22.724921   0.10892117 
   52300   -952.35857    44.710119   -907.64845    1601.3543    -2395.029    2.1838739    20.163802   0.11155782 
   52400   -947.38279    45.997065   -901.38573    1647.4481   -1285.6716    2.1756007    20.753852   0.12422607 
   52500   -949.08686    40.624353   -908.46251     1455.017    4892.0145    2.1977846    23.073576   0.12104473 
   52600   -952.33649    45.162236   -907.17425    1617.5475   -746.56198    2.1902448     22.55244   0.12043078 
   52700   -950.00331    48.680765   -901.32254    1743.5685     -7440.67    2.1633285    22.505741   0.10573528 
   52800   -952.48975    42.942079   -909.54767    1538.0295   -1565.5256    2.1852608    21.252259   0.11413162 
   52900   -949.89573    43.531444   -906.36429    1559.1384    5295.2825    2.2009625    21.586258    0.1154153 
   53000   -947.28506     45.84844   -901.43662    1642.1248    1341.5183    2.1865554    21.552642   0.11169142 
   53100   -950.98269    41.240106   -909.74259     1477.071      -6240.8    2.1751935    21.869736   0.11565267 
   53200   -952.07131    44.781288   -907.29003    1603.9033   -6732.4007    2.1715856    22.089619    0.1013247 
   53300   -949.40686    47.871319   -901.53554     1714.577    6578.2313    2.1953428    22.073448  0.099903452 
   53400   -955.48729     46.39374   -909.09355    1661.6555    6808.1448    2.2121238    20.996124   0.10537717 
   53500   -949.79006    41.920828   -907.86923     1501.452   -7859.2926    2.1683496    21.888647   0.11468998 
   53600   -946.73449    43.335849   -903.39864     1552.133   -10680.246    2.1555219    23.769189   0.11691165 
   53700   -952.14836    43.614842   -908.53352    1562.1255    5322.6602    2.2048875    21.453552   0.11642363 
   53800   -952.58941    43.786472   -908.80294    1568.2726     9996.513    2.2169587    21.045874   0.10599851 
   53900   -942.22828    40.195555   -902.03273     1439.659   -3270.0778    2.1630677    22.326131   0.12216625 
   54000    -949.4652    41.107501    -908.3577    1472.3216   -7583.3504    2.1682645    21.143775   0.11458097 
   54100   -952.59719    44.870314   -907.72687    1607.0919    1874.0057    2.1989825    19.824173   0.11497225 
   54200   -947.26374     47.00183   -900.26191    1683.4351    3561.3989    2.1886292    17.798254   0.12322071 
   54300   -954.55438    46.564442   -907.98994    1667.7695   -2771.2684    2.1875678    20.553498   0.10514544 
   54400    -948.4292    40.717687   -907.71152    1458.3599   -1921.0435    2.1779923    25.184421   0.10823222 
   54500   -944.30135    43.279118   -901.02223    1550.1011   -529.04463     2.176249     22.94192   0.12720458 
   54600   -951.83953    43.039731    -908.7998    1541.5271    2320.7184     2.197224    21.221073   0.11960356 
   54700   -952.57116    44.815776   -907.75538    1605.1386   -1295.5607    2.1850847    23.656058   0.10865646 
   54800   -949.17385     47.33351   -901.84034    1695.3147    -5822.196    2.1677266    19.054884   0.11253479 
   54900   -950.65171    41.235577   -909.41613    1476.9088   -1386.8358    2.1890347     22.24142   0.11224324 
   55000   -949.80749    42.022048   -907.78544    1505.0774    3864.8799     2.195644    21.469254   0.11570236 
   55100   -946.99063    44.996386   -901.99424    1611.6074    656.45867    2.1783404    20.492714   0.11977417 
   55200   -948.22023    38.746883   -909.47335    1387.7729   -1504.5379    2.1828212    19.022558   0.12256953 
   55300     -949.106     41.31202   -907.79398    1479.6467   -2747.6258    2.1832676    19.134049    0.1247113 
   55400   -943.71481    41.862107    -901.8527    1499.3489    9595.1561     2.195545    25.089641   0.12230773 
   55500   -949.61085    41.026551   -908.58429    1469.4223    3123.5119    2.1984269    22.778795   0.11925844 
   55600   -950.34517    42.150407   -908.19476    1509.6747   -8494.9917      2.16591    21.254296   0.11033017 
   55700   -946.48579    44.397931   -902.08785    1590.1729   -6205.4105     2.160878    20.024522   0.12069313 
   55800    -951.8474    44.533031   -907.31437    1595.0117    6901.7611    2.2096165    21.279824   0.11393872 
   55900   -952.00813    43.648543   -908.35959    1563.3325    9042.1354    2.2109328    22.704579   0.11765183 
   56000   -946.46682    45.722959   -900.74386    1637.6306   -8829.3278    2.1558174     21.72348   0.12580149 
   56100   -950.21872    42.329029    -907.8897    1516.0723   -8647.6469    2.1657558    21.200122   0.10751184 
   56200   -952.10898    44.763649   -907.34533    1603.2716    4715.3311     2.199773     21.86234   0.11384767 
   56300   -946.11044    45.828377   -900.28207    1641.4063    8049.7616    2.1963221    19.508427   0.12702866 
   56400   -949.30506    42.126794   -907.17826     1508.829   -2482.0493    2.1782624     23.51741   0.12286123 
   56500   -949.67243    41.323972   -908.34846    1480.0748   -7540.9313    2.1680512    20.320778   0.11752893 
   56600   -944.57419     43.12469    -901.4495      1544.57     2695.823    2.1827186    20.931202   0.12818281 
   56700   -953.25041    44.820563   -908.42985      1605.31     4557.469    2.2025221    19.693719   0.12622416 
   56800   -952.86731    43.922124   -908.94519    1573.1312   -3012.4391    2.1860789    20.450494    0.1228119 
   56900   -945.30536    42.544186   -902.76117    1523.7785   -3495.7747    2.1696208    22.865206   0.12435514 
   57000   -950.82618    41.978534   -908.84764    1503.5189    987.99481    2.1916833    22.112929    0.1118272 
   57100    -950.9114    41.822511   -909.08889    1497.9307    3281.3005    2.1991134    24.368649   0.11216557 
   57200   -945.23219    42.783723   -902.44847    1532.3578    907.40572    2.1772253    21.969811   0.11688846 
   57300   -950.16057    41.736426   -908.42415    1494.8474   -3022.7252     2.179972    22.055636   0.11054624 
   57400   -952.56028    43.594892   -908.96539    1561.4109    -640.1035    2.1909084    21.089057   0.11106338 
   57500   -949.50708    47.940213   -901.56687    1717.0446   -503.11296    2.1824309    20.522521   0.12368672 
   57600   -950.81871     42.82888   -907.98984    1533.9752   -785.47389    2.1877743    20.288017   0.11688462 
   57700   -949.30607    40.652667   -908.65341    1456.0311   -1523.7922    2.1821822     20.34115   0.12333649 
   57800   -947.99639    46.897533   -901.09885    1679.6995   -1368.3433    2.1712154    21.976972   0.10805006 
   57900     -951.341    43.317712   -908.02329    1551.4833    1284.5911    2.1921887    22.228787   0.10654864 
   58000   -950.45267     42.56552   -907.88715    1524.5426    2103.7663    2.1916717    20.000726   0.10442289 
   58100   -939.46392    38.688155   -900.77576    1385.6694    65.885931    2.1605996    19.044911   0.11576933 
   58200   -951.40901    42.615766   -908.79324    1526.3422   -2991.8146    2.1768805    20.752502  0.097300007 
   58300   -949.80865    42.955096   -906.85355    1538.4958    8282.4028    2.2051153    20.343106   0.10282892 
   58400   -945.83679    45.143409   -900.69338    1616.8732    6184.7518    2.1880159    21.437615   0.10735822 
   58500   -949.70083    42.055774   -907.64505    1506.2853   -9007.7242    2.1593466    20.652146   0.10119466 
   58600   -951.72465    43.416905   -908.30774    1555.0361   -8214.1761    2.1678042    20.707547   0.10537838 
   58700    -947.9061    46.811908   -901.09419    1676.6328     7905.126    2.1989624    20.227569   0.12133794 
   58800   -951.39533    43.634393   -907.76094    1562.8257      6129.81    2.2033807    19.353231   0.10463103 
   58900   -950.84899     41.10351   -909.74548    1472.1787    -7315.543    2.1670138    19.106528  0.088927342 
   59000   -946.25423    43.476652   -902.77758     1557.176   -5775.3563    2.1576421    21.032838   0.10751563 
   59100   -950.65086    43.255461    -907.3954    1549.2538    5957.2283    2.2027485    22.052186  0.097263577 
   59200   -952.25464    42.646942    -909.6077    1527.4588    6593.6835    2.2070004    20.164692   0.10639864 
   59300   -949.16338    46.917363   -902.24601    1680.4098    -7610.421    2.1611273    20.730973   0.10095669 
   59400   -950.04055    42.510927   -907.52962    1522.5872   -4380.9364    2.1690558    22.584696   0.10139473 
   59500   -955.52589    47.113734   -908.41216    1687.4431    2323.8838    2.1982509    21.162039  0.097355959 
   59600   -945.96701     45.40375   -900.56326    1626.1977    5775.5787    2.1871567    20.291602   0.11124915 
   59700   -952.07354    44.622763   -907.45078    1598.2255   -3986.0757    2.1804045      18.9943   0.11405327 
   59800   -952.40936    43.867266   -908.54209    1571.1664    -6754.643    2.1720789    19.617544   0.10404806 
   59900   -946.92886    46.023055    -900.9058    1648.3789    624.03636    2.1767263    22.290425   0.10900844 
   60000   -949.68972    41.966051   -907.72367    1503.0718    6594.1396    2.2004119     23.88409  0.099607483 
   60100   -948.33386    40.117136   -908.21673    1436.8503    2044.4812    2.1870493    19.496524   0.10614883 
   60200   -947.85189    46.180074   -901.67181    1654.0028   -6096.4016    2.1627211    22.978226   0.11344809 
   60300   -953.42938    44.362957   -909.06642    1588.9202   -2061.1015    2.1870965    21.338326    0.1080314 
   60400   -952.74977    44.593261    -908.1565    1597.1689    2591.3981    2.1984744    20.022733   0.10759325 
   60500   -945.26062    43.374737   -901.88588    1553.5258    3149.0713    2.1826936     21.97608   0.12074893 
   60600     -952.777    44.012703    -908.7643    1576.3754   -11579.863    2.1627987    22.880013   0.10648435 
   60700   -950.06508    41.322819   -908.74226    1480.0335   -5901.5807    2.1709417    22.781321   0.10432012 
   60800   -947.64138    46.547449   -901.09393    1667.1608    13915.057    2.2146743    24.230859   0.11701927 
   60900   -953.29144    46.943756   -906.34768    1681.3551    3775.1768     2.199446      21.1839    0.1045954 
   61000   -952.44895    41.984088   -910.46486    1503.7178   -12578.334    2.1577897    21.068526  0.090186641 
   61100    -944.5149    42.590996    -901.9239     1525.455   -7390.3283    2.1585074    20.518126   0.10563536 
   61200   -950.74898     46.37351   -904.37547     1660.931    9824.4352    2.2087451    20.008164    0.1098625 
   61300   -948.41136    40.015754    -908.3956    1433.2192    6734.0942    2.2021192    20.855477   0.11459016 
   61400   -946.31369    43.775507   -902.53818    1567.8799   -8562.6776    2.1561746    22.735597   0.11015696 
   61500   -950.16382    47.226532   -902.93728    1691.4831   -7443.7174    2.1603593    22.897766   0.09927808 
   61600   -952.53353    44.186548   -908.34698    1582.6019    6639.2711    2.2047484    20.562554   0.10114728 
   61700   -948.78003    45.382782   -903.39725    1625.4467    6669.8461    2.1999857    20.895942   0.11120969 
   61800   -947.85014    44.301058   -903.54909    1586.7032   -8637.2324    2.1591255    21.752558   0.10771833 
   61900   -953.95274     42.95756   -910.99518     1538.584   -7250.8573    2.1744839     20.45928   0.10240818 
   62000   -947.53011     43.17791    -904.3522    1546.4762    7116.8763    2.1951754    22.467534   0.10113597 
   62100   -948.50711    44.993222   -903.51389     1611.494    4911.0977    2.1958438    23.134837   0.11018964 
   62200   -952.74691    40.896429   -911.85048    1464.7618   -3882.1962    2.1832941    22.135457   0.10874101 
   62300   -946.07697    40.460496   -905.61648    1449.1482   -4876.1213     2.166912    21.855854   0.11964832 
   62400   -948.81649     45.43752   -903.37897    1627.4072    1871.1469    2.1864785    21.380525   0.11013771 
   62500   -954.57031    44.077457   -910.49286    1578.6947    4896.9974    2.2067318    19.273538  0.089314333 
   62600   -950.42581    45.835798   -904.59001    1641.6721   -2883.2565    2.1770948    18.791408   0.11356356 
   62700   -948.46079    44.881125   -903.57967    1607.4791   -4995.8922    2.1700173    22.412746   0.11275414 
   62800   -950.79859    41.631399   -909.16719    1491.0857    2846.2726    2.1923679    20.705491   0.10356591 
   62900    -949.5518    44.382674   -905.16913    1589.6264    4198.4882    2.1929027    20.838285   0.11266283 
   63000   -943.91794    41.891625   -902.02631    1500.4061    1150.7233    2.1728733    20.322464   0.11014324 
   63100   -952.69593    43.640799   -909.05513    1563.0552   -2705.6714    2.1808903    21.378868   0.10576369 
   63200   -945.55881    40.473738   -905.08507    1449.6225    3071.6107    2.1846705    21.820276   0.10763288 
   63300   -945.24515    44.253504   -900.99164         1585    780.21265    2.1769192    21.560159   0.12816483 
   63400   -953.71344    44.422656   -909.29078    1591.0585   -372.26958    2.1883134    21.801254   0.09965294 
   63500   -950.20551    44.867166   -905.33834    1606.9792   -341.71171     2.182136    24.290432   0.10008428 
   63600   -947.56935     46.26806   -901.30129    1657.1541   -1128.0103    2.1767128    23.635994   0.11262625 
   63700   -950.74872    40.516254   -910.23247    1451.1453    3519.4795    2.1970583    20.332009   0.10596475 
   63800   -948.76085    42.886245    -905.8746    1536.0298   -8.8875336    2.1830678    23.243648   0.11295863 
   63900   -944.79227    41.953215   -902.83905     1502.612   -4.8939395    2.1735798    20.673319   0.11680925 
   64000   -952.82034    41.385612   -911.43473    1482.2825     222.6361    2.1954819    21.598684   0.11204229 
   64100   -952.31502    46.414427   -905.90059    1662.3965   -536.47209    2.1881954    22.089501  0.096203757 
   64200   -951.50811    47.953611    -903.5545    1717.5245   -3531.2128    2.1780881    22.726708   0.11389213 
   64300   -952.83285    41.641923   -911.19092    1491.4627   -2930.8018    2.1840417    22.580838   0.10727326 
   64400   -948.10018    42.099514   -906.00067    1507.8519    599.39428    2.1843389    22.530796   0.11236776 
   64500   -947.80842     44.96809   -902.84033    1610.5939    5867.4014    2.1925256    20.221825   0.11919811 
   64600   -954.16011     44.50996   -909.65015    1594.1854   -2132.2943    2.1878864    21.864482  0.091715438 
   64700   -951.11268    45.988093   -905.12459    1647.1267   -7604.5109    2.1653904    22.315257   0.10214025 
   64800   -945.07593     42.79562   -902.28031    1532.7839    1652.7975    2.1783248    21.652217   0.10529018 
   64900    -950.6799     42.72342   -907.95648     1530.198    6499.6051    2.2035957    20.807084  0.093927169 
   65000   -952.12119    45.299376   -906.82181    1622.4594   -835.30473    2.1866626    21.361456   0.11436155 
   65100    -948.3159    47.132185   -901.18371    1688.1039   -12097.374    2.1478429    19.973991   0.11798121 
   65200    -952.4473    43.218461   -909.22884    1547.9285   -2838.7592    2.1849949    19.458492   0.11024904 
   65300   -948.28179    42.368843   -905.91295    1517.4983     13854.31    2.2111321    22.245665    0.1142128 
   65400   -946.97308    46.183717   -900.78936    1654.1332    1645.6374    2.1790573    20.187324   0.10639791 
   65500   -951.48854    42.931505   -908.55703    1537.6508   -12190.685     2.158531    22.238512   0.10836022 
   65600   -954.57535    46.577162   -907.99819     1668.225   -7045.7634    2.1737179    20.888835   0.10149507 
   65700   -946.49309     45.24043   -901.25266    1620.3481    9623.0087     2.197977    23.776062   0.10522065 
   65800   -951.78938    43.549161   -908.24022     1559.773    2565.3452    2.1947056    21.469784   0.10436783 
   65900   -952.48352    42.983218    -909.5003     1539.503   -8319.7988    2.1709651    21.850236   0.10468923 
   66000   -945.57941    42.294449   -903.28496    1514.8338   -4306.6718    2.1699311    20.938703   0.11792794 
   66100   -949.74133    41.565912   -908.17542    1488.7402    3930.9565    2.1941345    24.325517   0.11365944 
   66200   -954.93245    44.776703   -910.15574    1603.7391    1427.3033    2.1956653    24.186955  0.097162344 
   66300   -946.74056    44.077142   -902.66342    1578.6834   -4181.7121    2.1679025    22.323009   0.12799285 
   66400   -951.25656    43.452219   -907.80434    1556.3009   -3546.4325    2.1787555    22.106708   0.10711941 
   66500    -954.1587    44.912301    -909.2464    1608.5957    1476.7209    2.1943982    21.335308  0.098894239 
   66600   -947.17728    46.004344   -901.17294    1647.7088    1047.0544    2.1761593    23.332817   0.10506237 
   66700   -948.57765    41.236932   -907.34071    1476.9574     373.5167    2.1810214    21.735051   0.10183565 
   66800   -950.19344    41.547381   -908.64605    1488.0765   -750.85384    2.1854648    21.299057   0.10629857 
   66900   -944.58688    44.222734   -900.36415     1583.898    -788.2078    2.1734569    20.333642   0.11392967 
   67000   -949.19183    42.047937   -907.14389    1506.0046    3674.4506     2.192861    18.681827   0.10578717 
   67100   -948.68949    40.862148   -907.82734    1463.5339    1715.2268    2.1864115    20.522727   0.10371882 
   67200   -947.67024     47.28934    -900.3809    1693.7327   -7768.8789    2.1604847    21.840784   0.12011385 
   67300   -953.31361    45.127553   -908.18605    1616.3053   -1517.3857    2.1848981    20.789134  0.094468032 
   67400   -951.24767     43.88386   -907.36381    1571.7607    4743.5614    2.2005565    22.606107   0.10561822 
   67500   -946.79195    44.882823   -901.90913      1607.54     1327.816    2.1815303    21.169097   0.10140639 
   67600   -952.43009    45.404195   -907.02589    1626.2136   -9504.2661    2.1651474    20.092798  0.096066856 
   67700   -948.94019    39.665458   -909.27473    1420.6729   -2580.0922    2.1775895    21.070814   0.09810702 
   67800   -945.46615    42.729402   -902.73674    1530.4122    9241.9622    2.1962234    22.420444   0.10034065 
   67900    -949.6037    42.206369   -907.39733    1511.6791    6090.0438    2.1945922    20.323589   0.10296401 
   68000   -952.07321    40.741405   -911.33181    1459.2094    -6499.778    2.1713245    19.900325  0.084836743 
   68100   -947.21455     42.90929   -904.30526    1536.8552   -5575.4778    2.1655723    20.967279   0.10185455 
   68200   -950.67826    44.897365    -905.7809    1608.0608    5571.9695     2.198351    18.843154   0.10499667 
   68300   -950.16385    38.831739   -911.33211    1390.8121    9624.6079    2.2085214    21.437774   0.10321698 
   68400   -946.72788    44.178363   -902.54952    1582.3088   -8084.9748    2.1538075    19.678623   0.10285046 
   68500   -949.98035     44.06137   -905.91898    1578.1185   -6736.2292    2.1650554    18.731646    0.1031928 
   68600   -950.72009     42.41484   -908.30525    1519.1458    8957.7438    2.2083111    21.866329   0.11277572 
   68700   -945.88059    46.134147   -899.74644    1652.3578    6588.4997    2.1878109    19.484189   0.11129557 
   68800    -947.6149    43.561063   -904.05384    1560.1993   -7292.1407     2.162614    22.882296   0.11135982 
   68900   -951.08741    42.185363   -908.90204    1510.9267   -6575.0228    2.1677491    23.042287  0.095987308 
   69000   -948.46018    45.733911   -902.72627    1638.0228    5776.1878     2.191814    21.939202   0.10251564 
   69100   -947.94656    45.594425   -902.35213     1633.027    4379.2974    2.1858964    21.822119   0.10769364 
   69200   -950.50229    40.953181   -909.54911    1466.7944   -2557.9674    2.1816585     23.19075   0.10261495 
   69300   -947.29928    42.466055   -904.83322    1520.9801   -20.793211    2.1761723    19.426259   0.10739042 
   69400   -947.55214    45.394893   -902.15725    1625.8804    131.55076    2.1744081    25.351528   0.10386704 
   69500   -952.48845    41.426545   -911.06191    1483.7486    2875.3563    2.1974417    20.770642   0.10538794 
   69600   -948.41863    42.541409   -905.87722     1523.679   -1742.5199    2.1760879    20.464125   0.12329832 
   69700   -946.61863    43.170417   -903.44821    1546.2078   -930.83924     2.171289    21.641459   0.11715016 
   69800   -949.59948    37.661623   -911.93786    1348.9027    4754.7655    2.1980038    21.752968   0.11225697 
   69900   -949.59618    43.397602   -906.19858    1554.3447      905.766    2.1865653    22.255379   0.10465884 
   70000   -947.54583    43.415412   -904.13042    1554.9826   -1760.1283    2.1725891    22.793356   0.10151153 
   70100   -946.98038    36.281578    -910.6988    1299.4745    1502.6734    2.1837332    21.054383   0.10483511 
   70200   -950.51143    42.675173   -907.83626      1528.47    1670.1394    2.1930935      20.2767   0.10661666 
   70300   -948.96274    45.661723   -903.30101    1635.4373     2148.684    2.1908791    23.684152    0.1062367 
   70400    -949.7015    40.856068   -908.84544    1463.3162   -3515.6328     2.177236    22.420036     0.113518 
   70500   -948.77379    41.315715   -907.45807    1479.7791   -5453.6842    2.1686096     23.73248   0.11658782 
   70600   -946.01895     44.79753   -901.22142    1604.4851    3426.6064    2.1834503    20.055614   0.12299833 
   70700   -951.61687    45.024286   -906.59259    1612.6066    5724.0504    2.2015765    21.339953   0.11834816 
   70800   -952.12823    43.286111   -908.84212    1550.3515   -5728.6537    2.1777722    21.324675    0.1080356 
   70900   -946.26045    46.417834   -899.84261    1662.5185   -11638.203    2.1444887    21.828294   0.10587747 
[...]
  186800   -948.97042    43.641297   -905.32912     1563.073    5736.3771    2.1991782    79.058628   0.11447487 
  186900   -951.02632     39.93253   -911.09379    1430.2384    223.80553    2.1910271    67.687437    0.1189966 
  187000   -946.49891     43.02702   -903.47189    1541.0718   -8635.0706    2.1587152    70.117279   0.11938939 
  187100   -950.31068    46.713025   -903.59766    1673.0911    4069.1404    2.1942098    67.695298   0.12162116 
  187200   -949.99692    43.499478   -906.49744    1557.9936    12828.703    2.2159935    65.427189   0.12332485 
  187300   -949.35495    39.625758   -909.72919     1419.251   -4910.6648    2.1727466    69.012057    0.1272031 
  187400    -943.8029    44.266513   -899.53638    1585.4659   -14131.127    2.1337788     64.71967   0.15004015 
  187500   -946.23695    41.647487   -904.58946     1491.662    11821.096     2.205452    69.250514   0.12582766 
  187600   -949.63594    42.746392   -906.88954    1531.0208    9736.9763    2.2107606    70.731466   0.13171366 
  187700   -948.32178    44.232725   -904.08906    1584.2558   -6476.8597    2.1682106     73.19985   0.11792801 
  187800   -946.39291    46.824014    -899.5689    1677.0664   -10802.156    2.1505108    68.453229   0.11459749 
  187900   -952.42055    44.196819   -908.22373    1582.9698    3936.9083    2.2000409    71.201458   0.10945823 
  188000   -948.05739    42.667485    -905.3899    1528.1946    8983.7647    2.2040832     64.55321   0.12232072 
  188100   -944.09262    42.496956   -901.59566    1522.0869   -2786.0364    2.1672426    63.231828   0.13489465 
  188200   -951.09676    40.586647   -910.51011    1453.6665   -5291.4597     2.173307    65.900712   0.10910398 
  188300   -949.83967    41.497517   -908.34215    1486.2906   -277.93811    2.1848742    63.557671   0.11143368 
  188400   -950.13862      46.2882   -903.85041    1657.8755    6066.6478    2.1944634    64.995012   0.11181186 
  188500    -953.4461     45.60546   -907.84064    1633.4222   -2110.6966     2.184402    72.105495    0.1109423 
  188600   -950.32394    38.042285   -912.28165    1362.5367   -3569.4535    2.1791664    69.434912   0.12810325 
  188700   -948.72269     43.31456   -905.40813    1551.3705   -928.16325    2.1802506    71.158045   0.10880502 
  188800   -952.67468    47.801234   -904.87344    1712.0669    4240.1975    2.1950642    71.852355   0.10590493 
  188900   -950.80473    38.331581   -912.47315    1372.8982    3712.6943    2.1983883    65.452252   0.11721155 
  189000   -946.96312     41.28582    -905.6773    1478.7083   -9944.9585    2.1570613    63.026946   0.11388606 
  189100   -949.98854    45.319426   -904.66912    1623.1775   -1562.7762    2.1808262     64.24653   0.12065216 
  189200   -949.14339    42.783201   -906.36019    1532.3391    16937.028    2.2240441     64.44297   0.11979084 
  189300   -953.52992    41.071631   -912.45829    1471.0369   -329.20403    2.1938144    67.105107   0.11117125 
  189400   -948.32272    46.223118   -902.09961    1655.5445   -18053.763    2.1307858    66.750622   0.12240354 
  189500   -949.85573    45.385609   -904.47012    1625.5479    1162.4968    2.1876239    69.177451   0.11458132 
  189600   -948.11391    41.712789   -906.40112    1494.0008    11638.968    2.2141789    73.868195   0.11871323 
  189700   -948.94927      40.6325   -908.31677    1455.3088    906.05453    2.1861549    69.430312    0.1095413 
  189800   -944.73998    47.048128   -897.69185    1685.0933   -9185.3575    2.1509262    65.481638   0.12189413 
  189900   -950.73515    47.914255    -902.8209    1716.1148     964.8723    2.1910707    64.705374   0.11276444 
  190000   -948.32864    42.310183   -906.01845    1515.3973    6843.1356    2.2000311    65.341769   0.11542058 
  190100   -951.54663    43.372106   -908.17453    1553.4315   -3769.2075    2.1776672    66.871754   0.10147308 
  190200   -947.13834    48.483931    -898.6544    1736.5186   -6534.7056    2.1590585    68.547831  0.097536394 
  190300   -947.78054    44.088125   -903.69242    1579.0768    5751.2305     2.196732     70.94854   0.11717974 
  190400   -951.24642    44.399763   -906.84665    1590.2385    2920.4124    2.1956241    76.548341   0.11270932 
  190500   -950.28877     44.36621   -905.92256    1589.0368   -6310.7561      2.17109    72.124176   0.10848108 
  190600   -943.57962    46.011154   -897.56847    1647.9527   -6287.6198    2.1554905     67.35904   0.12043755 
  190700   -946.95942    40.239481   -906.71994    1441.2323    12115.118    2.2091299    66.907545   0.10693401 
  190800   -947.98749    41.588487   -906.39901    1489.5488    7281.6443    2.2025418    65.664725   0.12316229 
  190900   -949.76115    46.112409   -903.64874    1651.5793    -10075.85    2.1595047    62.403375   0.12425967 
  191000   -945.54273    48.838176   -896.70456    1749.2064   -9679.1449    2.1492027    67.445315   0.10781695 
  191100   -952.90598    45.479125   -907.42686    1628.8973    12592.562    2.2216663    67.385426   0.10163041 
  191200   -948.38883    42.168116   -906.22071     1510.309    6540.7949    2.1993445    73.839099   0.10915742 
  191300   -945.32878    39.812461   -905.51632     1425.938   -8440.8887    2.1561762    71.804748   0.10218203 
  191400   -945.20227    46.678077    -898.5242    1671.8394   -2918.5503    2.1662877    70.202234     0.103805 
  191500   -947.27749    46.432985   -900.84451    1663.0611    2226.4101    2.1834113      74.9528   0.10143614 
  191600   -947.63739    41.797374   -905.84002    1497.0304    119.83956    2.1838618    67.551184   0.10675311 
  191700   -951.29353    44.832473   -906.46106    1605.7366   -2582.7432    2.1815361    66.533717   0.11655603 
  191800   -948.68085    44.026729   -904.65412    1576.8778   -92.105299    2.1806986      68.8777   0.11508618 
  191900   -942.89273    46.474913   -896.41782    1664.5628   -2747.2685    2.1657581     68.22015   0.10452696 
  192000   -946.61884    41.657747    -904.9611    1492.0294    3711.3778    2.1891203    68.111494   0.11458651 
  192100   -950.23492    43.592545   -906.64238    1561.3269    1610.4038    2.1896642    74.875273   0.10835218 
  192200    -947.7401     42.94638   -904.79372    1538.1836   -1407.1552    2.1772965    76.959656   0.11102592 
  192300   -942.86262    44.958166   -897.90445    1610.2385   -4474.1812    2.1593917    72.520087    0.1281621 
  192400   -951.56141    45.127853   -906.43356     1616.316    3484.7174    2.1956407    67.720866    0.1041731 
  192500   -950.54739    44.170205   -906.37719    1582.0166    4244.0945    2.1967364    69.896404   0.11982023 
  192600   -946.65381    44.835072   -901.81874    1605.8297   -5650.9532     2.164756    67.184674   0.12808214 
  192700   -946.45619    47.679038   -898.77715    1707.6902   -9170.7393    2.1512946    64.805145   0.11934745 
  192800    -951.5195    44.753021   -906.76648    1602.8909     5924.805    2.1999895     69.12148   0.10825538 
  192900   -948.17857      42.7101   -905.46847    1529.7209    11925.507    2.2120347    68.882084   0.12142163 
  193000   -947.46202    43.430268   -904.03175    1555.5147   -5323.1771    2.1658995    69.600506   0.12462211 
  193100   -941.27124    47.157701   -894.11354    1689.0178   -12049.461    2.1353367    70.346401   0.11886295 
  193200   -947.08524    42.550217   -904.53503    1523.9945    9893.7351    2.2050642    69.345547   0.11740195 
  193300   -951.41915    45.829348    -905.5898     1641.441    5307.3497    2.1988088    68.551044   0.10646219 
  193400    -949.2257    42.056675   -907.16902    1506.3176   -5796.3807     2.171683    69.065849   0.12412534 
  193500   -947.28121      45.6972   -901.58401     1636.708   -3469.5056    2.1716658    64.795387   0.12932696 
  193600   -947.01604    46.918955   -900.09708    1680.4668    2698.8543    2.1818744    67.743379   0.11468946 
  193700   -949.31383    43.455491   -905.85834    1556.4181    2391.7258    2.1886368    64.524257   0.12048989 
  193800   -950.95335    43.955365   -906.99798    1574.3218     27.18334    2.1839149    73.011715   0.11173372 
  193900   -945.44759    45.727594   -899.71999    1637.7966   -939.48644    2.1739966      75.0926   0.13020037 
  194000   -950.36131     48.01058   -902.35073    1719.5649   -1502.0214    2.1769925     69.53558   0.10909979 
  194100   -950.92755    43.795275   -907.13228    1568.5879   -2595.2271    2.1802492    67.322376   0.11292699 
  194200   -951.96142     46.30533   -905.65609     1658.489     -459.165    2.1842263      67.9578    0.1164749 
  194300    -948.4407    51.049738   -897.39097    1828.4165   -2658.8714     2.173711    66.846633   0.12287027 
  194400   -947.39185    41.624206   -905.76764    1490.8281    3166.0924    2.1868382    64.857545   0.11259951 
  194500   -947.71919    40.693466   -907.02572    1457.4924   -3470.3521    2.1703096    64.869809   0.12317516 
  194600   -943.26815    39.912357   -903.35579    1429.5159    704.01401    2.1750538    66.527298   0.12191801 
  194700   -944.63782    48.181192   -896.45663    1725.6756    8460.2157    2.1905705     70.87035   0.12109581 
  194800    -948.0378    41.490802     -906.547    1486.0501    5422.7454    2.1964484    66.962064   0.12773033 
  194900   -947.81588    41.134289   -906.68159    1473.2811   -11888.775    2.1531106    71.686948    0.1197795 
  195000   -946.45851    41.570661   -904.88785    1488.9103   -4176.8758    2.1673385    69.908756   0.11795088 
  195100   -950.90878    38.738043   -912.17074    1387.4562    11115.816     2.219727    68.451037   0.11076303 
  195200   -952.94649    42.402321   -910.54416    1518.6974    4105.8071    2.2017171     64.68959   0.10657593 
  195300   -945.73169    39.804632   -905.92706    1425.6576   -4891.3073    2.1642261     65.06124   0.11829142 
  195400   -948.40118    42.938162   -905.46302    1537.8892   -4580.2014    2.1695006    68.163821   0.11129795 
  195500   -954.35564    41.013812   -913.34183     1468.966     5244.176    2.2089684    67.135581    0.1090996 
  195600   -951.36444    42.907077   -908.45736    1536.7759    4214.4215    2.1985464    70.184421   0.10502984 
  195700    -947.6852    42.832129   -904.85307    1534.0915   -2832.3902    2.1720583    67.026405   0.12373771 
  195800   -948.70462    44.891219    -903.8134    1607.8407   -4994.8901     2.169629    70.259268   0.11361146 
  195900   -954.85994    42.578385   -912.28156    1525.0034     1319.501    2.2018254    63.598899   0.12509602 
  196000   -950.39872    42.970327    -907.4284    1539.0413    210.90878    2.1869215    71.251286   0.10968847 
  196100   -945.87584    40.971274   -904.90456    1467.4425   -2434.2925    2.1741394    63.744389   0.12174623 
  196200   -946.87748    38.644625   -908.23285    1384.1103    662.52116    2.1806431    64.723082   0.10955551 
  196300   -952.67415    39.416331   -913.25782      1411.75     7091.472    2.2096036    65.722005   0.11033645 
  196400   -948.44491    44.310795   -904.13412     1587.052    2109.6338    2.1855324    69.836085   0.11174697 
  196500   -947.89021    41.901087   -905.98913     1500.745   -9707.7677    2.1553431    65.564974   0.10415256 
  196600   -949.42259    41.217989    -908.2046    1476.2789   -3381.2071    2.1803113    70.253237   0.10355804 
  196700   -955.50083    40.447871   -915.05296     1448.696    12092.853    2.2320524    71.023845  0.099147566 
  196800    -949.7268     43.18567   -906.54113    1546.7541    1559.8606    2.1907179    68.479792  0.099475446 
  196900    -948.9729    42.957191   -906.01571    1538.5708   -7885.9953    2.1629127    73.648318   0.10837554 
  197000   -948.81666    42.627095   -906.18957     1526.748   -1845.8985    2.1792687    70.958551   0.10490498 
  197100   -948.54696     42.13966    -906.4073    1509.2898    7957.7811    2.2038729    66.425362   0.10974512 
  197200   -941.74325    45.726632   -896.01662    1637.7621   -965.79221    2.1680102    69.978938   0.12082848 
  197300    -944.5966    41.913938   -902.68266    1501.2053   -2889.5446     2.173113    68.760927   0.12497903 
  197400   -947.13015    40.863777   -906.26637    1463.5923     2221.462    2.1863507    65.709962   0.11814551 
  197500   -949.21202     42.14413   -907.06789    1509.4499    6503.4157    2.1968077    68.163294   0.10212519 
  197600   -944.09459    46.562069   -897.53252    1667.6844   -1198.1942    2.1687343    65.092861   0.11820367 
  197700   -948.96749     45.14264   -903.82485    1616.8456   -2540.4861    2.1776764    70.031283   0.10798007 
  197800   -950.42372    43.232105   -907.19162    1548.4172   -1691.6973    2.1841846    60.297615   0.11309248 
  197900   -948.37196    43.774037   -904.59792    1567.8272    3996.3633    2.1940267    67.512399   0.10484785 
  198000   -941.38913    44.202581   -897.18655    1583.1761    -1121.714    2.1692704    65.616768   0.12361355 
  198100   -948.46804    41.880877   -906.58717    1500.0211   -1709.2359    2.1784342    67.065742    0.1187107 
  198200   -951.22402    44.596489   -906.62753    1597.2845   -1675.5396    2.1839361    69.826037    0.1182492 
  198300   -948.70213    46.054821   -902.64731    1649.5167    3034.9414    2.1906279    67.548892   0.12306239 
  198400    -943.1738    45.974159   -897.19964    1646.6277    256.79144    2.1696593    73.432677   0.11870601 
  198500   -948.29903    40.712476   -907.58656    1458.1733   -540.69798    2.1858329    72.559999   0.10130279 
  198600   -951.70775    45.088473   -906.61928    1614.9056    248.40157    2.1881788    67.605819   0.10188658 
  198700   -949.04164    44.119896   -904.92174    1580.2147    790.44904    2.1842138    71.280265     0.105007 
  198800   -945.07985    44.634265   -900.44558    1598.6375   -1073.7208    2.1732307    71.766802    0.1018487 
  198900   -945.06983    49.238783   -895.83104    1763.5546   -5019.9954    2.1586072    69.549036   0.12805557 
  199000   -949.07847    44.572924   -904.50554    1596.4405    2929.5082    2.1896588    70.410699   0.11332905 
  199100   -949.45562    43.874496   -905.58113    1571.4253    7438.9977    2.2046538    68.245962   0.12411559 
  199200   -949.74657    41.272829   -908.47374    1478.2431   -3061.2981    2.1802891    69.122705   0.11112875 
  199300    -946.6525    42.831955   -903.82055    1534.0853   -6439.0471     2.162917    68.096596   0.10566863 
  199400   -948.24328    47.553981    -900.6893    1703.2111    2643.3719    2.1867236    70.456196   0.11333757 
  199500   -949.26032    44.376805   -904.88351    1589.4162    7218.1428    2.2004907    71.965664   0.10389841 
  199600   -948.75345    40.814886   -907.93856    1461.8412   -2667.0604    2.1781148    72.633311   0.10376236 
  199700   -946.05708    45.183333   -900.87375    1618.3031    -5461.496    2.1579013    66.918202   0.10651359 
  199800   -949.30924    48.012639    -901.2966    1719.6386     3362.352    2.1890469    69.538373   0.10965077 
  199900   -950.80517    44.304609   -906.50056    1586.8304    5792.3917    2.2020463    63.664913   0.11294417 
  200000   -951.02288    44.215344   -906.80753    1583.6333    -6134.178    2.1718112    71.333043   0.11200427 
  200100   -945.84339    47.150452   -898.69294    1688.7582    -10640.26    2.1442365    70.833195   0.11768973 
  200200    -951.1445    44.584002   -906.56049    1596.8373     8281.041    2.2090026    71.862943   0.10792142 
  200300    -952.3232    45.459648   -906.86355    1628.1997    6897.1222    2.2063501    67.002969    0.1035552 
  200400   -948.99071    43.572625   -905.41808    1560.6134   -7608.3388    2.1611124    66.253037   0.10724465 
  200500   -945.82294    45.581307   -900.24163    1632.5571   -11089.215    2.1518912    67.288769   0.11454732 
  200600   -950.71405    40.527803   -910.18624    1451.5589    8995.9825    2.2149416     69.22956   0.11580645 
  200700   -949.60111    42.057471   -907.54364    1506.3461    6007.2071    2.2006496    68.402775   0.11196749 
  200800   -947.97298      43.3646   -904.60838    1553.1627   -7196.1917    2.1635651     68.52879   0.11033384 
  200900   -948.69046    45.976441   -902.71402    1646.7094   -5772.2075    2.1683379    65.744948   0.12815974 
  201000   -950.87234    39.409175   -911.46316    1411.4937    7975.9976    2.2114538    66.019916   0.11754221 
  201100   -949.78186    44.043602   -905.73826    1577.4821    1391.6204    2.1875835    68.130908   0.12398384 
  201200   -950.60165    46.182581   -904.41907    1654.0926   -5921.6896    2.1695184    73.678248   0.11873318 
  201300   -955.68862     43.15504   -912.53358     1545.657    -4312.984    2.1890037     69.51384    0.1090117 
  201400   -949.37889    41.745291    -907.6336    1495.1649    2889.7319    2.1908449    71.963743   0.10099615 
  201500   -946.68961    42.526471   -904.16314     1523.144    1638.2556    2.1856761    70.743997   0.11348347 
  201600   -950.00066    40.287322   -909.71334    1442.9458   -1486.7765    2.1829429    71.659987   0.11405523 
  201700    -952.4511    42.983041   -909.46805    1539.4966   -2745.6764    2.1855198    67.086849   0.11048861 
  201800   -947.62585    44.783308   -902.84255    1603.9757    1132.3662    2.1824686    64.467071   0.12700908 
  201900    -950.4516    43.403099    -907.0485    1554.5416     251.0592    2.1845941    71.309094   0.10192278 
  202000   -950.64241    40.655158   -909.98725    1456.1203   -1918.0946    2.1827541    68.971913   0.10565841 
  202100   -944.40861    43.810127   -900.59848    1569.1199   -1983.4013    2.1706844    67.279035   0.12943097 
  202200   -952.79214    47.643712   -905.14842     1706.425     4559.744     2.201546    72.938199   0.10448659 
  202300   -952.06774    44.164891   -907.90284    1581.8262    3788.1598    2.1970734    71.071019   0.12202005 
  202400   -944.47763    44.116258   -900.36137    1580.0844   -8121.5971    2.1506463    71.115376   0.12909596 
  202500   -945.31231    42.061118    -903.2512    1506.4767   -3463.1355    2.1692914    69.800159   0.12991483 
  202600   -952.33114    45.268689   -907.06245    1621.3603    7158.6806     2.207099    68.150072   0.11358295 
  202700   -947.89432    42.707922    -905.1864    1529.6429    6751.3198    2.1993945    69.962879   0.11813583 
  202800   -943.54738    44.615062   -898.93232    1597.9497   -9495.2764     2.149487    66.769382   0.13401925 
  202900   -951.28072    42.472672   -908.80805    1521.2171   -3263.8047    2.1810934    66.318771   0.11471938 
  203000   -951.56287    45.036731   -906.52614    1613.0524    7498.9571    2.2058873    68.929441   0.11663329 
  203100   -946.35287     43.09481   -903.25806    1543.4998    4418.3847    2.1907924    70.060679   0.11897537 
  203200    -947.0825    43.743418   -903.33909    1566.7306   -9780.2959    2.1574981    70.966579   0.11919919 
Loop time of 141.8 on 1 procs for 200000 steps with 217 atoms

Performance: 365.586 ns/day, 0.066 hours/ns, 1410.442 timesteps/s
100.0% CPU use with 1 MPI tasks x no OpenMP threads

MPI task timing breakdown:
Section |  min time  |  avg time  |  max time  |%varavg| %total
---------------------------------------------------------------
Pair    | 137.86     | 137.86     | 137.86     |   0.0 | 97.22
Neigh   | 0.84278    | 0.84278    | 0.84278    |   0.0 |  0.59
Comm    | 0.87195    | 0.87195    | 0.87195    |   0.0 |  0.61
Output  | 0.068686   | 0.068686   | 0.068686   |   0.0 |  0.05
Modify  | 1.8466     | 1.8466     | 1.8466     |   0.0 |  1.30
Other   |            | 0.3049     |            |       |  0.22

Nlocal:    217 ave 217 max 217 min
Histogram: 1 0 0 0 0 0 0 0 0 0
Nghost:    947 ave 947 max 947 min
Histogram: 1 0 0 0 0 0 0 0 0 0
Neighs:    4138 ave 4138 max 4138 min
Histogram: 1 0 0 0 0 0 0 0 0 0
FullNghs:  8276 ave 8276 max 8276 min
Histogram: 1 0 0 0 0 0 0 0 0 0

Total # of neighbors = 8276
Ave neighs/atom = 38.1382
Neighbor list builds = 1424
Dangerous builds = 2
Total wall time: 0:02:24
