LAMMPS (3 Mar 2020)
Reading data file ...
  orthogonal box = (0 0 0) to (17.469 17.469 17.469)
  1 by 1 by 1 MPI processor grid
  reading atoms ...
  217 atoms
  read_data CPU = 0.000935159 secs
Reading potential file library.meam with DATE: 2012-06-29
Reading potential file LiSi.meam with DATE: 2020-11-07
1 atoms in group Li
Neighbor list info ...
  update every 1 steps, delay 10 steps, check yes
  max neighbors/atom: 2000, page size: 100000
  master list distance cutoff = 6
  ghost atom cutoff = 6
  binsize = 3, bins = 6 6 6
  2 neighbor lists, perpetual/occasional/extra = 2 0 0
  (1) pair meam/c, perpetual
      attributes: full, newton on
      pair build: full/bin/atomonly
      stencil: full/bin/3d
      bin: standard
  (2) pair meam/c, perpetual, half/full from (1)
      attributes: half, newton on
      pair build: halffull/newton
      stencil: none
      bin: none
Setting up Verlet run ...
  Unit style    : metal
  Current step  : 0
  Time step     : 0.0039238
Per MPI rank memory allocation (min/avg/max) = 9.27 | 9.27 | 9.27 Mbytes
Step PotEng KinEng TotEng Temp Press Density c_msdli[4] 
       0   -951.06911    50.256344   -900.81276         1800    -114182.3    1.8918427            0 
     100   -950.94739    36.602653   -914.34474    1310.9743    -26598.35    2.1186931   0.15580542 
     200   -947.14052    37.727108   -909.41341    1351.2482   -9831.5488    2.1521485   0.14744718 
     300   -949.69874    44.978106   -904.72064    1610.9526    3205.9898     2.186532   0.13792117 
     400   -946.85753     47.24133    -899.6162    1692.0131    15568.814    2.2114911    0.4341946 
     500   -946.18078     51.67087   -894.50991    1850.6632    17748.305    2.2155102   0.29043312 
     600   -940.15888    50.040334   -890.11855    1792.2633    19894.134    2.2035803   0.41537574 
     700    -939.0791    51.447576   -887.63153    1842.6656     9489.132    2.1802968   0.17615988 
     800   -940.83427    52.011435   -888.82283     1862.861   -3548.9237    2.1507958   0.22777122 
     900   -944.48916    46.699815   -897.78935     1672.618   -8553.1913    2.1467178   0.15581385 
    1000   -937.65611    47.339184   -890.31693    1695.5179   -12949.812    2.1200119   0.27684595 
    1100   -937.19081    49.453544   -887.73726    1771.2466   -14457.353    2.1144622   0.15413266 
    1200   -938.28555    45.927876   -892.35767      1644.97   -8774.1902    2.1308718   0.32511997 
    1300   -947.46222    50.707275   -896.75495    1816.1507   -5761.1141    2.1563518    0.2776685 
    1400   -939.37395    51.722244    -887.6517    1852.5032    3321.3598     2.163756   0.10696656 
    1500   -941.58434    52.848993   -888.73535    1892.8593    9065.4274    2.1836887   0.25910265 
    1600   -943.29223    48.542634    -894.7496    1738.6211    12682.706    2.1982688   0.22899679 
    1700   -945.29652    51.860856   -893.43566    1857.4678    10066.834    2.1944405   0.48284882 
    1800   -941.33035    54.499868   -886.83048    1951.9876    4774.4258    2.1667396   0.66892721 
    1900   -939.90961    49.742351   -890.16726    1781.5906    -2457.974    2.1522992   0.36509334 
    2000   -943.43549    49.912506   -893.52299     1787.685   -8282.7098    2.1413529   0.17254693 
    2100   -943.91745    41.669906   -902.24754    1492.4649   -9709.8151    2.1455971   0.14867938 
    2200   -939.64369     46.83473   -892.80896    1677.4502   -14159.057    2.1258025   0.12592916 
    2300   -936.44044    46.268515   -890.17193    1657.1704   -6341.2411    2.1352334   0.19144421 
    2400   -937.62457    48.963424   -888.66114    1753.6923   -2547.2451    2.1479397   0.42462022 
    2500   -933.68031    48.371451   -885.30886    1732.4899    10467.888    2.1700769   0.12204828 
    2600   -932.33424    56.018126   -876.31611    2006.3661    9559.4819    2.1645492   0.26994926 
    2700   -941.71665    55.756034   -885.96062    1996.9789    7452.0115    2.1794071   0.27699862 
    2800   -939.54616    50.477585   -889.06858     1807.924     6301.447    2.1761126   0.25701485 
    2900   -944.31854    52.396084   -891.92246    1876.6377    333.96291    2.1683663   0.22328607 
    3000   -945.90001    48.160833   -897.73918    1724.9464   -4878.1073    2.1605856   0.20108113 
    3100   -941.99474    42.277633   -899.71711    1514.2315   -6401.7941    2.1504322   0.11120607 
    3200   -939.08457    46.576672    -892.5079    1668.2075   -7769.7413     2.138173   0.26258809 
    3300   -939.44127    50.064431   -889.37684    1793.1264   -6846.9746    2.1424454   0.11466907 
    3400   -940.99882    53.862984   -887.13584    1929.1767   -4628.1859    2.1522173   0.27189609 
    3500   -944.56885    46.793919   -897.77494    1675.9885    3226.1761    2.1816323   0.12268319 
    3600   -943.71865    50.450484   -893.26817    1806.9534    3977.0749    2.1793111   0.18528859 
    3700   -936.79069    48.963823   -887.82687    1753.7066     7827.873    2.1728505   0.12615142 
    3800   -942.82904    53.625209   -889.20383    1920.6605    1673.8671     2.169449   0.15511329 
    3823   -939.89017    48.839067    -891.0511    1749.2383     6053.394    2.1742616   0.75178257 
Loop time of 2.69095 on 1 procs for 3823 steps with 217 atoms

Performance: 481.636 ns/day, 0.050 hours/ns, 1420.688 timesteps/s
100.2% CPU use with 1 MPI tasks x no OpenMP threads

MPI task timing breakdown:
Section |  min time  |  avg time  |  max time  |%varavg| %total
---------------------------------------------------------------
Pair    | 2.5507     | 2.5507     | 2.5507     |   0.0 | 94.79
Neigh   | 0.080381   | 0.080381   | 0.080381   |   0.0 |  2.99
Comm    | 0.01798    | 0.01798    | 0.01798    |   0.0 |  0.67
Output  | 0.0010675  | 0.0010675  | 0.0010675  |   0.0 |  0.04
Modify  | 0.035239   | 0.035239   | 0.035239   |   0.0 |  1.31
Other   |            | 0.0056     |            |       |  0.21

Nlocal:    217 ave 217 max 217 min
Histogram: 1 0 0 0 0 0 0 0 0 0
Nghost:    953 ave 953 max 953 min
Histogram: 1 0 0 0 0 0 0 0 0 0
Neighs:    4195 ave 4195 max 4195 min
Histogram: 1 0 0 0 0 0 0 0 0 0
FullNghs:  8390 ave 8390 max 8390 min
Histogram: 1 0 0 0 0 0 0 0 0 0

Total # of neighbors = 8390
Ave neighs/atom = 38.6636
Neighbor list builds = 137
Dangerous builds = 4
Total wall time: 0:00:02
