LAMMPS (3 Mar 2020)

    # ---------- Initialize simulation ---------------------
    units metal
    atom_style atomic
    dimension  3
    boundary   p p p
    read_data /home/modeler/RemLabs/Lab4/Problem2A_size_3/temp_1040/lammps.data
  orthogonal box = (0 0 0) to (12.27 12.27 12.27)
  1 by 1 by 1 MPI processor grid
  reading atoms ...
  108 atoms
  read_data CPU = 0.000841157 secs

    pair_style eam
    pair_coeff * * /usr/share/lammps-stable/potentials/Ag_u3.eam
Reading potential file /usr/share/lammps-stable/potentials/Ag_u3.eam with DATE: 2007-06-11

    velocity  all create 1040 87287 dist gaussian

    # ---------- Describe computed properties------------------
    compute msdall all msd
    thermo_style custom step pe ke etotal temp press density c_msdall[4]
    thermo 100

    # ---------- Specify ensemble  ---------------------
    #fix  1 all nve
    fix  1 all nvt temp 1040 1040 0.05

    # --------- Compute RDF ---------------
    compute rdfall all rdf 100 1 1
    fix 2 all ave/time 1 2500 2500 c_rdfall[*] file /home/modeler/RemLabs/Lab4/Problem2A_size_3/temp_1040/lammps.rdf mode vector

    # --------- Run -------------
    timestep 0.001
    run 10000
Neighbor list info ...
  update every 1 steps, delay 10 steps, check yes
  max neighbors/atom: 2000, page size: 100000
  master list distance cutoff = 7.55
  ghost atom cutoff = 7.55
  binsize = 3.775, bins = 4 4 4
  2 neighbor lists, perpetual/occasional/extra = 1 1 0
  (1) pair eam, perpetual
      attributes: half, newton on
      pair build: half/bin/atomonly/newton
      stencil: half/bin/3d/newton
      bin: standard
  (2) compute rdf, occasional, copy from (1)
      attributes: half, newton on
      pair build: copy
      stencil: none
      bin: none
Per MPI rank memory allocation (min/avg/max) = 3.723 | 3.723 | 3.723 Mbytes
Step PotEng KinEng TotEng Temp Press Density c_msdall[4] 
       0       -307.8    14.384069   -293.41593         1040    8316.9507    10.472245            0 
     100    -298.6768    8.8494721   -289.82733     639.8364     36064.53    10.472245  0.056280925 
     200   -295.91634    14.789758   -281.12658    1069.3322    49358.349    10.472245  0.064173375 
     300   -292.88365    18.077944   -274.80571    1307.0753    61497.516    10.472245    0.0743073 
     400   -293.67302    13.789262   -279.88375    996.99412     56086.64    10.472245  0.079350766 
     500   -295.38828    16.071512   -279.31677    1162.0058    53028.398    10.472245  0.060671137 
     600   -293.81067     12.93644   -280.87423    935.33321    54387.808    10.472245  0.076206739 
     700   -292.80682    15.404195   -277.40263    1113.7573    60591.221    10.472245  0.078771011 
     800   -294.39926    14.865372   -279.53388    1074.7993     54337.84    10.472245  0.066713744 
     900   -293.09653    12.433197   -280.66333    898.94763    57258.866    10.472245  0.075711748 
    1000   -292.44326     14.25408   -278.18918    1030.6015    61586.583    10.472245  0.071376809 
    1100   -294.19108    13.747573   -280.44351    993.97997    55697.749    10.472245  0.069837983 
    1200   -295.43585    12.535966   -282.89988    906.37809    50407.338    10.472245  0.067454075 
    1300    -293.2104    14.743837   -278.46657     1066.012    59541.233    10.472245  0.067858389 
    1400    -294.4179    16.212613   -278.20528    1172.2078    56611.525    10.472245  0.063879103 
    1500   -293.84829    13.710175   -280.13812    991.27598     55819.12    10.472245  0.078948723 
    1600   -293.40962    16.327693   -277.08193    1180.5283    58829.856    10.472245  0.078098775 
    1700   -292.73283    13.912316   -278.82051    1005.8912    58376.585    10.472245  0.076965761 
    1800   -294.37331    14.115469   -280.25784    1020.5797    54261.399    10.472245  0.072406038 
    1900   -292.85558    15.850528   -277.00505    1146.0283    59359.561    10.472245  0.074856096 
    2000   -293.33476    15.174336   -278.16042    1097.1381      58949.1    10.472245   0.07366769 
    2100   -293.34822    13.259535   -280.08868    958.69374    56871.214    10.472245  0.075393386 
    2200   -293.06398    14.918076    -278.1459    1078.6099    59110.264    10.472245  0.078969096 
    2300   -292.19661    16.455078   -275.74154    1189.7385    62926.649    10.472245  0.079544928 
    2400   -293.01355    13.326541   -279.68701    963.53843    58359.556    10.472245  0.078003185 
    2500   -293.37111    12.800513    -280.5706     925.5054    57739.252    10.472245  0.075501541 
    2600    -295.1391    17.137181   -278.00192    1239.0561    52812.951    10.472245  0.064565246 
    2700    -294.5534    15.572407   -278.98099    1125.9195    54571.516    10.472245  0.075654504 
    2800   -294.28899    13.426865   -280.86212    970.79206    54229.191    10.472245   0.07071964 
    2900    -293.0037    13.940552   -279.06315    1007.9327    59795.989    10.472245  0.067819114 
    3000   -291.32683    13.615958   -277.71087    984.46387    64446.591    10.472245  0.087678596 
    3100   -293.70334    15.166279   -278.53706    1096.5555    57416.669    10.472245   0.08164216 
    3200   -294.21471    13.825393   -280.38931     999.6065    55574.475    10.472245  0.070465217 
    3300   -294.65983    15.905668   -278.75417    1150.0149    54730.429    10.472245  0.068856374 
    3400   -294.17943    15.778109   -278.40132    1140.7922    55544.611    10.472245  0.072856421 
    3500   -293.95704    14.570113   -279.38693    1053.4514    56136.924    10.472245   0.06801083 
    3600   -295.54567    13.348258   -282.19741    965.10854    50403.212    10.472245  0.060805826 
    3700   -292.72028    13.326949   -279.39333    963.56788    59376.091    10.472245  0.074712833 
    3800   -292.95833    15.052476   -277.90585    1088.3273    59447.251    10.472245  0.071350716 
    3900    -294.4191    12.771412   -281.64769    923.40137    54431.647    10.472245  0.067533103 
    4000   -293.83499    14.070988     -279.764    1017.3635    56447.459    10.472245  0.066189766 
    4100   -292.91645    13.307933   -279.60852    962.19298    58783.763    10.472245  0.084620642 
    4200   -292.58988     16.50498    -276.0849    1193.3465    61539.313    10.472245  0.091037238 
    4300   -292.46722    14.889737   -277.57748    1076.5609    60907.155    10.472245  0.085145215 
    4400   -295.86174    14.021359   -281.84038    1013.7752    48975.876    10.472245  0.063479969 
    4500   -293.04724    13.392868   -279.65437      968.334    58607.045    10.472245  0.078265944 
    4600   -293.02982    14.235535   -278.79428    1029.2606    59251.727    10.472245  0.082662418 
    4700   -293.60312    15.651262   -277.95186    1131.6208    58607.766    10.472245  0.078057894 
    4800   -292.09298    12.354633   -279.73835    893.26728    59880.102    10.472245  0.087961992 
    4900   -294.72298    15.287522   -279.43546    1105.3217    53534.467    10.472245  0.064346605 
    5000   -293.61881    11.347389   -282.27142    820.44134    55991.085    10.472245  0.073849427 
    5100   -292.09798    14.376714   -277.72127    1039.4682    62209.484    10.472245  0.084880695 
    5200   -292.65516    14.688221   -277.96693    1061.9908    59864.467    10.472245  0.082547715 
    5300   -295.74712    13.740165   -282.00695    993.44432    49627.918    10.472245  0.057153362 
    5400   -294.38262     13.32414   -281.05848    963.36476    53389.494    10.472245   0.06663529 
    5500   -293.54765    14.942377   -278.60527    1080.3669    57040.471    10.472245  0.075336045 
    5600   -292.58987    14.239594   -278.35028    1029.5541    60274.346    10.472245  0.075587131 
    5700   -296.10409    14.161889    -281.9422    1023.9359    47717.901    10.472245  0.060071486 
    5800   -294.71885    14.316682   -280.40217    1035.1277    53576.334    10.472245  0.060900256 
    5900   -293.81203    13.836317   -279.97571    1000.3963    56446.653    10.472245  0.069588418 
    6000   -291.93933    14.635467   -277.30386    1058.1766    62585.671    10.472245  0.081189629 
    6100   -291.35131    13.382878   -277.96843    967.61169    64420.907    10.472245  0.086360502 
    6200   -293.64803    14.837741   -278.81029    1072.8015    56811.279    10.472245  0.078935419 
    6300   -293.33134    13.972859   -279.35848    1010.2686    58080.063    10.472245   0.07505196 
    6400   -292.90319    15.688833   -277.21436    1134.3373    60419.582    10.472245  0.069040729 
    6500    -293.8884    13.999021   -279.88938    1012.1602     55419.02    10.472245  0.065532231 
    6600   -293.41197    13.276113   -280.13586    959.89231    56754.456    10.472245  0.065663968 
    6700   -292.49203     15.98301   -276.50902     1155.607    62375.185    10.472245  0.072242401 
    6800   -293.51905    13.365335   -280.15371    966.34331    57387.223    10.472245  0.073119114 
    6900   -294.30008    13.649919   -280.65016    986.91936    54904.903    10.472245  0.063403832 
    7000   -293.79875    16.223083   -277.57567    1172.9648    57702.321    10.472245  0.068079078 
    7100    -291.5319     16.42377   -275.10813    1187.4749    65034.884    10.472245  0.087624356 
    7200   -293.54508    14.114258   -279.43082    1020.4921    57518.837    10.472245  0.083833379 
    7300   -293.45929    13.848815   -279.61048    1001.2999    57108.838    10.472245  0.075817631 
    7400   -292.88156      16.4227   -276.45886    1187.3976    61013.059    10.472245  0.075488737 
    7500   -292.49104    13.236874   -279.25417     957.0553    59213.295    10.472245  0.084343094 
    7600    -292.5682    13.071019   -279.49718    945.06356    60847.387    10.472245  0.075134196 
    7700   -291.96786    13.854612   -278.11325    1001.7191     61876.21    10.472245  0.074637083 
    7800   -293.81214    12.984037    -280.8281    938.77459    55160.541    10.472245  0.082974854 
    7900   -294.35942    16.499534   -277.85989    1192.9528    55209.593    10.472245   0.07857061 
    8000   -293.09561    14.730064   -278.36554    1065.0162    58201.735    10.472245  0.084979438 
    8100   -295.10062    16.340911   -278.75971     1181.484    53279.786    10.472245  0.068926008 
    8200   -294.21316    13.481675   -280.73149     974.7549    54083.374    10.472245  0.074635059 
    8300   -291.84832     13.52339   -278.32493    977.77104    61591.107    10.472245  0.079396052 
    8400   -293.28217    14.487522   -278.79465    1047.4799    57937.984    10.472245  0.072829045 
    8500   -294.16584    13.397723   -280.76812      968.685    54542.381    10.472245  0.068834565 
    8600   -292.28943    14.769675   -277.51975    1067.8802    61841.322    10.472245  0.076721647 
    8700   -290.77168    15.001906   -275.76978     1084.671    67049.699    10.472245  0.092663858 
    8800   -293.20305    14.524896   -278.67816    1050.1821    58474.974    10.472245  0.081044403 
    8900   -294.91786     12.72553   -282.19233    920.08398     51254.31    10.472245  0.063454866 
    9000   -295.19728    14.268898   -280.92838    1031.6729    50895.409    10.472245  0.060095304 
    9100   -292.44302    14.634312   -277.80871    1058.0931    59972.362    10.472245  0.084409939 
    9200   -292.47025    13.239036   -279.23121    957.21159    59843.927    10.472245  0.081493975 
    9300   -294.82405    15.172155    -279.6519    1096.9804    54150.808    10.472245  0.061687298 
    9400   -294.30619    14.192575   -280.11361    1026.1545    55102.681    10.472245  0.066394178 
    9500   -293.57259    14.258869   -279.31372    1030.9478    56687.091    10.472245   0.07166494 
    9600   -293.01703    13.953035   -279.06399    1008.8353    60248.592    10.472245  0.071704399 
    9700   -293.55531    11.687655   -281.86765     845.0433    54634.698    10.472245  0.081016384 
    9800   -294.99757    16.473005   -278.52456    1191.0347    53431.881    10.472245  0.067526249 
    9900   -293.72414    14.565995   -279.15814    1053.1536    56016.881    10.472245  0.070547699 
   10000    -293.0722     14.16415   -278.90805    1024.0994    58355.301    10.472245  0.077022863 
Loop time of 2.30522 on 1 procs for 10000 steps with 108 atoms

Performance: 374.802 ns/day, 0.064 hours/ns, 4337.988 timesteps/s
100.0% CPU use with 1 MPI tasks x no OpenMP threads

MPI task timing breakdown:
Section |  min time  |  avg time  |  max time  |%varavg| %total
---------------------------------------------------------------
Pair    | 1.3801     | 1.3801     | 1.3801     |   0.0 | 59.87
Neigh   | 0          | 0          | 0          |   0.0 |  0.00
Comm    | 0.041546   | 0.041546   | 0.041546   |   0.0 |  1.80
Output  | 0.0015551  | 0.0015551  | 0.0015551  |   0.0 |  0.07
Modify  | 0.8725     | 0.8725     | 0.8725     |   0.0 | 37.85
Other   |            | 0.009469   |            |       |  0.41

Nlocal:    108 ave 108 max 108 min
Histogram: 1 0 0 0 0 0 0 0 0 0
Nghost:    990 ave 990 max 990 min
Histogram: 1 0 0 0 0 0 0 0 0 0
Neighs:    4644 ave 4644 max 4644 min
Histogram: 1 0 0 0 0 0 0 0 0 0

Total # of neighbors = 4644
Ave neighs/atom = 43
Neighbor list builds = 0
Dangerous builds = 0
    
Total wall time: 0:00:02
