LAMMPS (3 Mar 2020)

    # ---------- Initialize simulation ---------------------
    units metal
    atom_style atomic
    dimension  3
    boundary   p p p
    read_data /home/modeler/RemLabs/Lab4/Problem2A/temp_320/lammps.data
  orthogonal box = (0 0 0) to (12.27 12.27 12.27)
  1 by 1 by 1 MPI processor grid
  reading atoms ...
  108 atoms
  read_data CPU = 0.000850293 secs

    pair_style eam
    pair_coeff * * /usr/share/lammps-stable/potentials/Ag_u3.eam
Reading potential file /usr/share/lammps-stable/potentials/Ag_u3.eam with DATE: 2007-06-11

    velocity  all create 320 87287 dist gaussian

    # ---------- Describe computed properties------------------
    compute msdall all msd
    thermo_style custom step pe ke etotal temp press density c_msdall[4]
    thermo 100

    # ---------- Specify ensemble  ---------------------
    #fix  1 all nve
    fix  1 all nvt temp 320 320 0.05

    # --------- Compute RDF ---------------
    compute rdfall all rdf 100 1 1
    fix 2 all ave/time 1 2500 2500 c_rdfall[*] file /home/modeler/RemLabs/Lab4/Problem2A/temp_320/lammps.rdf mode vector

    # --------- Run -------------
    timestep 0.001
    run 10000
Neighbor list info ...
  update every 1 steps, delay 10 steps, check yes
  max neighbors/atom: 2000, page size: 100000
  master list distance cutoff = 7.55
  ghost atom cutoff = 7.55
  binsize = 3.775, bins = 4 4 4
  2 neighbor lists, perpetual/occasional/extra = 1 1 0
  (1) pair eam, perpetual
      attributes: half, newton on
      pair build: half/bin/atomonly/newton
      stencil: half/bin/3d/newton
      bin: standard
  (2) compute rdf, occasional, copy from (1)
      attributes: half, newton on
      pair build: copy
      stencil: none
      bin: none
Per MPI rank memory allocation (min/avg/max) = 3.723 | 3.723 | 3.723 Mbytes
Step PotEng KinEng TotEng Temp Press Density c_msdall[4] 
       0       -307.8    4.4258674   -303.37413          320    2559.0215    10.472245            0 
     100   -305.03336    2.6947687   -302.33859    194.83773    10916.423    10.472245  0.017028267 
     200   -304.30995    4.7171899   -299.59276    341.06327    15069.617    10.472245  0.017880768 
     300   -303.64273    6.0698066   -297.57292    438.86044    18104.736    10.472245  0.019236231 
     400   -303.81063    4.6993698   -299.11126    339.77483     16718.69    10.472245  0.021934499 
     500   -303.82694    4.9040936   -298.92285    354.57681    17095.244    10.472245   0.01751294 
     600   -303.11167    3.2986553   -299.81302    238.50008    18342.207    10.472245  0.022488916 
     700   -303.12681    4.6046617   -298.52215    332.92722    19359.312    10.472245  0.021537085 
     800   -303.80024    4.8234378    -298.9768    348.74523    17027.968    10.472245  0.018595062 
     900   -303.15108    3.7807204   -299.37035    273.35445    18517.744    10.472245   0.02211199 
    1000   -303.14862    3.9344742   -299.21415    284.47119    18972.146    10.472245  0.022048567 
    1100   -304.08884    5.4545585   -298.63429    394.37664     16320.46    10.472245  0.018619696 
    1200   -303.33986    4.6104852   -298.72937    333.34828    18193.314    10.472245  0.023654027 
    1300   -303.64756    4.7218148   -298.92574    341.39765    17474.108    10.472245  0.019137201 
    1400   -304.05507    4.5079188   -299.54715     325.9325    15953.145    10.472245  0.017201288 
    1500   -303.49748    4.3435848    -299.1539    314.05079    17726.175    10.472245  0.021073497 
    1600   -303.48518    5.1950788    -298.2901    375.61569     18143.09    10.472245  0.020104237 
    1700   -303.56916    4.5952263   -298.97393    332.24503     17527.84    10.472245  0.019434636 
    1800   -303.74951    3.7625324   -299.98698    272.03942    16525.282    10.472245  0.019728319 
    1900   -303.52732    4.5811141   -298.94621    331.22468    17995.146    10.472245  0.018229697 
    2000   -303.38325    4.4200473    -298.9632     319.5792    18151.458    10.472245  0.021310604 
    2100    -303.2554    4.7941728   -298.46123    346.62929    18869.409    10.472245   0.02229299 
    2200   -303.74624    4.9899261   -298.75632    360.78269     17363.97    10.472245  0.018588111 
    2300   -303.67681    4.0702723   -299.60654    294.28969    16897.426    10.472245  0.019444594 
    2400   -303.16665    4.4133672   -298.75328    319.09621    19210.108    10.472245  0.019790725 
    2500   -303.31799     4.214731   -299.10326    304.73437     18223.48    10.472245  0.020594769 
    2600   -303.52295    4.5800706   -298.94288    331.14923     17960.49    10.472245  0.018653331 
    2700   -303.78063    4.5475761   -299.23305    328.79981    17120.857    10.472245   0.01760175 
    2800   -303.67102    4.5775232    -299.0935    330.96505    17231.102    10.472245   0.01883954 
    2900   -302.90827    4.3048374   -298.60344    311.24927    19776.927    10.472245  0.021068439 
    3000   -303.91566    4.2329975   -299.68266    306.05508    16182.973    10.472245  0.018909273 
    3100   -303.78367    4.6982586   -299.08541    339.69449    17107.864    10.472245  0.017201932 
    3200   -303.39465    3.9584054   -299.43625    286.20147    17804.446    10.472245  0.020327473 
    3300   -303.63057    5.1406241   -298.48995    371.67849     17799.06    10.472245  0.019060334 
    3400   -303.51859    4.9089488   -298.60964    354.92786    17948.189    10.472245  0.019976099 
    3500   -303.51897    4.1131612   -299.40581    297.39065    17465.246    10.472245  0.020388154 
    3600   -303.47233    4.3702402   -299.10209    315.97803    17926.965    10.472245  0.019287603 
    3700   -303.20289    4.1895752   -299.01331    302.91556    18431.522    10.472245  0.022179972 
    3800   -303.96763    4.9683663   -298.99927    359.22388    16324.603    10.472245  0.019390474 
    3900     -303.752    5.0762562   -298.67575    367.02455    17317.546    10.472245     0.019267 
    4000   -303.13934    3.9926626   -299.14667    288.67834    18507.366    10.472245  0.021798005 
    4100   -303.71711    3.8731609   -299.84394     280.0381    16775.567    10.472245  0.018783282 
    4200   -303.74906    4.6303977   -299.11866    334.78799    17098.422    10.472245  0.018878461 
    4300   -303.12157    4.5602648   -298.56131    329.71724    19162.184    10.472245  0.022298718 
    4400   -303.30913    4.1026363   -299.20649    296.62968    18154.497    10.472245  0.021814276 
    4500    -303.8149     4.250675   -299.56422    307.33321    16783.957    10.472245   0.01882231 
    4600   -303.54035    4.4424374   -299.09792    321.19805    17617.844    10.472245  0.020655575 
    4700    -302.8107    4.4458509   -298.36485    321.44485    20280.722    10.472245  0.025932193 
    4800   -302.86873    4.2600806   -298.60865    308.01325    19927.519    10.472245  0.022702946 
    4900   -304.22781    4.4666074    -299.7612     322.9456    15369.813    10.472245  0.017545818 
    5000   -303.53446    4.5872026   -298.94725    331.66489    17792.917    10.472245  0.021954049 
    5100   -303.45175    4.6328775   -298.81887    334.96729    18306.177    10.472245  0.020659053 
    5200   -303.40943    3.9967089   -299.41272    288.97089    17828.101    10.472245  0.019906956 
    5300    -303.4296    3.4891019    -299.9405    252.26978    17841.433    10.472245  0.021475933 
    5400   -303.27473    4.4041356   -298.87059    318.42875    18744.965    10.472245  0.021250478 
    5500   -303.00136    4.0039153   -298.99744    289.49193    19560.838    10.472245  0.022696729 
    5600    -303.2459     4.165965   -299.07994    301.20848    18806.728    10.472245  0.019576732 
    5700   -303.31672    3.6341892   -299.68253    262.75992    18101.457    10.472245  0.021338395 
    5800   -303.21625    4.5067549   -298.70949    325.84834    18976.312    10.472245  0.021854218 
    5900   -303.38255    4.7679238   -298.61463    344.73144    18370.436    10.472245  0.020702504 
    6000   -303.75313    4.2808362   -299.47229    309.51392    17038.909    10.472245  0.018736543 
    6100   -304.51795    4.3932347   -300.12471    317.64059    14393.627    10.472245  0.015146047 
    6200   -303.24752    4.3089093   -298.93861    311.54367    18704.629    10.472245  0.021161024 
    6300   -303.31506    4.8958927   -298.41916    353.98387    18872.352    10.472245  0.019256164 
    6400   -303.34946    4.0096385   -299.33982    289.90573    18180.267    10.472245  0.019705697 
    6500   -303.41769    4.2579667   -299.15972    307.86041    18153.327    10.472245  0.019968298 
    6600   -303.12323    4.9768136   -298.14641    359.83463    19941.409    10.472245  0.019997597 
    6700   -303.27081    4.3223218   -298.94849    312.51342    18786.077    10.472245  0.021056913 
    6800   -303.63355    4.4438693   -299.18968    321.30158    17475.418    10.472245  0.018153498 
    6900    -303.3727    4.5420323   -298.83067    328.39898    18457.797    10.472245  0.018946911 
    7000   -302.38044    4.4994905   -297.88095    325.32311    21914.157    10.472245  0.024611971 
    7100   -303.52645     4.398846    -299.1276     318.0463    17800.442    10.472245  0.019704692 
    7200   -303.75406     4.116677   -299.63739    297.64486    16770.935    10.472245  0.017671327 
    7300   -302.60203    4.2529458   -298.34909    307.49739     20859.28    10.472245   0.02259656 
    7400   -303.25178     4.387837   -298.86395    317.25032    18797.763    10.472245  0.020372049 
    7500    -303.4174    4.1509313   -299.26647    300.12152    18041.605    10.472245  0.019586408 
    7600   -302.87275    4.6501981   -298.22256    336.21961    20421.985    10.472245  0.022667903 
    7700   -302.95936    4.9152097   -298.04415    355.38053    20059.147    10.472245  0.023715194 
    7800    -303.6287    4.6351025    -298.9936    335.12816    17730.851    10.472245  0.019251807 
    7900   -303.60014    4.0739551   -299.52618    294.55597    17457.037    10.472245  0.018667325 
    8000   -302.38786    3.9318052   -298.45606    284.27821    21753.066    10.472245  0.024577297 
    8100   -302.62386    4.8441251   -297.77974    350.24096    21395.856    10.472245  0.023259462 
    8200   -303.59531    4.3075292   -299.28778    311.44389    17740.863    10.472245  0.019665445 
    8300   -303.46595    4.1025614   -299.36338    296.62427    17886.644    10.472245  0.020348953 
    8400    -302.7726    4.0366563   -298.73595    291.85918    20220.955    10.472245  0.024742505 
    8500   -302.90615    4.6882843   -298.21787    338.97332    20054.661    10.472245  0.023212926 
    8600   -303.80625    4.4131473    -299.3931    319.08031    16775.193    10.472245  0.019196217 
    8700   -303.90159     4.684722   -299.21687    338.71576    16377.037    10.472245  0.017768586 
    8800   -302.49099    4.6850081   -297.80598    338.73645    21560.891    10.472245  0.025372919 
    8900   -303.07297    4.6522867   -298.42069    336.37062    19429.033    10.472245  0.022320843 
    9000   -303.56789    4.3748706   -299.19302    316.31282    17841.316    10.472245   0.01851512 
    9100   -303.52089    3.7120611   -299.80883    268.39023    17372.115    10.472245  0.020148895 
    9200   -302.70443    4.1237638   -298.58067    298.15725    20657.243    10.472245  0.021674537 
    9300   -303.25698    4.3108077   -298.94617    311.68093    18806.056    10.472245  0.019941679 
    9400   -303.35211    4.0987825   -299.25333    296.35104    18415.561    10.472245  0.020442332 
    9500    -303.2988    4.6863666   -298.61243    338.83467    18856.727    10.472245  0.018041199 
    9600   -303.73043    3.8475192   -299.88291    278.18415    16741.437    10.472245  0.019176398 
    9700   -303.06876    4.2001155   -298.86864    303.67764    19330.809    10.472245  0.021744261 
    9800    -303.0606    4.5734114   -298.48719    330.66776    19487.707    10.472245  0.021929458 
    9900   -303.84042    3.9618262   -299.87859    286.44879    16558.335    10.472245  0.017881774 
   10000   -303.68288    4.1355935   -299.54729    299.01256    17119.226    10.472245   0.01767065 
Loop time of 1.94171 on 1 procs for 10000 steps with 108 atoms

Performance: 444.969 ns/day, 0.054 hours/ns, 5150.099 timesteps/s
100.0% CPU use with 1 MPI tasks x no OpenMP threads

MPI task timing breakdown:
Section |  min time  |  avg time  |  max time  |%varavg| %total
---------------------------------------------------------------
Pair    | 1.3028     | 1.3028     | 1.3028     |   0.0 | 67.09
Neigh   | 0          | 0          | 0          |   0.0 |  0.00
Comm    | 0.042323   | 0.042323   | 0.042323   |   0.0 |  2.18
Output  | 0.0013957  | 0.0013957  | 0.0013957  |   0.0 |  0.07
Modify  | 0.58568    | 0.58568    | 0.58568    |   0.0 | 30.16
Other   |            | 0.009548   |            |       |  0.49

Nlocal:    108 ave 108 max 108 min
Histogram: 1 0 0 0 0 0 0 0 0 0
Nghost:    990 ave 990 max 990 min
Histogram: 1 0 0 0 0 0 0 0 0 0
Neighs:    4644 ave 4644 max 4644 min
Histogram: 1 0 0 0 0 0 0 0 0 0

Total # of neighbors = 4644
Ave neighs/atom = 43
Neighbor list builds = 0
Dangerous builds = 0
    
Total wall time: 0:00:01
