LAMMPS (3 Mar 2020)

# ---------- 1. Initialize simulation ----------
units metal
atom_style atomic
dimension 3
boundary p p p
read_data /home/modeler/RemLabs/Project/arrhenius_4/T1500.0/n3_T1500.0_timestep3.000000e-03_eqsteps3200_time600_rseed3326/20201205-115148/lammps.data
  orthogonal box = (0 0 0) to (17.469 17.469 17.469)
  1 by 1 by 1 MPI processor grid
  reading atoms ...
  217 atoms
  read_data CPU = 0.00108763 secs

pair_style meam/c
pair_coeff * * library.meam Li Si LiSi.meam Li Si
Reading potential file library.meam with DATE: 2012-06-29
Reading potential file LiSi.meam with DATE: 2020-11-07

group Li type 1
1 atoms in group Li
group Si type 2
216 atoms in group Si

velocity all create 1500.0 3326 dist gaussian

# ---------- 2. Specify equilibration ensemble  ----------
fix 1 all npt temp 1500.0 1500.0 0.15 tchain 2 iso 1.0 1.0 1.0 pchain 2
# fix 1 all nvt temp 1500.0 1500.0 0.15

# ---------- 3. Run equilibration -------------
timestep 0.003
run 3200
Neighbor list info ...
  update every 1 steps, delay 10 steps, check yes
  max neighbors/atom: 2000, page size: 100000
  master list distance cutoff = 6
  ghost atom cutoff = 6
  binsize = 3, bins = 6 6 6
  2 neighbor lists, perpetual/occasional/extra = 2 0 0
  (1) pair meam/c, perpetual
      attributes: full, newton on
      pair build: full/bin/atomonly
      stencil: full/bin/3d
      bin: standard
  (2) pair meam/c, perpetual, half/full from (1)
      attributes: half, newton on
      pair build: halffull/newton
      stencil: none
      bin: none
Per MPI rank memory allocation (min/avg/max) = 8.895 | 8.895 | 8.895 Mbytes
Step Temp E_pair E_mol TotEng Press Volume 
       0         1500   -951.04357            0   -909.16328   -115839.99    5330.9442 
    3200    1468.9635   -949.87939            0   -908.86565    2529.6257    4594.6759 
Loop time of 2.31846 on 1 procs for 3200 steps with 217 atoms

Performance: 357.755 ns/day, 0.067 hours/ns, 1380.227 timesteps/s
100.0% CPU use with 1 MPI tasks x no OpenMP threads

MPI task timing breakdown:
Section |  min time  |  avg time  |  max time  |%varavg| %total
---------------------------------------------------------------
Pair    | 2.2491     | 2.2491     | 2.2491     |   0.0 | 97.01
Neigh   | 0.020527   | 0.020527   | 0.020527   |   0.0 |  0.89
Comm    | 0.01425    | 0.01425    | 0.01425    |   0.0 |  0.61
Output  | 2.5238e-05 | 2.5238e-05 | 2.5238e-05 |   0.0 |  0.00
Modify  | 0.029559   | 0.029559   | 0.029559   |   0.0 |  1.27
Other   |            | 0.004961   |            |       |  0.21

Nlocal:    217 ave 217 max 217 min
Histogram: 1 0 0 0 0 0 0 0 0 0
Nghost:    957 ave 957 max 957 min
Histogram: 1 0 0 0 0 0 0 0 0 0
Neighs:    4291 ave 4291 max 4291 min
Histogram: 1 0 0 0 0 0 0 0 0 0
FullNghs:  8582 ave 8582 max 8582 min
Histogram: 1 0 0 0 0 0 0 0 0 0

Total # of neighbors = 8582
Ave neighs/atom = 39.5484
Neighbor list builds = 34
Dangerous builds = 0

# ---------- 4. Describe computed properties----------
compute msdli Li msd
compute msdsi Si msd
thermo_style custom step pe ke etotal temp press density c_msdli[4] c_msdsi[4]
thermo 100

# ---------- 3. Run production -------------
timestep 0.003
run 200000
Per MPI rank memory allocation (min/avg/max) = 9.666 | 9.666 | 9.666 Mbytes
Step PotEng KinEng TotEng Temp Press Density c_msdli[4] c_msdsi[4] 
    3200   -949.87939    41.013743   -908.86565    1468.9635    2529.6257    2.1949988            0 4.6636037e-32 
    3300   -954.53348     42.96674   -911.56674    1538.9128    8087.4816    2.2145663   0.23792321  0.091878962 
    3400   -955.66576    38.214268   -917.45149    1368.6965    2091.9558    2.2044729   0.45205462  0.096462298 
    3500   -948.85997     38.61058   -910.24939     1382.891   -8260.7851    2.1657563   0.41156187    0.1094558 
    3600   -948.69568    39.869234   -908.82645    1427.9714   -4569.0725    2.1759306   0.35302662    0.1336462 
    3700   -951.99754    42.557161   -909.44038    1524.2432    8231.4597    2.2077834   0.29260792  0.098254411 
    3800   -956.99854     39.65152   -917.34702    1420.1737    8256.2824    2.2230021   0.49450958  0.090739927 
    3900   -950.81166    41.081624   -909.73003    1471.3948   -6927.5127    2.1708455   0.49690974  0.090568944 
    4000   -949.04263    40.205165   -908.83747    1440.0032   -6814.2229    2.1651745    0.4067749   0.10384303 
    4100   -947.07946    38.206157    -908.8733     1368.406    6635.4487    2.1991421   0.60178385  0.097408977 
    4200    -953.4718    35.844721   -917.62708    1283.8279    12868.227    2.2282994   0.47153876  0.097087952 
    4300   -950.36276    38.880941   -911.48182    1392.5743   -4013.4081    2.1792743   0.73699151  0.098389328 
    4400   -949.56378    40.571358   -908.99242    1453.1189    -9490.672    2.1637908    0.8623105  0.089939239 
    4500    -951.7158    43.403787   -908.31201    1554.5662     417.7451    2.1902222   0.61019725   0.11723135 
    4600   -954.51914    38.432165   -916.08698    1376.5008    10913.693    2.2260272   0.16970781   0.10344251 
    4700   -951.87471    39.907994   -911.96672    1429.3596   -48.597771    2.1921004   0.23802932    0.1167621 
    4800   -949.63154    40.892497   -908.73905    1464.6209   -8503.5429    2.1683602    0.9263022   0.13238178 
    4900   -949.38916     40.42039   -908.96877    1447.7118    -971.7625    2.1826233   0.43980054   0.11437317 
    5000   -956.33521    39.791908    -916.5433    1425.2018    5826.2719    2.2185469   0.46665864  0.090691645 
    5100   -950.87373    40.180817   -910.69292    1439.1311    3374.1926    2.1984579   0.53405883   0.09703018 
    5200   -950.03167     41.42584   -908.60583    1483.7234   -5090.6458    2.1752342   0.74186396  0.098202831 
    5300   -950.31407     40.36086   -909.95321    1445.5796   -3894.7856    2.1785954   0.56807066  0.093523771 
    5400   -955.62659     39.14104   -916.48555    1401.8901    3656.1129    2.2103185   0.65562447   0.10557775 
    5500    -954.0753    42.277079   -911.79823    1514.2117    5399.1984    2.2086038   0.64097815    0.1040346 
    5600   -952.99287    44.158263   -908.83461    1581.5888   -1262.5072    2.1864438   0.63406731   0.10988233 
    5700   -948.58405     39.24769   -909.33636    1405.7099   -4958.1111    2.1711874   0.58941959   0.12205856 
    5800   -948.12699    37.657264   -910.46972    1348.7466     1.389374    2.1876377   0.36413048   0.10717558 
    5900   -958.58508     40.11139   -918.47369    1436.6445    8673.6512    2.2280613   0.46020385   0.11647575 
    6000   -951.86615    41.015456   -910.85069    1469.0249    1824.4052    2.1915233   0.27529505   0.10093625 
    6100   -952.00141    42.991748   -909.00966    1539.8085   -9305.5456    2.1666777   0.24995325  0.096071469 
    6200   -949.65916    42.013126   -907.64603    1504.7578   -1128.1185    2.1819467   0.29015061   0.11024114 
    6300   -954.66286    38.132731   -916.53013    1365.7761    10730.976     2.222193   0.78038071  0.090349656 
    6400   -953.23961    41.858318   -911.38129    1499.2131   -802.32603    2.1926578   0.43658568   0.10112369 
    6500   -949.72065    41.224897   -908.49576    1476.5263   -7573.9868    2.1680321   0.67267759  0.096904483 
    6600   -949.83175    41.085368   -908.74638    1471.5289   -2439.3994    2.1791903   0.28919421    0.1118053 
    6700   -956.10102    39.628571   -916.47245    1419.3517    9013.6251    2.2238366   0.92740375   0.10524965 
    6800   -947.75685    39.237978   -908.51887    1405.3621    5864.5884    2.1971443   0.57800885   0.11185135 
    6900   -950.80677    42.255647   -908.55112     1513.444   -7321.4402    2.1698339   0.46769999    0.1126436 
    7000   -950.48976    39.147742   -911.34202    1402.1302   -5069.4871    2.1777517   0.51522645   0.10399449 
    7100   -955.05358    38.357733   -916.69585    1373.8349    6907.5989    2.2172979   0.71819089   0.10322054 
    7200   -949.82294    42.067132   -907.75581    1506.6921    5130.0734    2.1982733    0.4018338  0.099802474 
    7300   -948.56804    39.732133   -908.83591    1423.0609   -2689.8568    2.1757626   0.65608256   0.11245134 
    7400   -950.36117    38.964098   -911.39707    1395.5527   -5686.1675    2.1736987   0.62219132  0.095017758 
    7500   -956.01319    38.125281   -917.88791    1365.5093    4122.8514    2.2112771   0.69837887  0.098339462 
    7600   -950.07195    40.529484   -909.54247    1451.6191    8307.2833     2.209142   0.45020805   0.11290837 
    7700   -951.39032    42.438253   -908.95207    1519.9843    -231.3996    2.1901966   0.85359892   0.11378171 
    7800   -950.60594    40.674855   -909.93109    1456.8258   -14503.518    2.1529267   0.79159617   0.12079459 
    7900   -948.50743    44.365666   -904.14176    1589.0173   -4866.3476    2.1678139   0.21142811   0.10600066 
    8000   -948.48276    47.124429   -901.35833    1687.8261    18026.632    2.2233853   0.42713239   0.10827476 
    8100   -948.52627    40.536771    -907.9895    1451.8801    8738.8639    2.2045364   0.59743818  0.097028689 
    8200   -949.60903    39.922153   -909.68688    1429.8667   -9767.3645    2.1612182   0.37514153   0.10992656 
    8300   -949.40317     41.98265   -907.42052    1503.6663   -5735.0658    2.1690926    1.0213307   0.10925191 
    8400    -942.8631    44.388234   -898.47486    1589.8256    7527.9185    2.1873914   0.84995474   0.11409979 
    8500   -951.44777    44.136742   -907.31103     1580.818    7450.6539    2.2073078   0.62605146   0.11118555 
    8600   -948.76853    39.211103   -909.55743    1404.3995   -2310.7708     2.176919   0.46046482   0.10127653 
    8700   -951.26254    42.586973   -908.67556    1525.3109   -8362.3101     2.167957   0.41176626   0.12079185 
    8800   -945.98675    45.999349    -899.9874    1647.5299    3932.5882    2.1833985   0.16920928   0.10346588 
    8900     -948.155    42.056529   -906.09847    1506.3124    11520.461    2.2086182   0.40684729   0.11404269 
    9000   -950.11063    40.648015   -909.46262    1455.8645   -2467.1195    2.1810752   0.68298138   0.12011059 
    9100   -951.31063    41.807009   -909.50362    1497.3754   -7394.2743    2.1699278   0.62274875   0.10126076 
    9200   -948.54797    44.423197   -904.12478    1591.0778    1957.3818    2.1856383   0.44127786   0.11090188 
    9300   -948.77438    46.149258   -902.62512    1652.8991    3165.2938    2.1886687   0.40849668      0.10729 
    9400   -951.69326    42.885452   -908.80781    1536.0014   -2714.8121    2.1809604   0.52135957  0.098913224 
    9500   -950.75222     40.82858   -909.92364    1462.3317   -3720.2291    2.1767599    1.8026796   0.10785767 
    9600   -951.20068    45.301449   -905.89923    1622.5336     886.7289    2.1861016   0.35425059   0.10142131 
    9700   -947.93682     46.03254   -901.90428    1648.7186    917.37899    2.1809437   0.25255243   0.11210893 
    9800    -952.9001    43.736514   -909.16359    1566.4833   -1457.6229    2.1856876   0.47350987   0.10090666 
    9900   -950.90446    41.266191   -909.63827    1478.0053   -1494.1905    2.1849774   0.59697585   0.10042982 
   10000   -947.17875    41.935753   -905.24299    1501.9866    3623.3529    2.1867772   0.32025429   0.11907192 
   10100   -947.17214    44.998528   -902.17361    1611.6841    811.17325    2.1790917   0.76581066   0.11887259 
   10200   -947.97546    38.663301   -909.31216    1384.7792   -3146.5116    2.1728435   0.39525636   0.11167389 
   10300   -950.78817    41.285573    -909.5026    1478.6995    1969.9789    2.1898765   0.75683447   0.10283919 
   10400   -945.17494    38.699314   -906.47563    1386.0691    13670.032    2.2088346    1.4036818   0.10890869 
   10500   -949.00107    47.913195   -901.08788    1716.0769   -4025.8697    2.1707647   0.87470374   0.11109339 
   10600   -950.07172    40.629203   -909.44252    1455.1907   -9325.1241    2.1612551   0.88823739   0.10852103 
   10700   -951.11707    41.560666   -909.55641    1488.5523     1045.326    2.1893911   0.38037291   0.11228526 
   10800   -950.60164    43.787388   -906.81425    1568.3054    10064.806    2.2114924   0.46580764   0.11359726 
   10900   -944.12417    44.358837   -899.76533    1588.7727   -797.65945    2.1689264   0.37994417   0.10916734 
   11000   -952.62235    43.488399   -909.13395    1557.5967    -8999.819    2.1663584   0.38908584   0.11349827 
   11100   -953.90624    44.273515   -909.63272    1585.7167   -2370.5094    2.1853247    0.5198452   0.10477461 
   11200   -947.28741     39.95499   -907.33242    1431.0428    9951.2019      2.20446   0.59205646   0.10693821 
   11300   -945.23344    46.083033    -899.1504    1650.5271    1222.0493    2.1742222   0.28307465   0.11905558 
   11400   -949.77554    41.531263   -908.24428    1487.4992   -2539.0446    2.1779398    0.7056311   0.11691215 
   11500   -949.35801    39.883792   -909.47422    1428.4928   -835.41553    2.1782032   0.71618945   0.10538806 
   11600   -949.42669    40.907061   -908.51963    1465.1426    2609.3458     2.192861   0.77738394   0.11651564 
   11700   -947.04601    46.707542   -900.33847    1672.8948    7681.9347    2.1965311   0.59656374   0.11287835 
   11800   -951.47121     46.44849   -905.02272    1663.6164   -1875.4568    2.1822954   0.52296076   0.10663668 
   11900    -949.8829    40.423078   -909.45983     1447.808   -14362.473    2.1512158    0.4508828   0.12165973 
   12000   -952.57653    42.722957   -909.85357    1530.1814   -4847.4702    2.1782219   0.39994011   0.10929536 
   12100   -952.77846    44.629023   -908.14943    1598.4498     17425.87    2.2310006   0.66231163   0.11131084 
   12200   -944.09122    43.355487   -900.73573    1552.8363    2856.7321    2.1808783   0.73026535   0.12536347 
   12300   -947.06532    38.878215    -908.1871    1392.4767   -9286.0796    2.1597011   0.76023501   0.11536127 
   12400   -949.83716    39.883708   -909.95345    1428.4898   -1482.9209    2.1808582   0.59677107   0.11835344 
   12500   -950.36225    41.363558   -908.99869    1481.4926    7162.6315    2.2035085   0.65120099   0.11857284 
   12600   -944.17257    43.491511   -900.68105    1557.7082    2468.5199    2.1782153   0.71855523   0.11587682 
   12700   -951.94771    43.152507    -908.7952    1545.5663   -4172.9093    2.1814576   0.59450559   0.11501354 
   12800   -951.63841    41.428085   -910.21032    1483.8038   -2572.9835    2.1857388   0.79795368   0.11033119 
   12900   -947.38805    41.460676   -905.92737    1484.9711    3521.8891     2.191073   0.75420528   0.11221508 
   13000   -948.38644    45.884068   -902.50237    1643.4009   -917.51184     2.180645   0.23491473   0.13338587 
   13100   -952.53448    42.527983    -910.0065    1523.1981   -3295.1034    2.1849557   0.48770576   0.12610675 
   13200   -949.68704    40.523036     -909.164    1451.3882    734.88779     2.187948    1.2849857    0.1235129 
   13300   -952.08402     48.09745   -903.98657    1722.6762    130.84972    2.1891629   0.91796629   0.12765261 
   13400   -946.21074    42.580379   -903.63036    1525.0747    701.73828    2.1796012    1.0830111   0.12027536 
   13500   -950.76582    40.894432   -909.87139    1464.6903   -4649.9014    2.1737702   0.50440352   0.11842976 
   13600   -949.05793    39.950539   -909.10739    1430.8834    2622.3593    2.1903775   0.93730007   0.11338441 
   13700   -951.77224    44.681001   -907.09123    1600.3114    8385.3546    2.2083962   0.52066254   0.11509857 
   13800   -943.49282    44.900843   -898.59198    1608.1854   -2796.4213    2.1629306    0.9096748   0.11670745 
   13900   -947.91664     40.19232   -907.72432    1439.5431   -6579.3987    2.1619587   0.32364513   0.11433794 
   14000    -953.5879    44.165774   -909.42212    1581.8579    56.127796    2.1923811   0.63619306   0.11068505 
   14100   -950.77937    42.523076   -908.25629    1523.0224    10542.949     2.212586   0.78438713   0.12246156 
   14200   -945.09166    45.650154   -899.44151     1635.023   -260.76997    2.1691073    1.0812369   0.13124942 
   14300   -949.15152    41.993108   -907.15841    1504.0408   -8760.7323    2.1636561    0.6790017    0.1091386 
   14400   -953.20972     43.71607   -909.49365    1565.7511   -2859.3564     2.181388   0.93467711   0.11677889 
   14500   -951.18987    42.844007   -908.34587     1534.517    7420.7734    2.2055557   0.58019399   0.10056256 
   14600   -945.78997    46.481236   -899.30873    1664.7893    4142.7876    2.1838271    1.9601659   0.13346143 
   14700   -950.14515    43.591843    -906.5533    1561.3017   -4087.3387    2.1763643    0.4049009   0.11583596 
   14800   -950.60665    40.572421   -910.03423     1453.157   -7617.1059     2.169469      1.18026   0.10635301 
   14900   -950.71685    42.639646    -908.0772    1527.1975    1949.1442    2.1972337    1.0601023   0.13141778 
   15000   -947.68816    48.406552   -899.28161    1733.7471    11495.362    2.2117938   0.61328889   0.12646019 
   15100   -953.20758    45.599289   -907.60829    1633.2012    69.181343    2.1907404   0.68978716   0.11095126 
   15200   -951.04121    40.957407    -910.0838    1466.9458   -18936.075    2.1418967   0.43475457   0.11100127 
   15300    -948.1626    42.450048   -905.71255    1520.4068   -4425.4228    2.1692495    1.4998473   0.13011132 
   15400   -943.06293    43.502513   -899.56042    1558.1022    16089.406     2.215502    4.4708159   0.15261319 
   15500   -951.04191    42.921311    -908.1206    1537.2857    5953.9373    2.2017696    5.3122166   0.12683053 
   15600   -948.79851    40.241844   -908.55667    1441.3169   -4127.8466    2.1703036    4.8436693   0.12728319 
   15700   -950.99529    45.801093   -905.19419     1640.429   -7022.4999    2.1685693      4.68163   0.12880371 
   15800   -946.63295    49.797273   -896.83568    1783.5577   -596.56355    2.1739865    2.4619308   0.12444157 
   15900   -950.63582    43.768567   -906.86726    1567.6313    8591.6663    2.2074331    2.9350596   0.13918409 
   16000   -950.38474    42.567657   -907.81708    1524.6191   -4278.4869    2.1797882    4.2493411   0.13226861 
   16100   -950.79346    41.477742   -909.31572    1485.5823   -6635.2736    2.1696144    3.7008236   0.13821556 
   16200   -954.34845    37.858505   -916.48995    1355.9544    1807.0225    2.2016029    3.1411147   0.12982071 
   16300   -952.45741    42.211773   -910.24564    1511.8726    7286.5421    2.2084715    4.1451294   0.13658061 
   16400    -948.0214    40.414969   -907.60644    1447.5176    3060.0404    2.1915134    3.9528856   0.14529693 
   16500    -951.1602    42.051499    -909.1087    1506.1322    -6731.233    2.1694703    5.2233708   0.12481418 
   16600   -948.73148    34.796797   -913.93469    1246.2951   -708.68041    2.1863958    7.6577398   0.13838753 
   16700   -952.43435     38.69245    -913.7419    1385.8232    8928.4277     2.214941    5.0156887   0.11502185 
   16800   -949.36732    42.539354   -906.82797    1523.6054    6526.6972    2.2005493    9.6545243   0.12089769 
   16900   -950.65096    42.559264    -908.0917    1524.3185   -10995.644    2.1592213    3.6388432   0.14097989 
   17000   -953.64598    41.616455   -912.02953    1490.5505   -13462.785    2.1616943    4.2213376   0.13155308 
   17100    -953.5464    40.328404   -913.21799    1444.4172    11295.193    2.2209339    3.5548886   0.12484289 
   17200   -952.26173    47.518568   -904.74316    1701.9428    9864.0727    2.2128274    4.5295182   0.12825166 
   17300   -949.76172    41.304183   -908.45754     1479.366   -3219.1572    2.1750318    5.1710433   0.12814378 
   17400   -953.26561    41.157481   -912.10813    1474.1117   -7689.9305    2.1733834    4.2146558   0.11857004 
   17500    -951.7535    42.106293   -909.64721    1508.0947    1801.1876    2.1924671     4.000954   0.12357518 
   17600    -946.1934    41.549734   -904.64366    1488.1608    4706.7229    2.1897817    4.8453523   0.14088926 
   17700   -950.74801    42.103713    -908.6443    1508.0023   -2108.2158    2.1819443    4.2798224    0.1256178 
   17800   -952.07812    41.742444   -910.33568    1495.0629   -3838.7742    2.1828634    4.1696384   0.13528963 
   17900   -947.31816      46.2413   -901.07686    1656.1957   -938.15144    2.1744981    5.0843529    0.1450761 
   18000   -947.24358    41.899708   -905.34387    1500.6956    8265.5324    2.1983463    5.2980719   0.12616985 
   18100   -948.92284    39.473429   -909.44941    1413.7951    39.974627    2.1900419    3.1846686   0.14833153 
   18200   -949.18958     41.07824   -908.11134    1471.2736   -5850.6329    2.1746211    3.9041651   0.13560638 
   18300   -946.38007    46.688526   -899.69154    1672.2137   -3992.6402    2.1657345    4.6374805   0.14722701 
   18400   -953.07815    44.645908   -908.43225    1599.0545    7791.1646    2.2101941    3.5546105    0.1403066 
   18500   -950.76502    42.253501   -908.51152    1513.3672    7102.8115    2.2043256    2.7300688   0.14036261 
   18600   -950.48021    45.345193   -905.13502    1624.1004   -7689.2534    2.1641292    4.9699436   0.16626751 
   18700   -944.67968    43.443171   -901.23651    1555.9768   -9079.9031    2.1482653    3.6403822   0.14424872 
   18800   -950.90715    41.486512   -909.42064    1485.8964    8327.6113    2.2099962    4.2789817   0.13940123 
   18900   -950.24325     43.07907   -907.16418    1542.9361    13929.549    2.2163452    3.2578267   0.12672555 
   19000   -949.76382    42.228315   -907.53551    1512.4651   -4938.1817    2.1734167    3.1419102   0.12562661 
   19100   -951.12687    34.946825   -916.18004    1251.6686   -3731.8607    2.1780522    4.0915675   0.12187052 
   19200   -953.60866    42.709802   -910.89885    1529.7102   -3226.4647    2.1852013    2.5399822   0.12990055 
   19300   -948.61017    41.883214   -906.72696    1500.1048    4968.2452    2.1955261    5.4905466   0.14642693 
   19400   -949.49154    39.706355   -909.78518    1422.1376    2727.8513    2.1940061    4.1322179   0.13193682 
   19500   -954.45089    39.751974   -914.69892    1423.7715   -3440.4436    2.1881042     4.401769   0.11874342 
   19600   -947.43123    40.635185   -906.79605     1455.405   -5675.5517    2.1687865    5.6494758   0.14077993 
   19700   -949.34659    41.129629   -908.21697    1473.1142     58.52527    2.1868707    4.6140173   0.12798403 
   19800   -955.27214     42.20411   -913.06804    1511.5982    5849.2515    2.2086366    3.5158457   0.11147459 
   19900   -948.27072    43.887795   -904.38293    1571.9016   -648.18775    2.1777789    4.0944608   0.13291883 
   20000   -949.03946    42.590113   -906.44935    1525.4234   -4317.3662    2.1742385    1.9852183   0.13755057 
   20100   -951.28926    40.479917   -910.80934    1449.8438   -1990.0552    2.1869889    3.5595493   0.13859836 
   20200   -949.68967    43.348622   -906.34105    1552.5904    6047.9321    2.1969547    3.1189841   0.13340413 
   20300   -947.38854    44.799339    -902.5892    1604.5498    3431.3503    2.1864814    13.489931   0.10465743 
   20400   -950.43039    40.811751   -909.61864    1461.7289   -12081.076     2.159937    10.117504   0.12747763 
   20500   -947.74844    38.415183   -909.33325    1375.8925   -7281.5513    2.1703949     14.65807   0.12658411 
   20600   -947.02992    42.177984   -904.85194    1510.6624    15414.311    2.2189673    19.095843   0.10828344 
   20700   -952.58777    51.834036   -900.75373    1856.5072    3822.7057    2.1955061     16.35609   0.11102798 
   20800   -950.80271    42.188043   -908.61466    1511.0227   -9226.3959    2.1641245    16.732402   0.10461132 
   20900   -951.75231    42.058543   -909.69377    1506.3845   -6263.6101    2.1737658     17.40551   0.11163773 
   21000   -951.85363    43.846476   -908.00715    1570.4217    5469.8188    2.2017248    16.415715   0.12034463 
   21100   -944.71348    45.522484     -899.191    1630.4503    4732.8147    2.1815434     14.15571   0.12336136 
   21200   -949.34104    41.401392   -907.93965    1482.8477   -773.97273    2.1851824    14.826218   0.11413464 
   21300   -950.31193    40.328097   -909.98384    1444.4062   -2985.5223    2.1817339    14.712315   0.11502316 
   21400   -950.24342    42.615642   -907.62777    1526.3378    26.768563    2.1891812     16.26519   0.11216177 
   21500   -944.77106    44.813126   -899.95793    1605.0436    1083.3642    2.1787982    16.184083   0.13100185 
   21600   -949.85302    41.049797   -908.80322    1470.2549    4770.5064    2.1983195    16.602449    0.1176796 
   21700   -951.54763    41.996668   -909.55096    1504.1684     313.6897    2.1906171    18.030721   0.12214868 
   21800   -951.81273    45.069288   -906.74345    1614.2184   -4141.3274    2.1777949    17.843035   0.11766123 
   21900   -946.96645    46.698011   -900.26844    1672.5534   -5209.1851    2.1672853    13.619357   0.13735284 
   22000   -949.68451    40.570257   -909.11425    1453.0795    8155.7452    2.2050196     15.33397   0.12227509 
   22100   -949.69187    40.714701   -908.97717    1458.2529     9935.899    2.2110648    15.995616   0.11695994 
   22200   -949.98147      41.7037   -908.27777    1493.6753   -6771.9143    2.1680762    16.098779   0.11450131 
   22300   -941.85491    42.686191   -899.16871    1528.8646   -11870.498     2.139473    18.011412   0.12867217 
   22400   -950.67872    41.657057   -909.02166    1492.0047    7270.0416    2.2061905    16.900924     0.109588 
   22500    -949.6429    40.853479   -908.78942    1463.2234    13010.087    2.2172789    16.974474   0.10093191 
   22600   -952.93032    43.834452   -909.09587    1569.9911   -3704.8524    2.1785744    17.616922   0.11363534 
   22700   -946.11789    45.771437   -900.34645    1639.3669   -9511.3449    2.1501771    21.069499   0.12122525 
   22800   -946.35719    38.310041   -908.04715    1372.1267    4172.5937    2.1932644    16.156647   0.12939291 
   22900   -951.85256    42.441104   -909.41146    1520.0864    4574.2262    2.2016648    15.470662   0.11942861 
   23000   -952.85898    43.741773   -909.11721    1566.6717   -2170.3296    2.1857503     16.43993   0.11159608 
   23100   -943.42913    41.311125     -902.118    1479.6147   -1341.4048    2.1667187    16.811425   0.12204116 
   23200   -946.79152    42.421529      -904.37    1519.3853    1323.6098    2.1805277    18.993406   0.11606894 
   23300   -953.58212    44.606005   -908.97611    1597.6253    594.14909    2.1941295    17.213621   0.10385129 
   23400   -950.93522    41.554807   -909.38041    1488.3425    1660.4009    2.1924121    15.634066   0.10531187 
   23500   -946.19006    40.953498   -905.23657    1466.8058    952.87005    2.1756962    14.803874   0.10177308 
   23600   -946.85007    44.893112   -901.95696    1607.9085   -4733.1352    2.1632521    15.951474   0.10556044 
   23700   -950.36075    41.188553    -909.1722    1475.2246    3294.5625     2.191789    17.820276   0.11593565 
   23800   -948.29831    39.577365   -908.72094    1417.5177    12887.543    2.2155407    15.168716   0.10983376 
   23900   -945.48587    36.742832   -908.74304     1315.995    3811.7153    2.1870097    15.482524   0.12920792 
   24000   -942.83984    43.804634    -899.0352    1568.9231    -15237.54    2.1306168    14.937884    0.1331227 
   24100   -950.24154    41.794547     -908.447    1496.9291    380.15306    2.1891069    15.634728   0.11457544 
   24200   -953.81523    44.930914   -908.88432    1609.2624    10631.933    2.2168952     16.80255   0.10398282 
   24300   -954.43874    44.623081   -909.81566    1598.2369   -900.51298    2.1920784    16.998036  0.098107361 
   24400   -947.84709    47.718025   -900.12906    1709.0866   -10854.529     2.151707    15.500884   0.11699253 
   24500   -949.57346    42.253517   -907.31994    1513.3677   -2546.1206     2.182554    16.673987   0.11969035 
   24600   -950.23058     40.86459   -909.36599    1463.6214    5881.9463    2.2047896     15.67608   0.11796423 
   24700   -950.87859    41.713823   -909.16476    1494.0378    4441.6621    2.1973914    16.427975   0.11257377 
   24800   -944.67443    44.193988   -900.48045    1582.8684   -4046.1219    2.1686579    16.460616   0.14792008 
   24900   -948.96369    42.065305   -906.89838    1506.6267   -786.75072    2.1855965    14.630571   0.12258777 
   25000   -951.29008    41.634223   -909.65586    1491.1869   -64.487994    2.1942599    16.460642   0.13172436 
   25100   -949.66377    40.707394   -908.95637    1457.9912    2755.8265    2.1944324    16.306604   0.12912229 
   25200   -947.52492     47.28472    -900.2402    1693.5672   -2083.3044    2.1767156    16.921433   0.11947583 
   25300   -951.83328    43.863088   -907.97019    1571.0167    366.04188    2.1931187    16.658533   0.12622914 
   25400   -951.41964    41.643113   -909.77653    1491.5053     -2342.87    2.1862527    14.482159   0.10751657 
   25500   -946.40519    37.832352   -908.57284    1355.0177   -38.906216    2.1850231    15.709388   0.11939129 
   25600   -944.15308    44.263075      -899.89    1585.3428    4778.6848    2.1889508    17.471439    0.1283917 
   25700   -950.20151    42.477904    -907.7236    1521.4045    7010.3721    2.2090751    15.990853   0.11006159 
   25800   -953.40683     43.55642   -909.85041     1560.033   -6702.4477    2.1789518    16.019801   0.12193909 
   25900   -951.30807     43.13782   -908.17025    1545.0403   -10004.072    2.1685997    16.045392   0.12648978 
   26000   -946.44753    46.156003   -900.29153    1653.1407    4057.5841     2.189871    15.225494    0.1283843 
   26100   -952.95027    46.605497   -906.34477    1669.2399    8134.2391    2.2118586    17.381325   0.12217058 
   26200    -952.2954     42.85661   -909.43879    1534.9683   -5981.9173    2.1765494    17.722023     0.120737 
   26300   -950.92069    41.356104   -909.56459    1481.2257   -9210.4609    2.1672365    17.403819   0.10482172 
   26400   -951.95274    45.390776   -906.56196     1625.733    912.55003    2.1937213     14.70528   0.13071155 
   26500   -947.18456    46.346452    -900.8381    1659.9618    5347.5877    2.1929978    16.850483   0.12508194 
   26600    -949.6513    41.499881   -908.15141    1486.3752   -1986.5777    2.1847693    17.165574   0.11269189 
   26700   -949.69872    39.597847   -910.10088    1418.2513   -4814.8507    2.1761931    18.457081   0.12881413 
   26800   -949.56865    41.382843   -908.18581    1482.1834    1033.6291    2.1873935    14.775985   0.11255167 
   26900   -944.93342    43.734741   -901.19868    1566.4198    1778.0038    2.1831772    14.232712   0.13880767 
   27000   -948.22357     39.40672   -908.81685    1411.4058    1879.7132    2.1930864    15.733762   0.13179197 
   27100   -951.30686    41.268109   -910.03875     1478.074   -2774.8531    2.1828776    17.119506   0.11410231 
   27200   -949.32935    44.613495   -904.71585    1597.8936   -3342.2802    2.1763171    18.436645   0.13125445 
   27300    -949.3671    45.890673   -903.47643    1643.6375    2277.8211    2.1922369     18.29788    0.1269397 
   27400    -952.0643    42.678487   -909.38581    1528.5886    3104.4349    2.2017369    15.548237   0.11753829 
   27500   -948.69537    39.218305   -909.47707    1404.6575   -4157.0917    2.1772219    15.647599    0.1220129 
   27600   -946.56299    43.345474   -903.21752    1552.4777   -6227.9169    2.1610577    16.082567    0.1337354 
   27700   -947.65691     43.79065   -903.86626    1568.4223    3896.5938    2.1895152     16.82705   0.11895377 
   27800   -947.46528     38.52647   -908.93881    1379.8784    9413.6942    2.2060425    15.749125   0.13211661 
   27900   -949.03033    39.727134   -909.30319    1422.8819    76.342537    2.1827115    16.810668    0.1138684 
   28000   -949.71763    42.903635     -906.814    1536.6526   -7752.1828    2.1635442    16.581109   0.10391281 
   28100   -943.67793    44.775274   -898.90265    1603.6879    -1413.646     2.164651    18.487331   0.12761928 
   28200    -950.5238    42.781236   -907.74256    1532.2687     12093.39    2.2149148    15.035851   0.10489016 
   28300   -949.63685    40.541051    -909.0958    1452.0334    4737.4292     2.195996    17.082178   0.11336356 
   28400   -952.20064     43.14599   -909.05465    1545.3329    -11914.67    2.1637262    15.700233   0.12809963 
   28500   -951.04292    41.164179   -909.87875    1474.3516   -6302.6073    2.1755203    16.423612   0.11382478 
   28600   -955.14826    38.532148   -916.61611    1380.0818    10475.734    2.2257135    17.230221   0.11192605 
   28700   -952.73965    41.689278   -911.05037    1493.1587    6497.1361    2.2083941    16.187301   0.12070757 
   28800   -947.27884    38.601964   -908.67688    1382.5823   -2437.0367    2.1749106     15.01637   0.11525933 
   28900   -949.60819    42.405401   -907.20279    1518.8077   -5460.2608    2.1717072    15.353517   0.12542712 
   29000   -956.90922    40.589302   -916.31992    1453.7616    4525.5178    2.2093392    17.466703  0.099278341 
   29100   -950.09134    39.840848   -910.25049    1426.9547     3823.224    2.1966494    17.309859   0.10427623 
   29200   -948.95053     41.17173    -907.7788    1474.6221   -437.27209    2.1809696    17.225458   0.10896334 
   29300   -953.37559    41.333677   -912.04192    1480.4224   -3928.1973    2.1835817    16.980626   0.11236718 
   29400   -952.85546     38.28977   -914.56569    1371.4007     2241.039    2.1981274    19.091593    0.1115331 
   29500   -952.38814    45.108675   -907.27947    1615.6292    1637.1758    2.1930024    17.423603  0.099405971 
   29600   -952.80876    43.223695   -909.58507     1548.116   -2107.5643    2.1875632    16.720632   0.11123998 
   29700   -951.76517    36.236198   -915.52897    1297.8492   -3030.4004    2.1883334    15.946615   0.11125505 
   29800   -948.76414    40.593142     -908.171    1453.8991    651.37691    2.1887449    17.676236   0.11014061 
   29900   -949.57684    42.316745   -907.26009    1515.6324    9337.2838    2.2134622    15.008614   0.11846036 
   30000   -950.85585    40.095853   -910.75999    1436.0881    3154.8048    2.1938911    18.829627   0.10106055 
   30100   -948.26865    40.719527   -907.54912    1458.4258   -13154.856    2.1474664    16.093017   0.10826754 
   30200   -944.35263    40.793192   -903.55944    1461.0642    -5290.764    2.1586649    17.837104   0.12614644 
   30300   -952.25134    43.775205   -908.47613    1567.8691    12612.396    2.2217957    17.067416    0.1148203 
   30400   -952.72446    42.700429   -910.02403    1529.3745    10592.905    2.2142195    16.429064   0.11387677 
   30500   -949.11319    45.647934   -903.46525    1634.9435   -9443.0952    2.1591517    16.992139   0.11052722 
   30600   -950.14276    43.766438   -906.37632    1567.5551   -8770.3241    2.1631977    16.667473   0.11464795 
   30700    -953.6148    43.290019   -910.32478    1550.4915    2617.7333    2.1964999    15.611933   0.10504712 
   30800   -951.88575    44.418281   -907.46747    1590.9017    6758.3279     2.205521    17.288435   0.11186244 
   30900   -945.68336    43.254847   -902.42851    1549.2318    1756.5443    2.1777254     18.98158   0.12152877 
   31000   -954.11661    42.242163   -911.87445    1512.9611   -4497.2278    2.1831562    16.291366   0.09492546 
   31100    -949.4581    39.110694   -910.34741    1400.8032    622.15933    2.1863671    19.108756   0.11096258 
   31200   -949.53844     42.63134    -906.9071       1526.9    3922.4903    2.1951775    15.823368   0.11676318 
   31300   -949.50222    39.763571   -909.73865    1424.1869    2115.8093    2.1933329    16.349325   0.11666815 
   31400   -955.70235    41.433754   -914.26859    1484.0068   -2551.5783    2.1909116    16.656592   0.11300957 
   31500    -950.5674    41.668894    -908.8985    1492.4287   -685.65891    2.1870278    16.332535   0.10114843 
   31600   -948.87281    41.603544   -907.26927    1490.0881    5557.7885    2.1915589    16.270555   0.10372233 
   31700   -958.09495    42.393822   -915.70113     1518.393   -563.51166    2.2048429     17.77627   0.10656549 
   31800   -950.55903     40.41834   -910.14069    1447.6384   -6639.2185      2.17303    16.125431   0.11251449 
   31900    -951.2645    43.369305    -907.8952    1553.3312   -3209.7178    2.1753041      19.3133   0.11143621 
   32000   -950.05842    39.821397   -910.23702     1426.258    10905.885    2.2141253    18.436669   0.11252507 
   32100   -957.01243    41.284231    -915.7282    1478.6514    9207.9599    2.2204219    15.141353  0.097025516 
   32200   -948.36485    41.312058   -907.05279    1479.6481   -8468.7823    2.1604225    17.990037   0.11557525 
   32300   -952.64499    43.526313   -909.11868    1558.9547   -8938.9889    2.1653153    17.487847   0.11093502 
   32400   -954.16087    41.818558   -912.34231    1497.7891    7436.6075     2.210036    17.784879   0.10535811 
   32500    -948.7147    42.687218   -906.02749    1528.9014    11973.695    2.2110175    17.842664   0.10462234 
   32600   -946.19712    40.268084   -905.92903    1442.2567    614.27382    2.1765174    15.635825     0.110545 
   32700   -953.02285    42.118581   -910.90426    1508.5348   -11147.398    2.1643328    15.317268   0.10679877 
   32800   -951.29115    42.670662   -908.62049    1528.3084    95.658383    2.1867773    15.879414   0.10047865 
   32900   -944.86372    43.126205   -901.73751    1544.6243    6065.9125    2.1915965    16.059079   0.11258351 
   33000   -951.02472    41.299409   -909.72531    1479.1951    2626.2131    2.1960643    15.316159   0.10937067 
   33100   -952.51343     42.42306   -910.09037    1519.4401   -4774.0881    2.1793191    16.181476   0.11243308 
   33200    -947.4126    44.714781   -902.69782    1601.5213   -4384.2653    2.1705804    16.483281   0.11899698 
   33300   -955.79098    46.650533   -909.14044    1670.8529    1301.7935    2.1976382    16.163558  0.089683514 
   33400   -952.34643    41.855136   -910.49129    1499.0992    1586.0531    2.1924722    16.320297  0.092874833 
   33500   -949.66533    42.172406   -907.49292    1510.4626   -1752.3293    2.1811462    18.977522   0.10714928 
   33600   -948.67762    45.958949   -902.71867    1646.0829   -2335.8875    2.1730802    17.644181   0.10076159 
   33700   -948.90285    36.726563   -912.17629    1315.4123    6636.8438    2.2025428    15.802284   0.11019404 
   33800   -950.12529    39.611372   -910.51392    1418.7357   -1690.3065    2.1836693    15.641683    0.1092164 
   33900   -949.62821    41.383702   -908.24451    1482.2141   -6432.2235    2.1696063    17.282203    0.1015016 
   34000   -950.94697    46.360226   -904.58675    1660.4552   -607.02776    2.1881997    15.598885   0.11389917 
   34100   -953.53918    43.834235   -909.70495    1569.9833    8914.2534    2.2144142    15.050383   0.10594085 
   34200   -954.39825    42.108591   -912.28966     1508.177   -5738.7805    2.1836508    14.793815   0.10750154 
   34300    -949.9264    39.927118   -909.99928    1430.0446    -8306.097    2.1638701    19.235809   0.10461816 
   34400   -950.91217    43.557871   -907.35429     1560.085    1194.7678    2.1886595    16.197138   0.10265942 
   34500   -954.48048     41.19407   -913.28641    1475.4222    10395.761    2.2203021    17.876725  0.094419445 
   34600   -950.79889    36.961318   -913.83758    1323.8204    2862.5165    2.1943776     17.04909   0.10344765 
   34700   -948.32959    39.353885    -908.9757    1409.5135   -8192.7712    2.1663486    16.326521    0.1231864 
   34800   -949.62872    41.207282   -908.42144    1475.8954   -720.05328    2.1812246    15.430625   0.10472975 
   34900   -956.02531    39.995316      -916.03    1432.4872    9200.5588    2.2224792    15.981384   0.11120387 
   35000   -951.23749    40.687113   -910.55037    1457.2648    2474.5228    2.1992913    15.677011   0.10791079 
   35100     -950.895     42.44563   -908.44937    1520.2485   -7644.3157    2.1708645     17.12393   0.12020486 
   35200   -953.22555    42.839478   -910.38608    1534.3547     -7037.33    2.1750986    18.294537   0.11430784 
   35300   -955.62617    39.415859   -916.21031    1411.7331    5444.0175    2.2151564    17.095196  0.093483177 
   35400   -950.44404    42.315116   -908.12892     1515.574    7487.4357    2.2019099    16.229591   0.10549442 
   35500   -951.87428    43.687985   -908.18629    1564.7452   -2695.2171     2.181146     17.79439  0.098980961 
   35600   -948.06011    37.448397   -910.61171    1341.2658   -6809.9188    2.1660029    16.811668   0.11394689 
   35700   -954.35061    44.033298   -910.31731     1577.113   -1656.2231    2.1900637    15.936589    0.1085856 
   35800   -947.79434    46.002701   -901.79164    1647.6499    12097.929    2.2092895    15.547205   0.11155698 
   35900   -948.72539    41.488096   -907.23729    1485.9531    1061.0501    2.1860015    14.737748   0.12257686 
   36000   -951.18145     40.41937   -910.76209    1447.6752   -15604.833    2.1490647    15.390484   0.10794247 
   36100   -948.69054    42.043424   -906.64712     1505.843    -3277.168    2.1739187    15.702718   0.10410389 
   36200   -947.79151    46.804058   -900.98746    1676.3516    10204.522     2.207292    16.949767   0.11734826 
   36300   -950.30601    41.376933   -908.92908    1481.9717    7138.0522    2.2060682    16.607735   0.10903826 
   36400   -951.68083    41.826385   -909.85445    1498.0694   -7718.4149    2.1705197    16.129864   0.11057957 
   36500   -946.18319    41.549507   -904.63368    1488.1527   -4136.4379    2.1689307    17.012922   0.10547732 
   36600   -948.89142    47.318363   -901.57306    1694.7722    2931.1935    2.1850438    15.715125   0.10760468 
   36700   -951.40784    42.212298   -909.19554    1511.8914    6574.5133    2.2037887    15.715233   0.10509824 
   36800   -949.07665     39.82117   -909.25548    1426.2499    1255.6264    2.1852526    16.363742   0.10871104 
   36900   -949.40088     42.61339   -906.78749    1526.2571     -5671.07    2.1688384    18.216646   0.12523345 
   37000   -947.09753     48.91305   -898.18448    1751.8881    -3385.167    2.1679007      17.7167    0.1177294 
   37100   -953.55421    45.792247   -907.76196    1640.1122    8110.9357    2.2097672    17.690856  0.092862855 
   37200     -952.504    43.223261   -909.28074    1548.1005    663.17491    2.1913483    15.342081   0.10210504 
   37300   -948.79937    38.598641   -910.20073    1382.4633   -5595.1774    2.1684326    17.344759   0.10556554 
   37400   -950.22513    38.382064   -911.84307    1374.7063   -2101.8372    2.1822611    16.651691   0.11048751 
   37500   -955.26803    35.798864   -919.46917    1282.1855    11578.526    2.2279584    18.918595   0.10748696 
   37600   -952.37297    39.942489   -912.43048    1430.5951    3232.4923    2.1975321    16.738085  0.091009333 
   37700   -952.25665    42.545375   -909.71128    1523.8211   -5546.6267     2.175939    17.204817   0.10106613 
   37800    -949.8304    42.180208    -907.6502    1510.7421   -1659.1923    2.1797178    16.324244   0.10602327 
   37900   -954.05927    38.974022   -915.08524    1395.9081    1744.3047    2.2002928    16.170639   0.10174566 
   38000   -951.31028    38.143001   -913.16727     1366.144    3241.3644    2.1978727    18.910391   0.12099861 
   38100   -948.74501     40.28607   -908.45894    1442.9009    462.49131    2.1861674    13.777493   0.11341707 
   38200   -949.43317    40.872564   -908.56061     1463.907    -57.59584    2.1823851    14.013571   0.10381489 
   38300   -954.25879    37.429757   -916.82903    1340.5982    2990.3977    2.2025127    16.601328  0.094085467 
   38400     -953.933    43.846753   -910.08624    1570.4317   -1709.6021    2.1884396    15.276797   0.11009973 
   38500   -951.04594    42.983343    -908.0626    1539.5075    420.92212    2.1860762     15.80848   0.10207003 
   38600   -951.02914     39.35208   -911.67706    1409.4488   -279.73157    2.1895662    16.307502   0.10859606 
   38700   -957.96412    41.580155   -916.38396    1489.2504    -705.7197    2.2001989    15.746171   0.10278172 
   38800   -949.09074    41.352998   -907.73774    1481.1144   -842.59071    2.1820214    16.691483   0.10803216 
   38900    -951.7902    42.878935   -908.91126     1535.768   -1347.5496    2.1842708     15.29807   0.11491255 
   39000   -956.28383    43.736372   -912.54745    1566.4782    718.76789    2.1993547    16.877743  0.097412724 
   39100   -956.91275    38.723935   -918.18882    1386.9509    1670.1002    2.2094242    18.302818   0.10130899 
   39200   -952.55022    43.856333   -908.69388    1570.7748   -6555.6063    2.1736628    16.916686   0.10847534 
   39300   -952.93935    43.917724   -909.02163    1572.9736   -4043.4493    2.1800751    17.333819  0.097437297 
   39400   -953.22933    44.199508   -909.02982    1583.0661    3805.2815    2.2032938    14.698224   0.11282233 
   39500   -955.73287     40.20979   -915.52308    1440.1689    2577.0934    2.2088698    14.681285   0.11611848 
   39600   -956.32088    41.361741   -914.95914    1481.4276   -6751.9849    2.1804558    18.268825  0.084164304 
   39700   -949.57106    39.507129   -910.06393    1415.0021   -3115.9574      2.17775    18.363778   0.09984497 
   39800    -950.2418    42.025758   -908.21604    1505.2102    3583.3446    2.1994737    16.192783   0.11379062 
   39900   -952.44599    41.680041   -910.76595    1492.8279    5394.4983    2.2062803    17.837847   0.10858223 
   40000   -953.76133    37.340955   -916.42037    1337.4176   -2577.8035    2.1902875    13.592371   0.10867263 
   40100   -949.34009    39.256304   -910.08379    1406.0184   -6993.6423    2.1694681    17.804846   0.11379254 
   40200   -949.68265    41.628119   -908.05453    1490.9683    2186.1301    2.1908216    16.142483   0.11889871 
   40300   -951.41722    38.947833   -912.46938    1394.9701     13777.37    2.2217758    16.364189    0.1134443 
   40400   -955.50722    40.058965   -915.44826    1434.7669    743.14981    2.2004823    16.017749   0.11112536 
   40500   -952.02184    43.118181   -908.90366    1544.3369   -13314.553     2.155339    17.055959   0.11356945 
   40600   -951.39077    42.602957   -908.78781    1525.8834   -6779.7898    2.1752023    15.520374   0.10586476 
   40700   -951.23265    37.625035   -913.60762    1347.5923    14524.355    2.2271321    16.935167   0.11075562 
   40800   -954.48128     39.81336   -914.66792    1425.9702    8466.9779    2.2196313    15.965407   0.10839923 
   40900   -949.25398    40.444072   -908.80991      1448.56   -9500.4724    2.1635961    17.648692   0.11396279 
   41000   -951.75162    42.356748   -909.39487    1517.0651   -7644.3889    2.1674646    17.967161   0.10465378 
   41100   -953.68856    40.129358    -913.5592    1437.2881    4108.8138    2.2023361    16.623461  0.092405802 
   41200   -958.51687    41.589455   -916.92742    1489.5835    5173.1407    2.2170724    17.285866  0.099475161 
   41300   -951.26294    42.431733   -908.83121    1519.7508   -2578.2233    2.1779243    16.336579   0.12349414 
   41400   -950.62196    41.398956     -909.223    1482.7605   -5135.5496    2.1724254    16.637622   0.11670995 
   41500   -950.32519    40.817965   -909.50722    1461.9515    1048.5238    2.1920221    16.650832   0.11547181 
   41600   -954.58173    36.609447   -917.97228    1311.2176    4113.2337    2.2091109    15.494041   0.10141585 
   41700   -957.05276    42.537981   -914.51478    1523.5562   -4358.0599     2.186468    17.739091   0.10284658 
   41800   -953.16705    43.077668   -910.08938    1542.8858   -3877.5045    2.1776995    17.655509   0.10172094 
   41900   -948.10085    40.297238   -907.80361    1443.3009    2965.0834    2.1892231    17.781287   0.11113064 
   42000   -951.54314    39.228761   -912.31438     1405.032    4111.4271    2.1987475    19.750066   0.10823003 
   42100   -952.24276    37.310045   -914.93272    1336.3105    172.18414    2.1924488    16.995547   0.10624041 
   42200   -950.57516    41.766757   -908.80841    1495.9338    -3125.424    2.1781896    15.731266    0.1045977 
   42300   -951.62616     43.25926    -908.3669    1549.3898   -1019.6125    2.1865364    16.349668   0.11011254 
   42400   -956.88872    41.133041   -915.75568    1473.2364    5993.5831    2.2145788     15.17426   0.10438762 
   42500   -951.97295    40.839043   -911.13391    1462.7064    1437.8362    2.1918086    14.833209   0.12243127 
   42600   -950.44169      42.0742   -908.36749    1506.9453   -6816.7935    2.1709756    18.405444   0.12279126 
   42700   -951.03626    40.997999   -910.03826    1468.3996   -2800.0727    2.1824605    18.450854   0.11322937 
   42800   -954.72491    38.452707    -916.2722    1377.2365    7750.7802    2.2175099    15.953591   0.10313951 
   42900   -952.32517    42.464094   -909.86108    1520.9099    3188.0293     2.201316    15.181501  0.097092458 
   43000   -949.37469    40.979035   -908.39566    1467.7204   -3507.7088    2.1762113      16.2805   0.10298184 
   43100   -949.56407    39.516574    -910.0475    1415.3404   -6993.6036    2.1697899     17.59734   0.10933916 
   43200   -950.74677    39.614757   -911.13201    1418.8569    2298.8265    2.1979486      15.2627   0.11858035 
   43300   -946.96919    45.374225   -901.59496    1625.1402    11760.815     2.203187    15.617038   0.11133485 
   43400   -946.16086    41.233319   -904.92754     1476.828    5389.7954    2.1900327    15.186653   0.11507694 
   43500   -952.73523    43.420501   -909.31473    1555.1649   -11987.088    2.1616096    17.183821   0.11752614 
   43600   -951.64621    41.262959   -910.38325    1477.8895   -6015.3186    2.1765071    17.591822   0.12269559 
   43700   -950.83923    44.149786   -906.68944    1581.2852    11273.692    2.2137308    17.433662   0.11546334 
   43800   -949.56646    46.870933   -902.69552    1678.7468    4357.7223    2.1908236    16.626812   0.10979499 
   43900   -950.68354    41.502207   -909.18134    1486.4585   -9985.8934    2.1646301    17.515164   0.10646842 
   44000   -951.48538    41.510809   -909.97457    1486.7666   -3970.7313    2.1775259    18.080123   0.10505148 
   44100   -949.73827     43.47307    -906.2652    1557.0477    4274.3278    2.1968803    18.227259   0.11369635 
   44200   -947.33031     44.65887   -902.67144    1599.5188    526.51145    2.1793503    17.091486   0.10532188 
   44300   -951.87438       42.262   -909.61238    1513.6716   -4113.6236     2.179171    15.524719   0.11161511 
   44400   -950.18598    40.603075    -909.5829    1454.2549   -1240.2196    2.1838582    16.666781   0.11456791 
   44500   -947.41238    43.917396   -903.49498    1572.9619    2564.2883    2.1883037    17.637459   0.11053413 
   44600   -951.44187    46.957558   -904.48431    1681.8494   -1126.5871    2.1825188    16.578537   0.10956344 
   44700   -948.56381    38.653742   -909.91007    1384.4369   -3513.5758    2.1749108    18.028169   0.11072936 
   44800   -948.61403     39.52545   -909.08858    1415.6583   -1618.7595    2.1850031    18.331819   0.10990721 
   44900   -947.75042    44.111255   -903.63916    1579.9052    7582.4688    2.1957577     15.03525   0.11355194 
   45000   -946.35079    43.817374   -902.53341    1569.3794    2646.1802    2.1848371    15.694379   0.10983617 
   45100   -949.51301    40.271693   -909.24131     1442.386   -6997.7469    2.1662808    18.840165   0.10859851 
   45200   -954.20235    44.539318   -909.66304    1595.2369   -5454.1157    2.1811441    16.132919   0.10748347 
   45300   -954.54826    48.033541   -906.51472    1720.3873    9294.6353    2.2161055    14.963798   0.11082687 
   45400   -945.94039    46.854843   -899.08555    1678.1706    5505.7874    2.1887419    15.181488   0.11312568 
   45500   -946.10536    38.165989   -907.93937    1366.9673   -8843.7038     2.158283    15.517722   0.11028164 
   45600   -950.73364    41.051716   -909.68193    1470.3236   -7994.7851    2.1688671    18.700435   0.11264061 
   45700   -948.68206    41.243826   -907.43824    1477.2043    10705.085    2.2104929     18.17501   0.10648837 
   45800   -946.97176    48.190244   -898.78151    1725.9998    6823.8858    2.1926151    18.134341   0.11974597 
   45900   -949.42305    43.088681   -906.33437    1543.2803   -4170.4279    2.1723474    15.365939   0.11694337 
   46000   -949.01565    39.503693   -909.51196     1414.879   -7032.9238    2.1698332    18.151458   0.11035975 
   46100   -949.87863    40.861967   -909.01666    1463.5275    437.58448    2.1901359    16.150596   0.11330583 
   46200   -949.07824    48.577214   -900.50103    1739.8596    2838.0376    2.1891339    18.588023   0.12210182 
   46300   -950.71973    44.863691   -905.85604    1606.8547    1290.0621     2.188824    14.736501   0.11099436 
   46400   -951.86626    42.059491   -909.80677    1506.4184   -4480.9573    2.1769304    15.353621   0.11408717 
   46500   -952.34562    43.476063   -908.86956    1557.1549   -1569.0433     2.185706    17.705405   0.10280916 
   46600   -948.14112    47.737483   -900.40364    1709.7835    4316.5452    2.1899641    18.291865    0.1118356 
   46700   -948.93829    42.064122   -906.87416    1506.5843    3106.1668    2.1953066    19.457337   0.12523346 
   46800   -949.14978    39.236966   -909.91281    1405.3258   -4111.6757    2.1745496    17.838047   0.12194642 
   46900   -950.79209    42.363944   -908.42815    1517.3229   -5316.9405    2.1772692    14.222688    0.1220489 
   47000   -945.69347      45.4007   -900.29277    1626.0884    4717.2817    2.1888181    16.211001   0.13088407 
   47100   -950.72441    43.220458   -907.50396    1548.0001    9001.0522    2.2105275    17.553948   0.12705664 
   47200    -953.2324    43.417688   -909.81471    1555.0641   -8197.5356     2.172922    15.814079   0.11418132 
   47300   -950.07058    40.907303   -909.16327    1465.1512   -9041.4317    2.1643746    17.147658   0.10902686 
   47400   -949.56584    43.015315   -906.55052    1540.6526    3655.6912    2.1977945    16.685401   0.11723029 
   47500   -946.54172    46.351654   -900.19007    1660.1481    5240.5536    2.1930005    18.168482   0.11508806 
   47600   -947.74261    40.243412    -907.4992    1441.3731   -2472.1975    2.1767013    15.410253   0.11432198 
   47700   -950.74833    40.732179   -910.01616    1458.8789   -5818.6583    2.1762684    16.038354   0.10522958 
   47800   -948.69891    39.972838   -908.72607    1431.6821    4150.9493    2.1916669    16.085153   0.10809564 
   47900   -950.67194    49.733349    -900.9386    1781.2682   -3359.3562    2.1752935    15.638148   0.11819416 
   48000   -949.39804    40.554536    -908.8435    1452.5164    2595.3719    2.1898492    16.636094   0.10495142 
   48100   -950.36368    40.197569   -910.16611    1439.7312    611.37501    2.1886167    15.798019   0.11830817 
   48200   -948.06248    43.552222   -904.51026    1559.8827    764.10945    2.1800984     16.96147   0.10220068 
   48300   -949.61355    45.061892   -904.55166    1613.9535   -1364.9296     2.177465    15.462837   0.10533317 
   48400   -949.66949    39.161305   -910.50819    1402.6159    372.39008    2.1874368    16.936658   0.10566097 
   48500   -948.73879    40.327524   -908.41127    1444.3857    3052.9451    2.1924799    15.430849   0.10864304 
   48600    -949.5872    47.249603   -902.33759    1692.3094   -1378.4134     2.179334    15.887692   0.12295411 
   48700   -946.38243     38.39126   -907.99117    1375.0357   -1471.1046    2.1767329    14.782487   0.11227376 
   48800   -951.50876    41.115569   -910.39319    1472.6106   -7266.9576    2.1718272    17.440863   0.11940902 
   48900   -952.35143    44.002577   -908.34885    1576.0127    1817.9571     2.194326    16.664798   0.12075581 
   49000   -950.10943    42.719016   -907.39042    1530.0402    10868.342    2.2096267    15.459008   0.11633735 
   49100   -953.70685    37.144799   -916.56205     1330.392   -137.27193    2.1929439    16.523351   0.10222538 
   49200   -952.75041    40.567191   -912.18322    1452.9697   -16472.803    2.1507264    16.604463   0.10927998 
   49300   -951.76949    42.804904   -908.96458    1533.1164   -1552.8828     2.184697    15.624799   0.10807864 
   49400   -953.19663    46.234533    -906.9621    1655.9533     9728.161    2.2169836    15.532997    0.1045243 
   49500   -953.32007    39.390138   -913.92993    1410.8119     785.0377    2.1946815    16.884312  0.095552288 
   49600   -952.63928    38.950765   -913.68852    1395.0751   -6901.3112    2.1736597     17.57246  0.099082238 
   49700   -953.76189    44.826838   -908.93506    1605.5348   -3145.8523    2.1846936    16.058049   0.11873422 
   49800   -949.00535    41.382839   -907.62251    1482.1832    6690.7369    2.1999748    16.412147    0.1156359 
   49900   -956.32316     40.23825   -916.08491    1441.1882     1070.808    2.2039275    14.940111   0.11718848 
   50000   -951.89132    41.090611   -910.80071    1471.7167    -5616.439     2.175751     16.54486   0.11519808 
   50100   -951.51679    43.480519   -908.03627    1557.3145   -2561.1913    2.1825802    15.218358   0.10694496 
   50200   -951.53035     40.45363   -911.07672    1448.9023    5108.5242    2.2010839    17.573043   0.11134464 
   50300   -953.52243    37.179754   -916.34267     1331.644    3964.0584    2.2076658    18.351532    0.1029799 
   50400   -947.36831    39.899172   -907.46914    1429.0436   -5944.1308    2.1692762     16.35625   0.12418534 
   50500    -950.0624    41.056534   -909.00586    1470.4962   -5113.1827    2.1767556     15.61814   0.11217256 
   50600   -954.58716    42.926999   -911.66016    1537.4894    5069.2075    2.2070034    14.994602   0.10517041 
   50700   -955.20373    38.339742   -916.86399    1373.1905    9222.3674    2.2206096    16.790291   0.11023991 
   50800   -958.10787    39.284702   -918.82317    1407.0356    -6095.698    2.1923227    15.259647   0.11136239 
   50900   -952.38437    39.914171    -912.4702    1429.5809   -12406.016    2.1613032    15.985507   0.11955259 
   51000   -951.32501    41.105657   -910.21936    1472.2556    1057.0651    2.1925097    14.815289   0.11308307 
   51100    -948.9297     43.09916   -905.83054    1543.6556    17545.016    2.2279048    13.969622   0.12418617 
   51200   -951.02103    39.301142   -911.71989    1407.6244    2862.8312    2.1937121    16.949196    0.1107592 
   51300   -953.05909    38.419542   -914.63955    1376.0487   -13444.218    2.1587246    15.981033   0.10242558 
   51400   -950.89701    42.161711    -908.7353    1510.0796    -6164.635    2.1755534    18.290395   0.11702473 
   51500   -952.75649    44.821413   -907.93508    1605.3405    4484.9415    2.2043447    16.905622   0.11307385 
   51600   -953.49399    38.124734   -915.36926    1365.4897    3894.3227    2.2057571    15.489884   0.11348044 
   51700   -951.70173    41.906387   -909.79534    1500.9348   -6176.9739    2.1764781    15.522627   0.11958286 
   51800   -950.72972    42.914735   -907.81499    1537.0502   -2466.8495    2.1802732    14.817269   0.11726003 
   51900   -952.93736    41.958221   -910.97914    1502.7913    2802.1876    2.2008838    14.685158   0.11775936 
   52000   -955.58782    40.475458   -915.11237    1449.6841    2619.0263    2.2056101    16.383784   0.10737202 
   52100   -949.22428    43.574423   -905.64985    1560.6778   -5171.0091    2.1697313    15.210087    0.1162447 
   52200   -950.84842      42.2529   -908.59552    1513.3456   -1423.9515    2.1859063    18.529896   0.11512318 
   52300   -955.87639    45.160881   -910.71551     1617.499    2510.4862    2.2044378    14.920717   0.10096081 
   52400   -947.28492    41.740265   -905.54465    1494.9849    6202.7452    2.1955899     14.85167   0.10803018 
   52500   -947.26812    42.769466   -904.49865    1531.8472   -5461.2864    2.1662239    15.606951   0.11704171 
   52600   -950.34304    39.845078   -910.49796    1427.1062   -7902.3867    2.1668476    17.230978   0.11070655 
   52700   -951.05511    42.455783   -908.59933    1520.6122    5083.4596     2.203744    14.885278   0.12505583 
   52800   -946.43731    46.092556   -900.34475    1650.8682    13901.778    2.2133335    14.517506   0.12436553 
   52900   -951.20781    43.084253   -908.12356    1543.1217   -2515.7785    2.1819747    14.524126   0.11895425 
   53000   -949.78813    39.162544   -910.62559    1402.6603   -12765.334    2.1523978     17.00511   0.10970086 
   53100   -947.96512    42.032793   -905.93233    1505.4622   -1106.0964     2.183281    17.811656   0.10855517 
   53200    -949.5432    44.717368   -904.82583     1601.614    8516.2091    2.2084219    16.587422   0.11169329 
   53300   -955.54862    43.216982   -912.33164    1547.8756    2969.1192    2.2041002    17.099419  0.098174447 
   53400   -950.80302     41.47616   -909.32686    1485.5256   -4971.2521    2.1764081    15.484089   0.10972287 
   53500   -949.38713    43.074085   -906.31304    1542.7575   -3891.3662    2.1785088    15.466736   0.11522762 
   53600   -954.90867    39.876072    -915.0326    1428.2163     3276.674    2.2094143    15.286395   0.10745801 
   53700   -952.29497    41.291883   -911.00309    1478.9255    1306.7933    2.1965401    16.028263   0.11507077 
   53800   -952.93105    45.443313   -907.48774    1627.6147   -4850.5359    2.1777364     15.71143   0.10962813 
   53900   -951.56439    40.092449   -911.47194    1435.9661   -2570.7757    2.1824205    14.589308   0.10989446 
   54000   -955.55035    41.320533   -914.22982    1479.9516    2534.8865    2.2072214     15.68019   0.11076882 
   54100   -948.20733    41.485565   -906.72176    1485.8625    6057.8514    2.1967209    16.663328   0.11016947 
   54200    -949.4177    39.793401    -909.6243    1425.2553   -4187.8609    2.1743704    16.334854   0.10710913 
   54300   -952.90485    37.522748    -915.3821    1343.9288    -8092.633    2.1745844    15.984923   0.10164675 
   54400    -951.5177    42.465861   -909.05184    1520.9731    5691.1524    2.2000106    14.531836   0.10617752 
   54500   -948.86498    42.617769   -906.24721    1526.4139    15439.673    2.2226059    13.305429   0.11230584 
   54600   -952.19552     41.01748   -911.17804    1469.0974   -3584.1441    2.1828037    16.123139   0.10055818 
   54700   -951.64076    43.577274   -908.06348    1560.7799   -15136.116    2.1510372    15.061336   0.10924241 
   54800   -948.05138    44.284253   -903.76713    1586.1013   -1918.9991    2.1761493    14.575369   0.11263025 
   54900   -953.64856    44.760424   -908.88813    1603.1561    6280.9889    2.2085838    17.460375  0.096282059 
   55000   -951.71147    40.909248   -910.80222    1465.2209    2721.5566      2.19754    15.066813   0.11594448 
   55100   -942.83749    40.567809   -902.26969    1452.9918   -1849.6107    2.1669413    17.303184   0.12621243 
   55200   -949.20294    40.537232   -908.66571    1451.8966   -889.32228    2.1861463    18.713201   0.11851339 
   55300   -950.85233    40.365587   -910.48674     1445.749    1317.0223    2.1964877    15.481106   0.11633201 
   55400   -951.65102     45.19822    -906.4528    1618.8363    198.39071    2.1895951    15.339745    0.1083232 
   55500   -951.42928    48.975258   -902.45402    1754.1161   -5303.2537    2.1724973    16.937449   0.11462185 
   55600   -951.87179    40.274698   -911.59709    1442.4936    1196.4409    2.1914942    17.059245   0.11340456 
   55700   -949.64867    40.546547   -909.10212    1452.2303    4569.1847    2.2006486    18.922866   0.11878762 
   55800   -951.77726     45.65716    -906.1201    1635.2739   -892.17366    2.1883726    15.762968    0.1078482 
   55900   -946.33715    45.238185   -901.09897    1620.2677   -7818.1489    2.1563503    17.146098   0.12004363 
   56000   -952.40758    41.118477    -911.2891    1472.7147   -787.29191     2.193926    16.363994   0.11375378 
   56100   -949.41747    39.399168    -910.0183    1411.1353    9259.9558    2.2080599    17.885294   0.12261617 
   56200   -950.10773    41.693662   -908.41407    1493.3158    1719.8995    2.1912466     16.70449   0.11759225 
   56300   -949.40807    41.864929   -907.54314    1499.4499   -11462.353    2.1599389    16.115271   0.11315864 
   56400   -954.48057    37.687068   -916.79351    1349.8141   -1866.6372     2.193579    13.650987   0.11150357 
   56500   -954.27288     43.38255   -910.89033    1553.8056     9491.971    2.2171773    15.094743  0.097558886 
   56600   -949.98894     42.46989   -907.51905    1521.1174    5082.8117     2.198823    16.585207   0.10505364 
   56700   -951.09935    41.129852    -909.9695    1473.1221   -11250.035    2.1613211    17.161937   0.11052456 
   56800   -955.50439    39.206571   -916.29782    1404.2372   -5794.4135    2.1850952    14.715696      0.11373 
   56900   -949.66043    41.349116   -908.31131    1480.9754    8270.3845     2.205637     17.60973   0.11665243 
   57000   -948.85382    40.653203   -908.20062    1456.0503    8134.2655      2.20643    16.775337    0.1247739 
   57100    -951.5613     37.45059   -914.11071    1341.3443   -4250.0553    2.1834792    18.356638   0.12588916 
   57200   -954.30414     41.75031   -912.55383    1495.3447   -6322.0132     2.180237    14.905646   0.10348086 
   57300   -948.48047    41.176066   -907.30441    1474.7773    2346.1134    2.1887291    18.527536   0.12891665 
   57400   -951.29231    42.643101   -908.64921    1527.3212    1519.2956    2.1983151    14.626501   0.12581057 
   57500   -954.18115    39.237407   -914.94374    1405.3416   -1158.7887    2.1932713    16.362739   0.10177763 
   57600   -949.77317     38.38657    -911.3866    1374.8677    -828.9676    2.1860741    18.094396    0.1154808 
   57700   -946.93351    39.282755   -907.65076    1406.9658    3802.7166    2.1914882    16.462901   0.10932756 
   57800   -952.49387    42.508363   -909.98551    1522.4954   -98.945952    2.1927125    17.090097   0.10477566 
   57900   -953.21957    38.227987   -914.99158    1369.1879   -1288.5342    2.1923366    16.786973    0.1107659 
   58000   -953.71996    40.385844   -913.33412    1446.4745    260.91134    2.1954152    17.303195    0.1031888 
   58100    -953.4304    45.271333   -908.15907     1621.455    259.03988    2.1919905    16.636573   0.11498134 
   58200   -954.98082    45.781462   -909.19936    1639.7259   -4419.6488    2.1822819    15.812994   0.11262714 
   58300   -951.91816    41.239456    -910.6787    1477.0478   -1341.5903    2.1855247    13.271263   0.11080927 
   58400   -957.60995    38.342805   -919.26715    1373.3002    572.25923    2.2106683    14.382556   0.12209041 
   58500   -951.88361    40.147291   -911.73632    1437.9304    732.33771    2.1899086    16.426244   0.10813412 
   58600   -949.20562    39.915944   -909.28967    1429.6444   -896.48359    2.1838157    15.975279   0.10620492 
   58700   -951.33329    42.989973   -908.34331    1539.7449   -35.076081    2.1858203    16.510994   0.11128934 
   58800   -953.10459     39.40911   -913.69548    1411.4914    627.55992    2.1949698    17.370799  0.099522844 
   58900   -953.64156     38.74449   -914.89707    1387.6871     1531.116     2.196437    16.840497   0.10478006 
   59000   -952.07064    42.625428   -909.44522    1526.6882    1426.8869    2.1947314    16.975467   0.11860314 
   59100   -953.69281    45.433043   -908.25977    1627.2468   -1404.7528    2.1887229    17.289492   0.11180432 
   59200   -953.44952    40.293631   -913.15589    1443.1718   -5102.5819    2.1814322    15.315059   0.10451523 
   59300   -953.42436    38.737703   -914.68665     1387.444   -929.85275    2.1913381    15.641469   0.11054126 
   59400   -951.60636    43.209025   -908.39733    1547.5906    5409.6578    2.2009127    16.547785   0.11172217 
   59500    -948.5027    40.049266   -908.45343    1434.4195    3950.0991    2.1934522    14.831628    0.1190965 
   59600   -953.03647    37.506424   -915.53005    1343.3441   -5911.1098    2.1799167    17.882951    0.1176547 
   59700   -952.38457    39.968908   -912.41566    1431.5413   -5188.1213    2.1790088     16.45922   0.10033753 
   59800    -953.9429    46.163403    -907.7795    1653.4057    5507.8822    2.2049245    17.003021  0.099993923 
   59900    -949.6124    40.239569   -909.37283    1441.2354    6871.1169    2.2030808     16.57029   0.11905088 
   60000   -956.41662    40.457624     -915.959    1449.0454   -7537.6094    2.1816476     15.97695   0.10160471 
   60100   -950.54091    39.246776   -911.29414    1405.6772   -6588.8628    2.1736408    15.687324   0.12891375 
   60200   -951.37342    43.522674   -907.85075    1558.8244    6539.5849    2.2040261    15.899013   0.11882867 
   60300   -954.07616    44.713306   -909.36285    1601.4685    3899.8694    2.2024041    13.219445   0.10050067 
   60400   -954.38404    41.064392   -913.31965    1470.7776   -6134.7006    2.1793575    16.656173   0.10977095 
   60500   -956.01314    37.243445    -918.7697    1333.9251   -4279.5182    2.1880265    17.520282  0.098731958 
   60600   -949.65439    39.334541   -910.31985    1408.8206    3023.1782    2.1942369    19.041611   0.10417146 
   60700   -949.21855    40.285536   -908.93301    1442.8818     6939.519    2.2001232      16.3526   0.10947039 
   60800   -948.41612    39.303018    -909.1131    1407.6916    1542.9076    2.1849294    15.698822   0.11310132 
   60900   -953.07643    47.957649   -905.11878    1717.6691   -9855.0668    2.1632913      17.2697   0.11679148 
   61000    -946.2887    44.743404   -901.54529    1602.5465   -485.48709    2.1736622    16.185294   0.10697573 
   61100   -950.94192    43.885373   -907.05654    1571.8149    7199.7109    2.2061368    16.201707   0.11105889 
   61200   -952.23352    42.779682   -909.45383    1532.2131     4288.784    2.1987199    15.754906   0.10334522 
   61300   -949.48292    37.999378   -911.48354    1360.9999   -8258.2034    2.1640577    15.066462   0.11994648 
   61400   -948.58461    44.877287   -903.70732    1607.3417   -4130.5874    2.1676639    18.556406   0.10868878 
   61500    -948.2341    43.907158   -904.32694    1572.5952    10758.559    2.2061739    17.544534   0.10482415 
   61600   -948.22681    39.517606   -908.70921    1415.3774    6396.6671    2.1981796    14.676934  0.097422715 
   61700   -951.26409    40.287093     -910.977    1442.9376    -7538.777    2.1732891    17.534714   0.10481275 
   61800    -947.4745    44.508758   -902.96574    1594.1423   -5999.4404    2.1659864    16.874272   0.11615029 
   61900   -949.99296    44.467551   -905.52541    1592.6664    6463.1528    2.1997515    15.849002    0.1087591 
   62000   -950.93786    41.301213   -909.63665    1479.2597    5291.5807    2.1999625    13.774277   0.11603082 
   62100   -953.25008    43.756242   -909.49384    1567.1899   -6817.7522    2.1764313    13.988842   0.10194475 
   62200   -944.61046    43.751286   -900.85917    1567.0124    -4345.647    2.1589724    15.722521   0.11526664 
   62300   -952.46925    43.556558   -908.91269     1560.038    5781.4966    2.2037668    15.060788   0.10389288 
   62400   -953.40376    43.503593   -909.90017     1558.141    2517.0785    2.2004175    17.395663   0.10707538 
   62500   -948.91287    40.963418   -907.94945    1467.1611   -3934.9859    2.1740096    18.437632   0.10048393 
   62600    -944.1542     43.32119   -900.83301    1551.6079   -5039.2908    2.1527617    15.283958   0.10396498 
   62700   -951.57652    41.380455   -910.19607    1482.0978    6123.0163    2.2049443    17.191004   0.10314764 
   62800   -948.69396    39.046496   -909.64746    1398.5039    10014.003    2.2099507    16.901037   0.11389174 
   62900   -952.33777    43.478679   -908.85909    1557.2486   -8884.1976    2.1689888    16.455795   0.11087413 
   63000   -947.64901    43.005736   -904.64328    1540.3095   -15596.924    2.1387036    15.953283   0.10874057 
   63100   -953.77034    40.063889   -913.70645    1434.9432    6694.1671    2.2086997    14.040567   0.10273074 
   63200   -954.33647    42.696836   -911.63963    1529.2458    15877.468    2.2305677     16.00452   0.10225893 
   63300   -948.91268    39.735403   -909.17727    1423.1781   -715.67743    2.1799505    15.868938   0.10107986 
   63400   -950.18611    41.790987   -908.39512    1496.8016   -11143.492    2.1571333    16.875916   0.11048971 
   63500   -957.29902    40.902079   -916.39694    1464.9641   -1128.0873    2.1991331    16.466766  0.094777695 
   63600   -950.87737    39.361848   -911.51553    1409.7986    6997.4301    2.2084964    16.402353   0.10344031 
   63700   -951.38443    43.255898   -908.12853    1549.2694    548.85486    2.1910675    15.156723   0.11129093 
   63800   -953.34109    43.049876   -910.29122    1541.8904   -5359.3685    2.1784204     16.97526   0.10152041 
   63900   -955.91546    38.498785   -917.41667    1378.8869    -2461.819    2.1976654    17.724289   0.10299768 
   64000   -949.84675    40.672267   -909.17448    1456.7331    481.89091    2.1890822     15.97326   0.12601965 
   64100   -947.49609    39.153409   -908.34268    1402.3331    7377.2837    2.1977501    13.287938   0.12511358 
   64200   -951.61426    41.146268   -910.46799    1473.7101    1504.7224    2.1950813    15.621216   0.11238345 
   64300   -955.58288    37.374014   -918.20886    1338.6016   -4361.3346    2.1931721    17.815583   0.10722843 
   64400   -953.50354    42.597813   -910.90573    1525.6992   -6460.2337    2.1778849     14.88259   0.10112969 
   64500   -953.29702    44.557625    -908.7394    1595.8925    3822.2761    2.2035959    16.353663    0.1099406 
   64600   -956.00666    47.448651   -908.55801    1699.4386    5648.2733    2.2118887    16.767304  0.098665767 
   64700   -953.45638    45.501955   -907.95443     1629.715   -10088.574    2.1676926    16.128101   0.10406048 
   64800   -943.73646    46.041831   -897.69462    1649.0514   -17837.599    2.1266712    18.143664   0.13283931 
   64900   -951.72004    45.437538   -906.28251    1627.4078    6225.3294    2.2037655    16.096768   0.10668966 
   65000   -951.33926    43.250487   -908.08878    1549.0756     14442.99    2.2203242    16.621969   0.11371598 
   65100   -949.59419    38.730443   -910.86375     1387.184   -1026.5036    2.1856594    16.561323   0.12052206 
   65200    -945.3578    42.386978   -902.97082    1518.1478   -6924.1038    2.1612859    16.189384   0.13355614 
   65300   -950.35516    44.624298   -905.73086    1598.2805    1441.1785    2.1849917    18.683055   0.11263222 
   65400   -952.84916    43.013937   -909.83523    1540.6032     3318.716    2.2000872    16.902051   0.10284229 
   65500   -951.04933    42.084567   -908.96476    1507.3166    906.33858    2.1923224    16.019179   0.11487329 
   65600   -944.80319    44.150404   -900.65279    1581.3073   -4351.0673    2.1664665    15.272487   0.12046834 
   65700   -949.51217    40.083939   -909.42823    1435.6613    1474.4891    2.1904847    18.188188   0.11400487 
   65800   -952.88302    43.014247   -909.86877    1540.6143   -1155.2484    2.1944659    16.961446   0.11385796 
   65900   -949.01639    41.722791    -907.2936    1494.3591   -628.63916    2.1884682    15.955772   0.11929599 
   66000   -947.86642    47.501386   -900.36504    1701.3274    -4419.781    2.1699723    16.991004   0.12748275 
   66100   -950.29814    40.386957   -909.91119    1446.5143    3587.1658    2.1976526     15.84529   0.12115598 
   66200   -950.41368    40.727508   -909.68617    1458.7117     702.2879    2.1903354    16.788332   0.12484701 
   66300   -949.90228    41.535731   -908.36655    1487.6593   -2571.8625    2.1802581    15.722129   0.12200518 
   66400   -947.30907     44.96408   -902.34499    1610.4503   -1618.2714    2.1757437    15.899418     0.131711 
   66500   -946.32854    43.166805   -903.16173    1546.0784    2612.4833    2.1838209    16.159528   0.12282188 
   66600   -949.19987    40.616303   -908.58357    1454.7287   -2002.1915     2.184383    17.793475    0.1164392 
   66700   -948.52583    39.087307   -909.43853    1399.9656    712.04219    2.1883577    16.340102   0.11194832 
   66800   -950.87666    41.982624   -908.89404    1503.6653    861.32283    2.1916632    17.119191   0.10689891 
   66900   -944.04612    44.779231   -899.26689    1603.8297   -2346.2056    2.1695341    16.887374   0.12241418 
   67000   -950.87108    44.002399   -906.86868    1576.0064    1231.0632    2.1936749    17.084202   0.11641495 
   67100    -955.7793    46.011924   -909.76737    1647.9803   -2996.0022    2.1943368     16.82035   0.12686749 
   67200   -949.14996    39.242967     -909.907    1405.5408   -349.60569    2.1841984    15.681713   0.12227536 
   67300   -945.36358    44.888002   -900.47558    1607.7254   -5167.9663    2.1643587    18.235176   0.13502215 
   67400   -949.80907    42.283251   -907.52582    1514.4327    5739.9015    2.2019609    18.074789   0.11383282 
   67500   -951.31666    41.721921   -909.59474    1494.3279    4428.1017    2.2028384    14.759674   0.11390831 
   67600   -951.81271    42.793307   -909.01941    1532.7011   -6214.3478    2.1760859    15.645788   0.12539705 
   67700   -945.48451    45.271456   -900.21305    1621.4594   -8062.2831    2.1532022    17.196574   0.12277857 
   67800   -954.57063    45.204448   -909.36618    1619.0594    4501.5385    2.2089432    17.044168   0.10813411 
   67900   -952.25008    42.898161   -909.35192    1536.4566    8782.5912    2.2121683     16.28507   0.10421973 
   68000   -950.71313    42.447331    -908.2658    1520.3095    -6288.017    2.1698174    14.828301   0.10551322 
   68100   -945.03441    45.015457   -900.01895    1612.2904   -10576.968    2.1449613     14.37771   0.11091733 
   68200   -953.61553    44.015708   -909.59983     1576.483    3347.9954    2.2043605     16.10308   0.10688274 
   68300   -951.81332    42.322258   -909.49106    1515.8298    6057.2556     2.203446    16.105673   0.11093244 
   68400   -950.47495    41.691766   -908.78319    1493.2479   -2964.0052    2.1796579    17.470006    0.1186772 
   68500   -948.24649     46.74303   -901.50346    1674.1658   -5446.8971    2.1665706     19.82973   0.12527102 
   68600   -947.97076    43.125854   -904.84491    1544.6117   -348.28054    2.1813329    16.359505  0.097976363 
   68700   -949.10368    40.063871   -909.03981    1434.9426     1409.376    2.1893645    18.120045   0.11594379 
   68800   -954.88577    45.585037   -909.30073    1632.6907   -1564.7696    2.1913717    15.352842  0.091786999 
   68900   -951.80209    43.082224   -908.71986     1543.049   -2503.8174    2.1865461    15.028126   0.10933586 
   69000   -943.82337    44.541659   -899.28171    1595.3207   -4488.2533    2.1638622    16.394378    0.1404754 
   69100   -949.46525    42.538411   -906.92684    1523.5716    4591.1525    2.1931358    15.382129   0.10397344 
   69200   -950.21201    40.831144   -909.38087    1462.4235    5315.2629    2.1997899    14.868414   0.11552211 
   69300   -950.31023    40.264651   -910.04557    1442.1338    98.767684     2.188305    15.836038   0.12125037 
   69400   -943.99872    43.483538   -900.51518    1557.4226   -5561.9114    2.1606403    16.393438   0.13704858 
   69500   -950.07887     42.36949   -907.70938    1517.5215    3475.2056    2.1981385    16.982785   0.13000453 
   69600   -951.97993    42.444952   -909.53497    1520.2242    6924.2465    2.2066424    16.520977   0.10930732 
   69700   -950.09918    41.006732   -909.09245    1468.7124   -3390.8798    2.1794462     14.95025  0.096089111 
   69800   -947.27877    46.758448   -900.52032     1674.718   -13823.342    2.1410958    15.256473   0.11253906 
   69900   -952.77273    42.892415   -909.88032    1536.2508    7077.2534    2.2082915    15.455811   0.10639736 
   70000   -954.85125    46.020619   -908.83063    1648.2917    15814.414     2.235314    16.755098   0.11821586 
   70100   -951.61282    42.685096   -908.92772    1528.8253   -4484.8534    2.1781961    19.059229   0.12092348 
   70200   -945.65269    43.914821   -901.73787    1572.8696   -15471.824    2.1383599    16.092188     0.120444 
   70300   -950.87477    39.743259   -911.13151    1423.4594    3486.5542    2.1959883    16.682442   0.10447673 
[...]
  186800   -949.23184    41.484388   -907.74745    1485.8203   -15415.282    2.1469566    16.886761   0.10778177 
  186900   -948.76737     40.21021   -908.55716    1440.1839    16.825514    2.1818091    16.395195   0.11088302 
  187000   -954.08247    41.119586   -912.96289    1472.7545     10687.64    2.2210202    14.602536  0.095468931 
  187100   -948.01195    43.498301   -904.51365    1557.9514    3953.6168    2.1839851    16.977451   0.10685856 
  187200   -949.31479    41.955542   -907.35924    1502.6954   -5638.6333    2.1692079    14.743139   0.11948255 
  187300   -955.91469    44.098442   -911.81625    1579.4463    -6774.565    2.1810489    17.009418  0.099429249 
  187400   -950.04744    42.068986   -907.97845    1506.7585     5791.157    2.1988712    15.024282   0.10749984 
  187500   -946.59076    42.309591   -904.28117    1515.3761    3757.2075    2.1877361    17.720216   0.10436701 
  187600   -951.79381    40.409678   -911.38413    1447.3281   -5275.9278    2.1787656    17.048614   0.10284357 
  187700   -950.14112    41.651061   -908.49006      1491.79   -3410.9799    2.1782285    16.241566     0.114909 
  187800   -946.01835    43.440746   -902.57761      1555.89    2654.8037    2.1821938    15.285769   0.10392984 
  187900   -951.00455    39.714015   -911.29054     1422.412    6818.9772     2.205453    14.970546   0.10759785 
  188000   -950.77307    41.421245   -909.35182    1483.5588   -283.20395    2.1824222    14.145452   0.10888594 
  188100    -949.1898    44.350741   -904.83906    1588.4827   -8782.3551    2.1590681     15.68042   0.12423564 
  188200   -955.21612    41.227298   -913.98882    1476.6123   -783.01165    2.1970519    15.454861   0.10046915 
  188300   -951.98551    41.653784   -910.33173    1491.8875    10005.486    2.2145266    15.532823   0.10771008 
  188400   -947.56111    41.183021   -906.37809    1475.0265    2012.0814    2.1815706    16.021529   0.10257431 
  188500   -949.11747    38.894662    -910.2228    1393.0657   -15852.213    2.1441375    16.914039   0.10170924 
  188600   -952.59075     39.01269   -913.57806    1397.2931   -4189.9217    2.1811808    16.205672    0.1104817 
  188700   -950.11187    44.431106   -905.68076    1591.3611    13636.284    2.2164636     18.12563   0.10499395 
  188800   -950.49079    41.628397    -908.8624    1490.9782    5206.4835    2.2012545     16.75173   0.10843763 
  188900   -955.07606    40.478272   -914.59779    1449.7849   -9847.9979    2.1706295        15.45  0.095841003 
  189000   -943.77424    37.077741    -906.6965    1327.9902   -2936.1678    2.1679838    16.935283   0.12047603 
  189100   -949.12561    41.930239   -907.19537    1501.7891    7588.8349    2.2017416    15.269827   0.10830487 
  189200   -952.05967    40.337739   -911.72193    1444.7515    6807.2567    2.2086942    16.269343   0.11560597 
  189300   -948.83807      44.0108   -904.82728    1576.3072   -6596.3689    2.1687851    16.927278   0.11497689 
  189400   -949.80247    43.374875   -906.42759    1553.5307   -5662.6271    2.1676085    17.754207   0.10025406 
  189500   -952.80441    41.540886   -911.26352    1487.8439    500.28437    2.1933289    15.300594   0.10942233 
  189600    -949.1649    42.237788   -906.92711    1512.8044    8800.1162    2.2018544    19.375564   0.10196023 
  189700   -949.21965    44.783717   -904.43594    1603.9903    -2894.951    2.1755038    17.247735   0.11817121 
  189800    -950.4004    38.141488   -912.25891    1366.0898   -3848.2048    2.1766824    14.913207   0.10667503 
  189900   -951.15901    43.118889   -908.04012    1544.3622   -228.04915    2.1823306    15.348458   0.10374301 
  190000   -951.21169    45.575276   -905.63641    1632.3411    3199.1324    2.1916975    15.956467   0.10737614 
  190100   -955.70371    41.490931   -914.21277    1486.0547    3253.0935    2.2057815    14.528735   0.10412026 
  190200   -949.56492    40.541402   -909.02352     1452.046   -6838.6925    2.1660268    15.966486   0.11092302 
  190300   -948.36087    40.985409   -907.37546    1467.9487   -9317.4838    2.1604281    17.464516   0.10760158 
  190400   -950.50237    36.873319   -913.62905    1320.6686    12523.604    2.2224501     15.62898   0.10879554 
  190500   -957.03034    45.944998   -911.08534    1645.5832    13014.451    2.2301637    17.145005   0.10771846 
  190600   -950.99423    43.726201   -907.26803     1566.114   -8770.2901    2.1675921    15.712838   0.10824693 
  190700   -950.54248    39.481828   -911.06066    1414.0959   -13804.624    2.1550497    15.722748   0.11705382 
  190800   -953.71259    41.342168   -912.37042    1480.7265    2902.3908    2.2001874    16.057184   0.10757691 
  190900   -948.59985    44.513443   -904.08641    1594.3101    7707.5576    2.2017949    15.154902   0.11820937 
  191000   -951.37152     42.06365   -909.30787    1506.5674   -182.97013    2.1889081    17.114562    0.1083311 
  191100   -951.62307    39.368477   -912.25459    1410.0361   -5976.9615    2.1772936    15.404263   0.11842422 
  191200   -949.60798    45.883287   -903.72469    1643.3729   -3978.5192    2.1737651    17.220337   0.10121919 
  191300   -950.74428    42.714685    -908.0296    1529.8851     7961.576    2.2083332    17.160465   0.10314019 
  191400   -951.58806    40.493102   -911.09496     1450.316    4141.3126    2.2010026    16.062439   0.11041412 
  191500   -950.13398    45.019779    -905.1142    1612.4452   -6649.2613    2.1678031    18.642027   0.10751671 
  191600    -945.1991    38.613097     -906.586    1382.9811   -4553.3386    2.1692671    17.969273   0.13391405 
  191700   -952.14831    40.657072   -911.49124    1456.1889    4491.2529    2.2038447    15.910173   0.10989131 
  191800   -952.17839    45.548962   -906.62943    1631.3986    7160.0727    2.2037685    15.526314   0.10755596 
  191900   -947.16823    40.822932   -906.34529    1462.1294   -2234.9199    2.1774507    14.828412    0.1255775 
  192000   -953.11457    39.433237   -913.68133    1412.3555   -4640.9524    2.1824268    14.939883   0.10825329 
  192100   -948.28311     39.85652   -908.42659     1427.516    2061.8692    2.1938738    16.705058   0.12596911 
  192200   -948.79032    42.112653   -906.67767    1508.3225    4908.2555     2.200172    18.715232   0.11462343 
  192300   -952.75886     37.71395   -915.04491    1350.7769    3048.6242    2.2024743     15.64488    0.1099097 
  192400   -948.12438    38.712316   -909.41206    1386.5348   -5824.7041    2.1749309    15.930549   0.12970999 
  192500   -946.88554     39.65468   -907.23086    1420.2868   -1357.9964    2.1784662    13.151373   0.11550768 
  192600   -955.54411    41.938237   -913.60587    1502.0755    3704.3496     2.208195    16.657715   0.11412116 
  192700   -951.29918    40.250724   -911.04846     1441.635    6827.8189    2.2067547    15.471796   0.11560896 
  192800   -947.45412    40.775031   -906.67908    1460.4137   -4331.6406    2.1719301    14.854069    0.1177371 
  192900    -952.3604    40.668727   -911.69167    1456.6063   -19125.989    2.1501606    16.945701   0.12686216 
  193000   -953.09409    43.732083   -909.36201    1566.3246    4137.6464    2.2026498    16.657925   0.10580007 
  193100   -948.41619    46.299456   -902.11673    1658.2786    13933.338    2.2206922    18.968212   0.12493815 
  193200   -954.02255    44.691907   -909.33065    1600.7021   -1305.3487    2.1895425    18.407326   0.10717389 
  193300   -951.56341    40.576475   -910.98694    1453.3022   -11993.406    2.1592692      15.4512   0.11790587 
  193400   -945.91742    42.331074   -903.58634    1516.1456   -2668.1892    2.1724619     15.38466   0.12845721 
  193500   -948.61073    40.224952   -908.38578    1440.7119    11674.187    2.2145022     15.52978   0.12569906 
  193600   -951.70187    40.626765    -911.0751    1455.1034    2004.2597    2.1971494    16.468948   0.11234816 
  193700   -949.21411    41.651439   -907.56267    1491.8035   -6066.2767    2.1647512    15.035581   0.10513299 
  193800   -944.93659    40.861864   -904.07472    1463.5238   -3897.0528    2.1650547    16.920527   0.12549211 
  193900   -956.41011     43.11501    -913.2951    1544.2233    7854.4058    2.2191502    15.673477   0.10168256 
  194000   -952.50553     43.69888   -908.80665    1565.1354    6312.6541    2.1998963     16.18946  0.094523981 
  194100    -950.8728    43.370701    -907.5021    1553.3812   -8332.3462    2.1650797    16.399116   0.10587681 
  194200   -955.02999    39.560424   -915.46956    1416.9109   -6006.8195    2.1808012    15.601227   0.10817776 
  194300   -952.80409    41.542766   -911.26132    1487.9112    2354.9147    2.1982644    14.755563   0.11383754 
  194400   -949.41619    42.889792    -906.5264    1536.1568    8981.6606    2.2042665    13.094287   0.10562956 
  194500   -953.09633    41.110995   -911.98533    1472.4467   -1908.8658    2.1888858    15.596274   0.10379615 
  194600   -953.61636     39.37295   -914.24341    1410.1963   -6209.2549    2.1790506    15.287263   0.11257788 
  194700   -951.36705    44.519887   -906.84717    1594.5409   -3079.5779    2.1800631    18.364346   0.11737174 
  194800   -950.85887    41.563081   -909.29579    1488.6388    6419.3938    2.2031838    16.632423   0.10693792 
  194900   -953.98743    40.489652   -913.49778    1450.1925    3933.1278    2.2018744    16.388537   0.10650395 
  195000   -946.24728    42.034661   -904.21262    1505.5291   -5045.8751    2.1634337      15.7074  0.097658462 
  195100    -947.8286    39.690264   -908.13833    1421.5613    1048.3442    2.1798023    12.879484   0.10387105 
  195200    -952.9259    42.159339   -910.76656    1509.9946    5980.8633    2.2048773    17.097097   0.10592033 
  195300    -949.8973    45.022991   -904.87431    1612.5602    6129.7916    2.1974386    16.337614   0.11363338 
  195400   -949.65705    44.258698   -905.39835    1585.1861   -7165.0309    2.1653761    16.011597   0.10039381 
  195500   -951.90153    40.656296   -911.24523    1456.1611    -17406.18    2.1457738     16.71085  0.093958365 
  195600   -953.60683    45.569876   -908.03696    1632.1477    7659.5242    2.2099218    15.579558   0.10168299 
  195700    -948.6646    46.420428   -902.24417    1662.6114     23873.86     2.238249    17.120695   0.11200611 
  195800   -949.21662    41.248922    -907.9677    1477.3868   -6482.3165    2.1679483     16.02421   0.12699979 
  195900   -952.67072    40.424986   -912.24573    1447.8764   -13648.875    2.1552857    13.927163   0.10129481 
  196000    -949.8481    42.556376   -907.29173    1524.2151    585.54132    2.1860725      17.7937   0.11133257 
  196100   -949.96406    41.980677   -907.98338    1503.5956    11013.279    2.2113768    16.198565   0.09902548 
  196200   -954.98966    40.226446   -914.76321    1440.7654      3350.18    2.2054147    17.058886  0.095347114 
  196300   -951.40576    42.954346   -908.45142    1538.4689   -9009.3492    2.1636854    17.391519   0.11419389 
  196400   -949.27261    41.402204    -907.8704    1482.8768    -5366.877    2.1698473    14.064142   0.10949821 
  196500   -955.08656    40.584382   -914.50218    1453.5854     9212.645    2.2165811    14.667538   0.10391644 
  196600   -952.30639    43.606471   -908.69992    1561.8257     5939.955    2.2048904    15.314397   0.09644641 
  196700    -950.0928    42.515347   -907.57745    1522.7456   -5500.5481    2.1732836    18.716477    0.1103333 
  196800   -950.49752    38.581894   -911.91563    1381.8635   -6753.0447    2.1669331     15.78233   0.10367899 
  196900   -952.81169    42.287474   -910.52421     1514.584    1973.6516    2.1967189    18.383223   0.10343947 
  197000   -945.91495    41.845926   -904.06902    1498.7693    7602.9572    2.1981814    15.448242    0.1186196 
  197100    -948.1394     38.32392   -909.81548    1372.6238    549.60134    2.1837749    18.638803   0.10802356 
  197200   -952.58863     41.43947   -911.14916    1484.2115   -7573.8479    2.1715973    16.592787   0.11008571 
  197300   -946.26304    43.855789   -902.40725    1570.7553   -135.39754    2.1773009    15.195663   0.10033736 
  197400   -950.77769    42.303566   -908.47412    1515.1603    9493.6144    2.2132286    16.741207    0.1125038 
  197500   -952.13736    41.230702   -910.90665    1476.7342    1386.5276    2.1940029    15.961846  0.099930054 
  197600   -952.09907    46.906747   -905.19233    1680.0296   -11554.993    2.1599729    17.206728   0.10378607 
  197700   -948.90005    43.241721   -905.65833    1548.7616   -5316.2171    2.1707185    15.669858   0.12268177 
  197800   -951.53128    40.465256   -911.06603    1449.3187    9842.6205    2.2104311    15.335689   0.10589914 
  197900   -949.76525    42.565258   -907.19999    1524.5332    7357.6648    2.2020488    17.146298   0.10997911 
  198000   -952.36998    45.840958   -906.52902    1641.8569   -9731.2573    2.1671687    16.828746    0.1022932 
  198100    -954.1917    39.473014   -914.71869    1413.7802   -4223.0116    2.1861651    16.944654   0.10866986 
  198200   -949.45342     40.45666   -908.99676    1449.0109    3819.5002    2.1925559    17.422024   0.10606015 
  198300   -949.09375    41.896123   -907.19762    1500.5672    2173.4535    2.1883625    15.370358   0.11044029 
  198400   -956.01261    40.698452   -915.31416     1457.671   -1677.2541    2.1952738    17.454925  0.088303429 
  198500   -951.37278    41.413709   -909.95908    1483.2889   -1395.8808    2.1816367    16.674069   0.10095781 
  198600   -950.89106    43.601204   -907.28986     1561.637   -479.91811    2.1844068    15.863191   0.10656229 
  198700   -953.72049    41.134044   -912.58644    1473.2723    2534.1661    2.1976718    16.341189  0.096551808 
  198800   -953.09434    40.607718   -912.48663    1454.4212    1607.4345    2.1941879    16.105477   0.10565505 
  198900   -950.99754    44.516013   -906.48153    1594.4021   -5307.3096     2.171159    16.521714   0.10507892 
  199000   -951.13879    40.338845   -910.79995    1444.7911   -1912.2867    2.1815344    17.507196   0.10419914 
  199100    -954.2983    42.774412   -911.52389    1532.0243    5224.7317    2.2054959    15.863081   0.10374508 
  199200   -948.59213    45.477838    -903.1143    1628.8512    2074.8901    2.1833434    15.328921   0.10604361 
  199300   -951.69451    42.226661   -909.46785    1512.4059   -5442.9446    2.1747668    16.062298   0.10068672 
  199400   -948.46879    37.341229   -911.12756    1337.4274   -2292.9879    2.1808153    14.720991   0.11214915 
  199500    -949.7685    46.803287   -902.96521     1676.324    4672.1112    2.1949684    14.600712   0.10739714 
  199600   -950.25272     42.60696   -907.64576    1526.0268    9940.4908    2.2108538    16.162591   0.11675997 
  199700   -949.70785     38.24731   -911.46054    1369.8799    -7619.797    2.1697487    16.789213   0.10844056 
  199800   -946.34359    39.550204   -906.79338    1416.5449   -9552.8388    2.1566024    17.528551   0.11030252 
  199900   -943.93446    40.482639   -903.45182    1449.9413    7130.0939    2.1951257    17.599571    0.1311496 
  200000   -954.28161    42.506365   -911.77525    1522.4238    14370.678    2.2287255     16.68156  0.098975928 
  200100   -950.52747    41.653442   -908.87403    1491.8752   -2516.9624    2.1832942    18.966351   0.10575678 
  200200   -948.45708    41.610696   -906.84638    1490.3442   -9392.4122    2.1602619    16.937626   0.10504856 
  200300     -954.523     39.36976   -915.15324     1410.082    176.93694    2.1972171    16.913014   0.10214989 
  200400   -950.42694    41.188399   -909.23854    1475.2191    5678.7289    2.2007073    16.011867   0.11931314 
  200500   -949.78903    42.583338   -907.20569    1525.1807    2412.8425    2.1908732    14.504043   0.12274669 
  200600   -949.99036    35.930101   -914.06026    1286.8859   -1034.8463    2.1876664    17.589074    0.1187061 
  200700   -949.00933    38.718843   -910.29048    1386.7685   -1076.2087    2.1833934    15.860493   0.10307859 
  200800   -949.85055    43.518248    -906.3323    1558.6658    4946.1601    2.1964045    15.439668   0.11267371 
  200900   -952.22197    40.918448   -911.30353    1465.5504    3681.8958    2.2000075    19.926129   0.11590478 
  201000   -951.80436    41.623681   -910.18067    1490.8093   -1161.1393    2.1874988    17.731767   0.10401778 
  201100   -946.97458    42.902001   -904.07258    1536.5941   -4882.1914    2.1655027    15.927878   0.11933859 
  201200   -950.96342    40.259184   -910.70423     1441.938     549.0661    2.1900998    17.575626   0.10233029 
  201300   -949.25108    39.744219   -909.50686    1423.4938    10494.246    2.2117418    16.129529   0.12505497 
  201400   -946.75583    44.697702   -902.05813    1600.9096    4144.7819     2.184805    16.883344   0.12735111 
  201500   -952.97753    43.070677   -909.90685    1542.6354   -9832.3894    2.1678634    16.153352   0.11005011 
  201600   -950.09255    39.552331   -910.54022    1416.6211    -7865.092    2.1694445    15.325751   0.10885399 
  201700   -950.32295    46.182947   -904.14001    1654.1057    9412.1405    2.2061815    17.622926   0.10850978 
  201800   -950.62052    40.276704   -910.34381    1442.5655    14088.619    2.2194642    17.444538  0.098926262 
  201900    -953.0128     40.61883   -912.39397    1454.8192   -8033.9065    2.1725935    16.027888  0.098163063 
  202000   -947.24374    39.665172   -907.57857    1420.6626   -7686.9424    2.1591099    17.126644   0.10876467 
  202100   -951.07292    42.669805   -908.40312    1528.2777    2865.3214    2.1949629    17.467325  0.095987718 
  202200   -957.02435    42.416023   -914.60833    1519.1881    8001.6509    2.2196716    17.613756  0.098060434 
  202300   -948.40972    41.133927    -907.2758    1473.2681   -958.53045    2.1828052     16.51148   0.11432907 
  202400   -952.92382    44.467968   -908.45585    1592.6814    -8079.381    2.1731283    17.524051   0.10952262 
  202500   -953.54586    38.775238   -914.77062    1388.7884    42.334517    2.1974618    14.238774   0.10569698 
  202600   -953.03592    45.271537   -907.76439    1621.4623    2337.0046    2.1996156    15.290772    0.1144913 
  202700    -949.8206    42.476096   -907.34451    1521.3397    3713.2223    2.1958884    15.400851   0.11097421 
  202800   -952.55363    39.967679   -912.58595    1431.4973   -4460.5956    2.1861154    17.639877   0.10871525 
  202900   -947.92613    40.499927    -907.4262    1450.5605    -1134.908    2.1795642    15.597761   0.10529373 
  203000   -948.17121    42.683071   -905.48814    1528.7528    3654.1517    2.1900441     16.88732   0.10083532 
  203100   -949.17882    38.393793   -910.78503    1375.1264    5130.3711    2.2009401    16.810186   0.11896295 
  203200   -949.74047    40.423225   -909.31725    1447.8133   -1601.7252    2.1852933    16.790123   0.11680046 
Loop time of 143.02 on 1 procs for 200000 steps with 217 atoms

Performance: 362.468 ns/day, 0.066 hours/ns, 1398.410 timesteps/s
100.0% CPU use with 1 MPI tasks x no OpenMP threads

MPI task timing breakdown:
Section |  min time  |  avg time  |  max time  |%varavg| %total
---------------------------------------------------------------
Pair    | 139.34     | 139.34     | 139.34     |   0.0 | 97.43
Neigh   | 0.60889    | 0.60889    | 0.60889    |   0.0 |  0.43
Comm    | 0.86875    | 0.86875    | 0.86875    |   0.0 |  0.61
Output  | 0.067471   | 0.067471   | 0.067471   |   0.0 |  0.05
Modify  | 1.8256     | 1.8256     | 1.8256     |   0.0 |  1.28
Other   |            | 0.3047     |            |       |  0.21

Nlocal:    217 ave 217 max 217 min
Histogram: 1 0 0 0 0 0 0 0 0 0
Nghost:    957 ave 957 max 957 min
Histogram: 1 0 0 0 0 0 0 0 0 0
Neighs:    4215 ave 4215 max 4215 min
Histogram: 1 0 0 0 0 0 0 0 0 0
FullNghs:  8430 ave 8430 max 8430 min
Histogram: 1 0 0 0 0 0 0 0 0 0

Total # of neighbors = 8430
Ave neighs/atom = 38.8479
Neighbor list builds = 1025
Dangerous builds = 1
Total wall time: 0:02:25
