LAMMPS (3 Mar 2020)
Reading data file ...
  orthogonal box = (0 0 0) to (17.469 17.469 17.469)
  1 by 1 by 1 MPI processor grid
  reading atoms ...
  217 atoms
  read_data CPU = 0.00111471 secs
Reading potential file library.meam with DATE: 2012-06-29
Reading potential file LiSi.meam with DATE: 2020-11-07
1 atoms in group Li
216 atoms in group Si
Neighbor list info ...
  update every 1 steps, delay 10 steps, check yes
  max neighbors/atom: 2000, page size: 100000
  master list distance cutoff = 6
  ghost atom cutoff = 6
  binsize = 3, bins = 6 6 6
  2 neighbor lists, perpetual/occasional/extra = 2 0 0
  (1) pair meam/c, perpetual
      attributes: full, newton on
      pair build: full/bin/atomonly
      stencil: full/bin/3d
      bin: standard
  (2) pair meam/c, perpetual, half/full from (1)
      attributes: half, newton on
      pair build: halffull/newton
      stencil: none
      bin: none
Setting up Verlet run ...
  Unit style    : metal
  Current step  : 0
  Time step     : 0.003
Per MPI rank memory allocation (min/avg/max) = 8.895 | 8.895 | 8.895 Mbytes
Step Temp E_pair E_mol TotEng Press Volume 
       0         1600   -951.04357            0   -906.37126   -115280.58    5330.9442 
    3200    1564.1659   -948.42509            0   -904.75328     2887.196    4609.8948 
Loop time of 2.29409 on 1 procs for 3200 steps with 217 atoms

Performance: 361.555 ns/day, 0.066 hours/ns, 1394.890 timesteps/s
100.0% CPU use with 1 MPI tasks x no OpenMP threads

MPI task timing breakdown:
Section |  min time  |  avg time  |  max time  |%varavg| %total
---------------------------------------------------------------
Pair    | 2.2271     | 2.2271     | 2.2271     |   0.0 | 97.08
Neigh   | 0.017727   | 0.017727   | 0.017727   |   0.0 |  0.77
Comm    | 0.014071   | 0.014071   | 0.014071   |   0.0 |  0.61
Output  | 2.5083e-05 | 2.5083e-05 | 2.5083e-05 |   0.0 |  0.00
Modify  | 0.03034    | 0.03034    | 0.03034    |   0.0 |  1.32
Other   |            | 0.0048     |            |       |  0.21

Nlocal:    217 ave 217 max 217 min
Histogram: 1 0 0 0 0 0 0 0 0 0
Nghost:    957 ave 957 max 957 min
Histogram: 1 0 0 0 0 0 0 0 0 0
Neighs:    4145 ave 4145 max 4145 min
Histogram: 1 0 0 0 0 0 0 0 0 0
FullNghs:  8290 ave 8290 max 8290 min
Histogram: 1 0 0 0 0 0 0 0 0 0

Total # of neighbors = 8290
Ave neighs/atom = 38.2028
Neighbor list builds = 30
Dangerous builds = 0
Setting up Verlet run ...
  Unit style    : metal
  Current step  : 3200
  Time step     : 0.003
Per MPI rank memory allocation (min/avg/max) = 9.662 | 9.662 | 9.662 Mbytes
Step PotEng KinEng TotEng Temp Press Density c_msdli[4] c_msdsi[4] 
    3200   -948.42509    43.671812   -904.75328    1564.1659     2887.196    2.1877523            0 8.026848e-32 
    3300   -951.69495    43.010722   -908.68423    1540.4881    9809.5577    2.2110924   0.18623573  0.098080047 
    3400    -943.7724    44.086996    -899.6854    1579.0363   -4128.4996    2.1592027   0.20533126   0.11737486 
    3500   -945.61053    41.993801   -903.61673    1504.0657   -8097.5965    2.1605007   0.12925835   0.11785817 
    3600   -950.03111    44.216863   -905.81424    1583.6877     6071.978    2.1978439   0.21056854   0.11393471 
    3700   -943.32935    47.305723   -896.02363    1694.3194    7291.4051    2.1826135   0.33285029   0.10808288 
    3800   -947.17381    45.980572   -901.19324    1646.8573   -4626.8391    2.1676537   0.30018943  0.096444482 
    3900    -947.1473    41.550842   -905.59646    1488.2005   -4480.6664    2.1656257   0.17240959   0.11740065 
    4000   -947.90009    48.564854   -899.33524    1739.4169    3142.7018    2.1880771  0.034731473    0.1172698 
    4100   -945.34141      46.8553   -898.48611    1678.1869    7574.2332    2.1890578   0.38466982  0.088634769 
    4200   -947.75513      42.1788   -905.57633    1510.6916   -4091.0902    2.1667202   0.20251803   0.11048484 
    4300   -946.53447    44.462461   -902.07201    1592.4841   -4020.7997    2.1666083  0.039858453   0.10168574 
    4400   -944.97331    49.062805    -895.9105    1757.2517    6626.4351    2.1843754   0.13722449   0.12259063 
    4500   -949.10778    43.628584   -905.47919    1562.6177    4712.1115    2.1968104   0.18932772   0.12448242 
    4600   -947.36052    43.319985   -904.04053    1551.5648   -8035.0867    2.1572205   0.13148785   0.11340165 
    4700   -944.16198    44.702065   -899.45991    1601.0659   -4480.8084    2.1609209   0.02443191   0.11841628 
    4800   -949.88752    41.941201   -907.94632    1502.1817    10844.621    2.2111359   0.08701498   0.10035609 
    4900   -949.91441    44.970235   -904.94418    1610.6707   -317.82367    2.1858443  0.059597497   0.11186167 
    5000   -944.58413    43.468877   -901.11526    1556.8975   -7800.3559    2.1517754  0.091547492    0.1329196 
    5100   -950.43422    45.751591   -904.68262    1638.6561   -3538.7849    2.1734257    0.2475766  0.099049336 
    5200   -948.88766    41.169808   -907.71785    1474.5532    11294.536    2.2120597  0.088544405   0.10639567 
    5300   -944.17724     44.71691   -899.46033    1601.5976    1704.6268    2.1756523   0.10658828   0.11703161 
    5400   -947.16986    43.585963    -903.5839    1561.0911   -9895.2427    2.1519465   0.28762357   0.11489289 
    5500   -950.00699    43.780278   -906.22672    1568.0508   -1651.4384    2.1805145   0.15462362   0.11910038 
    5600   -946.22259    49.683986   -896.53861    1779.5002    7676.4076    2.1914184   0.20159601   0.12315856 
    5700   -949.12974    48.187368   -900.94237    1725.8968    704.60528    2.1821353  0.026575654   0.10811634 
    5800   -950.91915    45.353717   -905.56544    1624.4057    -10267.46     2.157818  0.032862611    0.1074439 
    5900   -942.80054    43.608514   -899.19203    1561.8988    1458.6877    2.1664839   0.11117064   0.11206968 
    6000   -942.72037    45.165568    -897.5548    1617.6669    8754.3672    2.1888659  0.040620326   0.11701203 
    6100   -950.47694    45.655908   -904.82104    1635.2291   -96.839303     2.181519   0.16560743   0.10720841 
    6200   -948.36551    45.552348   -902.81317    1631.5199   -6927.9184    2.1577022  0.051352768   0.10715672 
    6300   -943.77224    47.439901   -896.33234    1699.1252   -362.62816    2.1672121 0.0075374109   0.11808241 
    6400   -949.88718    44.010889   -905.87629    1576.3104    9771.9161    2.2065249  0.016996799   0.10700916 
    6500    -948.4547     44.05902   -904.39568    1578.0343   -4505.1661    2.1644943  0.034459845   0.11031523 
    6600   -950.24736    49.391381   -900.85598    1769.0202   -10689.423    2.1518423   0.12397406   0.10580795 
    6700   -952.04534    44.270652   -907.77469    1585.6142    2720.2423    2.1951185   0.13884207   0.10991245 
    6800     -950.463    43.636345   -906.82666    1562.8956     6329.097     2.198102  0.041108164   0.10366482 
    6900   -945.03717    43.628709   -901.40846    1562.6221   -4212.1633    2.1609097   0.13324965   0.11719732 
    7000   -947.32001    43.914538   -903.40547    1572.8595   -7422.8882    2.1569105   0.29179008   0.12300478 
    7100   -947.38833    38.366242   -909.02208    1374.1397    10002.414    2.2058892  0.096218953   0.10093127 
    7200   -946.45985     46.74252   -899.71733    1674.1475    4638.4128    2.1853419   0.12975964   0.10899492 
    7300   -944.44083    42.355195   -902.08563    1517.0095   -6665.7567    2.1525819   0.15410709   0.10226723 
    7400   -947.66491    40.895257   -906.76965    1464.7198   -7172.6408    2.1651834  0.048248224   0.11056087 
    7500   -947.01421    43.643589   -903.37062    1563.1551    18448.623    2.2208391   0.21223335   0.11875645 
    7600   -942.18995     44.87032   -897.31963    1607.0921    9343.9435    2.1880817  0.033642041    0.1128809 
    7700   -948.85387    44.646232   -904.20764    1599.0661   -20584.538    2.1272727   0.19498143   0.11328645 
    7800   -950.35114    46.780021   -903.57112    1675.4907   -5694.5329    2.1656807  0.072242266   0.11210636 
    7900   -947.62326    51.684503   -895.93875    1851.1515     9465.773     2.199409  0.088820448   0.11461341 
    8000   -947.38431    46.117825   -901.26649    1651.7732    266.52688    2.1733561   0.18303417   0.11499355 
    8100    -947.8528    42.194917   -905.65788    1511.2689   -7150.2689    2.1612406   0.38410262   0.11671317 
    8200   -944.43444    44.231965   -900.20247    1584.2286    142.90131    2.1752633  0.082338961   0.10092206 
    8300   -945.20683    45.132174   -900.07466    1616.4708    5692.0257    2.1913306   0.22550712    0.1152347 
    8400   -950.28542    42.591945   -907.69348     1525.489   -246.97825    2.1865758  0.057751258   0.10816532 
    8500    -946.4535    43.436221   -903.01728    1555.7279   -4623.6809    2.1650088  0.038652234   0.12574884 
    8600   -943.54087    43.456407   -900.08446    1556.4509    1255.7547    2.1736833   0.01500613   0.12167311 
    8700   -951.47034    42.484948   -908.98539    1521.6568    8894.5082    2.2056053  0.083164262   0.10660704 
    8800   -949.73537    46.560186   -903.17518     1667.617   -5016.2306    2.1686268   0.20064703    0.1095393 
    8900    -945.5077    43.956366   -901.55133    1574.3576   -4738.8868    2.1587971  0.078208773   0.10531659 
    9000   -951.58564    45.303727   -906.28191    1622.6152    1875.8828    2.1905964   0.11111372   0.10814705 
    9100   -952.31178    44.155884    -908.1559    1581.5036     6612.132    2.2046608   0.24751328  0.098046865 
    9200   -943.62489    43.666294   -899.95859    1563.9683   -6373.4653    2.1531008   0.10981881   0.10643419 
    9300   -948.69219    44.277585   -904.41461    1585.8625   -10133.718    2.1561719   0.16128256   0.10514686 
    9400   -953.62281    49.278073   -904.34474    1764.9619     9030.057     2.207906    0.3302664  0.099064173 
    9500   -944.26911    49.290334   -894.97878     1765.401    4554.1953    2.1815599   0.32613512   0.11033961 
    9600   -948.09846    45.743476   -902.35499    1638.3654   -11145.748    2.1508562   0.12844954   0.12001623 
    9700   -948.64972     43.93293   -904.71679    1573.5182   -5327.0205    2.1686328  0.062055013   0.11441756 
    9800   -944.88106    46.207376   -898.67369    1654.9806     10148.47    2.1969105   0.58563862   0.11498386 
    9900   -946.87209    48.468661   -898.40343    1735.9716   -1172.3101    2.1710834   0.13110725   0.10546151 
   10000   -947.41608    41.686135   -905.72995    1493.0462   -4252.0939    2.1705478   0.17050445   0.11090255 
   10100    -945.4202    43.549115   -901.87109    1559.7714    778.66259    2.1766474  0.038158152   0.11645613 
   10200   -939.35997    42.201989   -897.15798    1511.5222    5395.8678    2.1764756   0.16555944    0.1233853 
   10300   -948.92111    41.928714   -906.99239    1501.7345    3649.8838    2.1913683   0.10053402   0.10342313 
   10400   -947.42769    43.545446   -903.88224      1559.64    -4981.138    2.1677321    0.5470505   0.11390563 
   10500   -948.11219    48.069535   -900.04265    1721.6764   -3925.2898    2.1684444  0.004202149   0.11012648 
   10600   -953.84714    45.437981   -908.40916    1627.4237    1178.1083    2.1976169   0.13630339   0.11552482 
   10700   -948.77541    43.467122   -905.30828    1556.8347   -1024.5462    2.1791715  0.099003178   0.11533718 
   10800   -943.94154    43.138206   -900.80334    1545.0541   -2023.6905    2.1642774   0.11808006   0.11189638 
   10900   -951.37173    45.906083   -905.46565    1644.1894     -1609.07    2.1819382  0.068299504  0.099607362 
   11000   -954.47598    46.693849   -907.78214    1672.4043     4283.833    2.2028542  0.039701386  0.098155314 
   11100   -949.43842    49.527972   -899.91045    1773.9124   -4645.7991    2.1703553  0.090853092   0.10985245 
   11200   -946.78781    42.675485   -904.11233    1528.4811   -7519.3121    2.1555701    0.2302398   0.10562693 
   11300   -951.50961    45.058931   -906.45068    1613.8475    1952.3235    2.1917469  0.088820237   0.10296889 
   11400   -946.27793    49.635075   -896.64285    1777.7484    8650.6908    2.1915141  0.034403449   0.10896346 
   11500    -945.5573    44.213733   -901.34357    1583.5756   -1217.1925    2.1675172  0.089961112   0.11185129 
   11600   -945.69305    39.854079   -905.83897    1427.4286   -7953.3001    2.1546144  0.058759031   0.11480649 
   11700   -946.23309    46.473407   -899.75968    1664.5089     5987.361    2.1846647  0.089662445   0.10498586 
   11800   -945.82194    48.096328   -897.72561    1722.6361    9545.7563    2.1942329   0.18701211   0.10642701 
   11900   -947.17714    42.069281   -905.10786    1506.7691   -4969.0251    2.1645919   0.18624494   0.10392707 
   12000   -947.30988     44.58702   -902.72286    1596.9454   -6946.5913    2.1566067   0.22206543   0.10862883 
   12100   -941.83126    46.078929   -895.75233    1650.3801    6658.5119    2.1797459   0.45545495   0.11456161 
   12200   -950.07199    44.927481   -905.14451    1609.1395    6260.4209    2.1993467  0.015502527   0.10789496 
   12300   -946.94982    42.409666   -904.54015    1518.9604   -7391.9835    2.1599092   0.14053854   0.10736683 
   12400   -943.72116    44.211889   -899.50927    1583.5095   -4484.3357    2.1569456  0.038938921   0.12137239 
   12500   -950.62013    43.201426   -907.41871    1547.3184    2636.0113    2.1923028   0.14328889   0.10949491 
   12600   -949.61792    43.772306   -905.84561    1567.7653    3264.6851    2.1877038  0.095229061   0.10339333 
   12700   -949.17558    48.684742   -900.49084    1743.7109   -3731.8024    2.1674275  0.047285204   0.10609745 
   12800   -950.23479    45.026572   -905.20822    1612.6885   -3066.3984    2.1724145   0.10833773   0.10561897 
   12900   -953.69026    46.353396   -907.33686    1660.2106    595.75905    2.1882025  0.018121881   0.10811637 
   13000   -947.26443    47.538276   -899.72615    1702.6487   -84.934996     2.173769    0.1950362   0.11316752 
   13100   -950.32697    45.519598   -904.80737    1630.3469   -4038.4093      2.17229  0.098963325   0.11081674 
   13200   -952.94778    45.834522   -907.11326    1641.6263    -2883.153    2.1816627  0.074309097  0.091680482 
   13300   -946.84075    48.536559    -898.3042    1738.4035   -1456.3257    2.1712756   0.14809335   0.10120856 
   13400   -948.61703    45.065446   -903.55159    1614.0808    951.26254    2.1813652   0.13229437   0.12322475 
   13500   -948.23231    41.915904   -906.31641    1501.2757   -136.29193    2.1812107   0.18057604   0.11703265 
   13600   -943.12306    46.139861    -896.9832    1652.5625   -4441.1244    2.1569104  0.058835966   0.12013632 
   13700    -947.4806    44.517255   -902.96334    1594.4466    5009.4351     2.188699  0.069449038    0.1066184 
   13800   -946.61638     41.70119   -904.91519    1493.5854    5920.4945    2.1905867  0.057992281   0.11359738 
   13900   -943.87512     46.07198   -897.80314    1650.1312   -7327.2469    2.1526986   0.14796297   0.13435583 
   14000   -945.52017    43.739364   -901.78081    1566.5854   -3107.1891    2.1671125   0.21591167   0.11367222 
   14100    -948.3912    43.525034   -904.86617    1558.9089    7514.7586     2.196119   0.17189623   0.11493383 
   14200   -947.49398     47.85512   -899.63886    1713.9969    4816.6797    2.1888156   0.12196031  0.099836835 
   14300   -946.87792    45.783838   -901.09408     1639.811   -8981.7244    2.1547914  0.029255224   0.11444318 
   14400   -950.55061    42.585526   -907.96509    1525.2591   -4250.6636    2.1764676   0.13378212    0.1206463 
   14500    -946.7814    45.967998    -900.8134     1646.407    9675.7422    2.2001643   0.19104774   0.11428248 
   14600   -950.75541    48.455798   -902.29961     1735.511    545.72213    2.1854086  0.042272289   0.12120787 
   14700   -952.24785    42.252395   -909.99545    1513.3276   -6714.0784    2.1689015   0.18794721  0.097951979 
   14800   -948.81189     46.20064   -902.61125    1654.7394   -2510.3584    2.1690284  0.040018581   0.10652071 
   14900   -947.79888    47.487792   -900.31109    1700.8405    8812.8565    2.1972376   0.14740577   0.12025533 
   15000   -950.43348    42.553208   -907.88027    1524.1016    3684.7711    2.1944782   0.35147316   0.10401586 
   15100   -944.04027    42.426972   -901.61329    1519.5803   -9646.5686    2.1499249  0.013486863   0.12656036 
   15200   -947.39415    47.042314   -900.35183    1684.8851   -611.90237    2.1735556   0.21407423   0.11460934 
   15300    -948.4808    44.356599    -904.1242    1588.6925    10988.512    2.2068473   0.17335006  0.095350658 
   15400   -944.83336    37.722079   -907.11128    1351.0681      4265.57    2.1886875   0.12880864   0.12063975 
   15500   -941.79681    44.742936   -897.05387    1602.5297   -11853.122    2.1358966  0.061156724   0.11886799 
   15600   -949.73211    46.572351   -903.15976    1668.0527    1801.2132     2.186519   0.10854701   0.10763193 
   15700   -948.34777    45.086812   -903.26095    1614.8461    17906.585     2.226657  0.072942502   0.11459581 
   15800   -945.40187    47.749854   -897.65202    1710.2266    -6269.268    2.1589241   0.19347468   0.13275935 
   15900   -942.41134     43.47321   -898.93813    1557.0527   -23694.429    2.1096626   0.16474919   0.13301314 
   16000   -950.95562     46.35414   -904.60148    1660.2372    4954.2401    2.1997088  0.048555372   0.11143714 
   16100   -949.93935    47.314877   -902.62447    1694.6473    14041.965    2.2157994  0.090451091   0.11291481 
   16200   -944.56013     46.62734   -897.93279    1670.0222    -7191.821    2.1562384   0.16953185   0.11929563 
   16300   -951.23269    44.605125   -906.62757    1597.5938   -9719.9515    2.1655097   0.10413512   0.11088516 
   16400   -946.85132    42.009416    -904.8419    1504.6249    4007.7189    2.1884892   0.23549251   0.10537293 
   16500   -948.72567    49.453162   -899.27251    1771.2329    4987.0124    2.1917003   0.22980063   0.11383837 
   16600   -947.57676     42.89036    -904.6864    1536.1772   -4328.7364    2.1716351  0.048525257   0.11619631 
   16700   -947.97219    40.327097    -907.6451    1444.3704     -7073.98    2.1658033  0.085027359   0.12342367 
   16800   -946.57363    45.965296   -900.60833    1646.3102    2960.2354    2.1839199  0.034997159     0.130395 
   16900    -948.2021     45.11692   -903.08518    1615.9245    6504.6277    2.2000422  0.051227038   0.12105358 
   17000   -950.86544    40.818287   -910.04715     1461.963   -4705.4093    2.1782641   0.14067249   0.12072555 
   17100   -946.06014    44.564755   -901.49539    1596.1479   -9688.9541    2.1512472  0.079452151   0.12220067 
   17200   -948.91498    47.408798   -901.50619    1698.0112    4059.2873    2.1913641   0.28956322   0.11236703 
   17300   -949.39566    42.302275   -907.09338    1515.1141    9279.6294    2.2094618  0.090128298   0.10767206 
   17400   -942.09178    43.902077   -898.18971    1572.4132   -3954.4008    2.1561178   0.19369652   0.11551329 
   17500    -944.9282     43.63153   -901.29667    1562.7232   -3087.5722    2.1657699   0.23754006   0.11911892 
   17600   -951.56043    46.370135    -905.1903    1660.8101    4470.2385    2.1959848  0.025252221   0.11407166 
   17700   -947.78489    47.566941   -900.21795    1703.6753    4985.4671    2.1878417   0.10394961   0.12285679 
   17800   -944.22855    45.454524   -898.77402    1628.0162   -6456.2128    2.1540087   0.21947884   0.12610546 
   17900    -948.7419    42.522414   -906.21949    1522.9987   -5929.5466    2.1711605   0.63589679   0.12122352 
   18000   -946.81369    45.206723   -901.60696    1619.1409    7360.7831    2.1971106   0.12234813   0.11923441 
   18100   -944.59439    47.223342   -897.37105    1691.3688     5023.984    2.1838767   0.24650568   0.12743517 
   18200   -951.93299    45.494001   -906.43898    1629.4301   -7830.7593    2.1672535   0.15735648   0.10288038 
   18300   -948.08645    44.423457   -903.66299    1591.0871   -4613.6487    2.1688819   0.11347981   0.12570868 
   18400   -943.96379    45.971675   -897.99211    1646.5387    10173.716    2.1970472  0.011874165   0.11606858 
   18500   -947.77159    41.316514   -906.45507    1479.8077    9331.7774    2.2070813 0.0083426728   0.11028793 
   18600   -946.97658    42.079292   -904.89729    1507.1276   -16716.228    2.1404648  0.028210358   0.12488411 
   18700   -944.37006    43.364822   -901.00524    1553.1707   -8292.8818    2.1555573  0.034209541   0.12895773 
   18800   -946.63348    44.603734   -902.02975     1597.544    22203.186    2.2351655 0.0064625115   0.14270338 
   18900   -951.04787    43.042001   -908.00587    1541.6084    6562.9531     2.207599  0.031534498   0.12259492 
   19000   -945.71068    45.983579    -899.7271    1646.9651     -12372.1    2.1465453   0.24121265   0.12727735 
   19100    -947.6978    45.696085   -902.00172     1636.668   -2865.7215    2.1727127   0.15592003   0.11183666 
   19200   -952.56114    46.027239    -906.5339    1648.5288    6607.3007    2.2056686   0.12460118   0.10234194 
   19300   -947.29579    49.058151   -898.23764    1757.0851    340.46529     2.177337  0.097572977   0.11518322 
   19400   -944.55744    42.379815   -902.17763    1517.8913   -3097.6829    2.1630676  0.083574269   0.10904876 
   19500   -950.12421    43.377996   -906.74621    1553.6425   -2675.6676    2.1799898   0.02269921    0.1169862 
   19600   -947.48217     49.15924   -898.32293    1760.7057    4077.9731    2.1851609   0.11653562   0.11164949 
   19700   -947.80876     46.24809   -901.56067    1656.4389    2514.1008    2.1840688   0.16398014    0.1104944 
   19800   -949.07904    42.043228   -907.03581    1505.8359   -6173.6127    2.1697648   0.10735999   0.13356978 
   19900   -942.33294    42.525117   -899.80783    1523.0955   -586.55372    2.1662556  0.089980011   0.12959149 
   20000   -945.42317    43.986791   -901.43638    1575.4473    7511.8522     2.192194   0.13168208   0.11488493 
   20100   -950.22574    43.551241    -906.6745    1559.8475    3855.8958    2.1927945  0.022287289   0.10405392 
   20200    -945.5364    45.190628   -900.34577    1618.5644   -7296.1693    2.1527857  0.060588572    0.1093927 
   20300   -945.82899    44.836609   -900.99238    1605.8847   -2328.7973    2.1657675  0.068489732   0.10774296 
   20400   -952.87142    46.202214    -906.6692    1654.7957    7941.8212    2.2077049  0.026581063   0.11320743 
   20500   -944.53595    45.532318   -899.00363    1630.8025    3466.0205    2.1814306  0.062227466   0.12469262 
   20600   -943.52189    41.753977   -901.76792     1495.476   -9429.9658    2.1467918   0.28482963   0.12396898 
   20700   -950.17994    42.420471   -907.75947    1519.3474   -4362.5759      2.17579  0.083822301   0.11713096 
   20800   -946.52802    46.058517    -900.4695     1649.649    14759.658     2.214852    0.0659343   0.12835512 
   20900   -946.25683     46.03855   -900.21828    1648.9339    2971.1444    2.1834834   0.16444307   0.12475508 
   21000   -948.03391    40.328506    -907.7054    1444.4209   -13014.814    2.1499689  0.050049598   0.11769244 
   21100   -948.99396    46.588017   -902.40594    1668.6138   -2770.2785     2.171486   0.15335408   0.10564988 
   21200   -946.25779    48.620234   -897.63755    1741.4004    7735.5151    2.1877727  0.051970982   0.11162731 
   21300   -950.50554     43.88354     -906.622    1571.7493    689.73338    2.1846556  0.031403423    0.1045774 
   21400   -946.93788    43.866297   -903.07158    1571.1317   -4359.5325    2.1631546   0.23583649   0.11798723 
   21500   -943.81622    45.249481   -898.56674    1620.6723   -3737.6842    2.1626013   0.22093069   0.13651131 
   21600   -947.94579    40.785716   -907.16007    1460.7964    5784.0315    2.1955685  0.043933912   0.12405662 
   21700   -948.79016    44.885987   -903.90417    1607.6533    1375.8994    2.1822717   0.14959163   0.11148386 
   21800   -944.88064    44.931513   -899.94913    1609.2838   -2912.0355    2.1631841  0.047090656   0.11971664 
   21900   -951.41604    43.597249    -907.8188    1561.4953   -2301.9686    2.1828254   0.10724712   0.11246792 
   22000   -951.16231    46.962276   -904.20003    1682.0184    1565.5757    2.1886371  0.029940793   0.12033055 
   22100   -946.12807    46.569901   -899.55817     1667.965    2551.3936    2.1750239  0.076290701   0.10816227 
   22200   -949.94406    43.010056     -906.934    1540.4642   -4184.0021    2.1745345  0.015637261    0.1058149 
   22300   -947.55721    43.609534   -903.94768    1561.9354   -2979.3607    2.1735385  0.098576105   0.12690901 
   22400   -947.22895    48.455595   -898.77335    1735.5037    3626.7239    2.1873367   0.19391008   0.12129349 
   22500   -949.76467    44.374442   -905.39023    1589.3316    2074.2244    2.1873714  0.084504382    0.1178203 
   22600   -947.24624    43.134997   -904.11124    1544.9392   -7332.7454    2.1597219   0.28546138   0.11803395 
   22700   -941.09242    43.679883   -897.41254     1564.455   -4084.9159    2.1567387   0.35388872   0.14213398 
   22800   -947.45825    44.264052    -903.1942    1585.3778    9619.2999    2.2060115   0.35206495   0.12856282 
   22900   -949.96868    45.381765   -904.58691    1625.4102    723.94601    2.1878487   0.26672728   0.13325296 
   23000   -944.26992    45.968719    -898.3012    1646.4328   -13646.775    2.1373188   0.14973923   0.13153286 
   23100   -947.95366    41.005761    -906.9479    1468.6777    1011.9747    2.1870417   0.10746343   0.13403375 
   23200   -950.98575    46.582697   -904.40305    1668.4233    9214.1354    2.2111395   0.12943439   0.11932385 
   23300   -949.65671    50.258231   -899.39848    1800.0676   -5138.6522    2.1725436   0.11302658   0.12595625 
   23400   -948.10741    44.171946   -903.93546    1582.0789   -10077.091    2.1558624   0.17281759   0.12166887 
   23500   -950.63317    44.151303   -906.48186    1581.3395   -125.90738    2.1902949  0.098372236   0.11812346 
   23600   -944.67796    45.978683   -898.69928    1646.7897    6186.8685    2.1936174  0.028386884   0.13703407 
   23700    -946.8531    42.828411   -904.02469    1533.9584    -66.06007     2.180386  0.020118943   0.11791319 
   23800     -950.097    42.414326   -907.68267    1519.1273    -5339.731    2.1746675   0.11437885   0.11554532 
   23900   -947.81582    48.757675   -899.05814    1746.3231   -335.72709    2.1761556  0.077059062    0.1075475 
   24000    -947.6454    44.267353   -903.37805     1585.496    4427.2632    2.1940765  0.097342587   0.11347381 
   24100   -953.47765    46.183832   -907.29382    1654.1374   -2274.5431    2.1871901   0.12552285   0.11285274 
   24200    -943.4258    45.026836   -898.39897     1612.698   -3798.7129    2.1616434  0.048441891   0.12189087 
   24300   -947.01001    43.304787   -903.70522    1551.0204     1594.087    2.1838549  0.040380007   0.12350954 
   24400    -949.3756    43.440804   -905.93479    1555.8921    2571.9053    2.1925879  0.087491114   0.11566212 
   24500   -943.82487    46.009398   -897.81547    1647.8898    -2968.154    2.1637356   0.43791451   0.13767974 
   24600   -947.84207    43.607841   -904.23423    1561.8747   -1031.7801    2.1765644   0.36394856   0.12096845 
   24700   -948.73177    43.517978    -905.2138    1558.6562    2555.5627    2.1899656   0.10005319    0.1192369 
   24800   -944.83017    47.136228   -897.69394    1688.2487    2289.8292    2.1815017   0.23141841   0.11757678 
   24900    -947.2976     42.81625   -904.48135    1533.5228   -2361.6654     2.174014  0.081425991   0.11242685 
   25000   -949.23076    43.123346   -906.10741    1544.5219   -8015.7655     2.163952   0.18287894   0.11374644 
   25100   -942.69472      43.9368   -898.75792    1573.6568    7552.9162    2.1882366  0.085982169   0.12408614 
   25200   -949.15883    45.040801   -904.11803    1613.1981    10118.791    2.2084624   0.02872113    0.1070696 
   25300   -952.37603    44.409266   -907.96676    1590.5789   -8179.6706    2.1680263  0.082970942   0.11640131 
   25400   -946.65632    45.923981   -900.73233    1644.8304   -10661.518    2.1519503   0.14927723   0.12589417 
   25500   -944.84934    42.082068   -902.76727    1507.2271    9848.7907    2.1979465   0.29366175   0.12897528 
   25600   -949.34402    41.952264   -907.39176     1502.578    11700.498    2.2107341   0.12875034    0.1181881 
   25700   -943.11328    43.757509   -899.35577    1567.2353     -4597.56    2.1561459   0.28435024   0.12142953 
   25800    -948.5546    45.658027   -902.89658     1635.305   -8026.2312    2.1576742   0.15097104   0.11819498 
   25900    -949.7881    43.560418   -906.22768    1560.1762    5866.2911    2.1994183    0.2118173   0.11903891 
   26000    -943.3813     46.03405   -897.34725    1648.7727     6530.887    2.1830812   0.20039059   0.13105595 
   26100   -944.57242    42.435212   -902.13721    1519.8754   -1335.1201    2.1678051  0.055335625   0.12023444 
   26200   -947.93192    41.339467   -906.59245    1480.6298   -4472.1082    2.1720567  0.012650068   0.11881043 
   26300   -948.69169    50.193208   -898.49848    1797.7387    1517.9965    2.1822754   0.04335598   0.12320199 
   26400   -946.76995    45.295797   -901.47415    1622.3312    4817.2546    2.1891522   0.45517432   0.12637798 
   26500   -950.43869      43.6197   -906.81899    1562.2995   -3057.9985    2.1753634  0.098143488   0.12676067 
   26600    -945.4166     45.69163   -899.72497    1636.5085   -3516.7234    2.1657385   0.17922861   0.11490407 
   26700   -943.30035    41.830438   -901.46991    1498.2146    5047.1777    2.1832389   0.26205222   0.12858698 
   26800   -949.28817    42.263606   -907.02457    1513.7291    2826.3475    2.1903968  0.048022075   0.11145034 
   26900   -944.67334    44.465258   -900.20808    1592.5843   -790.50152    2.1699622   0.23608893   0.11563712 
   27000   -944.72661    42.576507    -902.1501    1524.9361   -1184.3406    2.1695935   0.15958678   0.12230842 
   27100   -950.23723    42.580823   -907.65641    1525.0907    1622.4388    2.1899782  0.041678898   0.10251326 
   27200   -942.60984    42.850332    -899.7595    1534.7435    2474.8798    2.1764424    0.1774044   0.11670407 
   27300   -947.96451    45.261842   -902.70266     1621.115   -2077.5788    2.1749321   0.15982149   0.12885781 
   27400   -950.57192    42.502627   -908.06929      1522.29    27.527544    2.1851928  0.065976899   0.11826234 
   27500   -945.28562    45.926202   -899.35942      1644.91    934.24202    2.1741219   0.16659544   0.12973563 
   27600   -945.49726    42.705241   -902.79202    1529.5469    3134.5786    2.1811476  0.029128656   0.13044966 
   27700   -950.18477    42.461929   -907.72285    1520.8323   -1739.8019    2.1811775  0.094097522   0.11334281 
   27800   -941.96592    43.130958   -898.83496    1544.7945   -2542.0219    2.1626261   0.16289242   0.13443615 
   27900   -947.22082    44.504168   -902.71665    1593.9779    4478.3684    2.1878994   0.13931093   0.12788872 
   28000   -950.22909    44.028145   -906.20094    1576.9285    3563.4246    2.1913978   0.13278953    0.1173517 
   28100   -946.50248    48.555655   -897.94682    1739.0875     -10004.7    2.1481262   0.20778149   0.11870689 
   28200   -945.69562    43.077564   -902.61806    1542.8821   -443.16247    2.1726941   0.15171873   0.11760264 
   28300    -949.6181    44.806308    -904.8118    1604.7995    10678.607    2.2097061   0.13265089   0.11739601 
   28400   -944.74033    45.992659   -898.74767    1647.2902    1810.3526    2.1786103   0.30143513   0.13735385 
   28500   -944.27871    43.322922   -900.95579      1551.67   -11962.385     2.139859  0.093836271   0.13509865 
   28600   -948.56364    41.488484   -907.07516     1485.967    -2264.602    2.1781607  0.093364261   0.13199285 
   28700    -945.8266    46.178738   -899.64787    1653.9549    13041.747    2.2079056  0.091109907   0.13209159 
   28800    -944.4038    42.656998    -901.7468     1527.819    1098.4026    2.1772786  0.084570673   0.13594785 
   28900   -952.85305    43.701818   -909.15123    1565.2406   -10561.396    2.1649397   0.20675652   0.12145393 
   29000   -950.11783    48.206753   -901.91108    1726.5911   -2962.8657    2.1747841  0.085916451   0.13097127 
   29100   -946.45778    46.229334   -900.22844    1655.7671    7310.1322    2.1952594   0.14861602   0.12706645 
   29200   -949.91087    41.843094   -908.06778    1498.6679    1246.5945    2.1904757    0.1206014   0.11885361 
   29300   -945.15499    44.118164   -901.03682    1580.1527   -6354.9447    2.1612999   0.27329249   0.13601229 
   29400   -948.77531    48.177246   -900.59806    1725.5342   -1194.5861    2.1752076    0.1807567   0.11669778 
   29500   -949.51428    43.156653   -906.35763    1545.7148    6467.5781    2.1984837   0.28673848   0.11858638 
   29600   -944.57836    45.683605   -898.89476    1636.2211    752.31119    2.1736707    0.1549636   0.13650737 
   29700   -945.11484     44.47606   -900.63878    1592.9712   -3793.2929    2.1646708  0.090731725   0.12088313 
   29800   -947.75903    41.546259   -906.21278    1488.0363    2381.1544    2.1862852   0.19814001   0.12442038 
   29900   -943.80996    44.022569   -899.78739    1576.7288    6648.0419    2.1873374   0.07826095    0.1183157 
   30000   -945.81374    46.252284   -899.56146    1656.5891   -501.16428     2.178496  0.080565213    0.1277193 
   30100   -947.38534     40.89879   -906.48655    1464.8463   -4228.3591    2.1751923   0.11353879    0.1222027 
   30200   -947.62858    46.781166   -900.84741    1675.5317    1368.7564    2.1819291  0.039306199   0.12733301 
   30300   -943.75443    46.418935   -897.33549    1662.5579    10527.088    2.2014019   0.16964065   0.11324613 
   30400    -951.1351    45.146155   -905.98895    1616.9716   -4823.5046    2.1767707   0.46449199   0.10965403 
   30500   -946.99543    43.964702   -903.03073    1574.6562   -15207.474    2.1429537   0.32732958   0.12155831 
   30600   -944.54276    46.811888   -897.73087    1676.6321    5515.8785    2.1855579    1.7219248   0.14107208 
   30700   -951.83835    46.450884   -905.38747    1663.7022    15314.725    2.2252181   0.17839654   0.12496107 
   30800   -950.08574    43.720138    -906.3656    1565.8968   -6251.4482    2.1723492  0.014609262   0.11955547 
   30900   -943.90764    43.661868   -900.24577    1563.8098   -9776.7646    2.1458221   0.10338932   0.11980248 
   31000   -950.20815    45.911479   -904.29667    1644.3827    1334.6381    2.1929579  0.044398282   0.11321817 
   31100   -950.51219    43.479858   -907.03234    1557.2908    10034.797     2.212514   0.15954243    0.1221192 
   31200   -944.52771     45.72724   -898.80047    1637.7839   -5096.7836    2.1602676   0.32747728   0.11976023 
   31300   -949.07371    45.267228   -903.80648     1621.308   -8853.5658    2.1588324  0.015472363    0.1116294 
   31400   -951.81955    46.313962   -905.50558    1658.7981     1912.711     2.192937  0.073960067  0.099901764 
   31500   -947.15457    50.864856   -896.28972    1821.7947    3746.5195    2.1844926  0.079632345   0.11170511 
   31600   -945.16389     42.42026   -902.74363    1519.3399   -608.74703    2.1750683   0.18354631   0.14126063 
   31700   -948.68643     42.92339   -905.76304    1537.3602   -5840.8159    2.1666795   0.25110175   0.11594692 
   31800   -948.45104    50.848832   -897.60221    1821.2208   -451.47279    2.1752138  0.069035766    0.1204282 
   31900   -951.30165    48.572013   -902.72963    1739.6734    5092.9295    2.1970241  0.035684446   0.10352356 
   32000   -948.61734    42.516275   -906.10106    1522.7788    -3300.905    2.1719077   0.12901495   0.10242481 
   32100   -945.95343    45.985204   -899.96822    1647.0232    -6708.257    2.1565647    0.3423847   0.12346963 
   32200     -947.593    47.085926   -900.50708    1686.4471    2328.9463    2.1863764  0.067435987   0.12759415 
   32300   -948.93412    42.124721    -906.8094    1508.7548    10142.956    2.2125302  0.096647703   0.13017536 
   32400   -945.99212    44.931634   -901.06049    1609.2882   -5361.3219    2.1623784  0.099130738   0.12394812 
   32500   -944.07159    42.445792    -901.6258    1520.2544   -13008.009     2.139239   0.17219272   0.12193501 
   32600   -951.04932    42.901234   -908.14809    1536.5666    8154.6406    2.2111151    0.1309039   0.11373337 
   32700   -947.10798    45.590287   -901.51769    1632.8787    18942.724    2.2256896   0.24050203    0.1235881 
   32800   -945.55767      44.5252   -901.03247    1594.7312   -7589.3489    2.1566555   0.11385061   0.12481292 
   32900   -950.81385    44.958345    -905.8555    1610.2449   -11647.184    2.1537819   0.10379711    0.1082919 
   33000   -950.42943    45.667995   -904.76143     1635.662    6071.7212    2.1975781  0.022496919   0.10331898 
   33100   -945.42605    47.694025   -897.73203     1708.227    5521.7523    2.1838022  0.028130666   0.12027335 
   33200   -947.04805    42.437108   -904.61094    1519.9433    -4561.676    2.1690592  0.093288957   0.11718285 
   33300   -946.76723    42.528832   -904.23839    1523.2285   -2659.3623    2.1674303   0.13225376   0.11697713 
   33400   -944.09956     48.13454   -895.96502    1724.0047    2204.5038    2.1736135   0.38840656   0.12614249 
   33500   -946.71251    43.154457   -903.55806    1545.6362    8212.6174    2.1952912   0.13814548   0.11435803 
   33600   -947.95001    42.812976   -905.13704    1533.4055   -3454.7984    2.1703194   0.39932527   0.12090873 
   33700   -945.73776    48.324298   -897.41346    1730.8011    -8270.861    2.1509698  0.061419089   0.12484821 
   33800   -946.56227    41.501993   -905.06027    1486.4509    5679.1355    2.1954821   0.18095947   0.11918577 
   33900    -946.8078    41.819964   -904.98784    1497.8395    5876.6668    2.1923318  0.021886886   0.11040591 
   34000   -945.95061    45.740112    -900.2105    1638.2449   -4482.9982    2.1588598  0.017688801   0.10406992 
   34100   -947.01667    46.363319   -900.65335    1660.5659   -6357.8127    2.1585726  0.019860184   0.12732003 
   34200   -948.13674    41.024021   -907.11272    1469.3316    11556.963    2.2085857   0.11599977   0.11511266 
   34300   -947.68946    47.189405   -900.50005    1690.1534    6520.2541    2.1937353  0.078351699   0.12316913 
   34400   -943.65116    41.371756   -902.27941    1481.7863   -11016.697    2.1432979  0.096620783   0.13044614 
   34500   -950.06429    39.821407   -910.24289    1426.2584   -8473.7791     2.167638   0.15793009   0.12720274 
   34600    -947.6864    44.385811   -903.30059    1589.7388     13578.09    2.2159332   0.16590175   0.13070858 
   34700   -948.00802    47.467619    -900.5404     1700.118    6767.4742     2.193032  0.064875019   0.12032003 
   34800   -947.97618    41.544046   -906.43213    1487.9571   -8892.9855    2.1606093  0.064717201   0.12204329 
   34900   -950.50185    44.224292   -906.27756    1583.9538   -3343.0522    2.1773304   0.10361218   0.10505992 
   35000   -947.50242    48.408864   -899.09355    1733.8299    2232.1428    2.1827864   0.27906802   0.11916714 
   35100   -949.66029     45.53742   -904.12287    1630.9852     106.6956    2.1860785    0.2821938   0.12011157 
   35200   -949.89792     42.79693   -907.10099    1532.8308   -1590.9388    2.1800122   0.10301456   0.12054294 
   35300   -946.12307    48.593493   -897.52958    1740.4427   -5333.2333    2.1651567   0.10472346   0.12994667 
   35400   -947.95085    45.702999   -902.24785    1636.9157    3219.8058     2.191191   0.02717172   0.12085048 
   35500   -949.00145    43.548518   -905.45293      1559.75    2516.0154    2.1883768   0.10896447   0.11577895 
   35600   -943.37846    46.709651   -896.66881    1672.9703   -4498.9835    2.1566156   0.13815351   0.12435623 
   35700   -945.48332     44.34964   -901.13367    1588.4433    1247.6528     2.176667  0.056528756    0.1038025 
   35800   -948.42686     43.83394   -904.59292    1569.9728    4755.8485    2.1902937    0.1158996   0.10734151 
   35900   -944.42987    44.432133   -899.99773    1591.3979    2217.0536    2.1786491   0.17028233   0.12043732 
   36000   -944.78888    46.630265   -898.15861     1670.127   -7613.8263    2.1531211  0.042566971    0.1107292 
   36100   -945.96444    39.480634   -906.48381    1414.0531    989.23318    2.1840612   0.17139238   0.12477282 
   36200     -947.954    46.828341   -901.12566    1677.2214    11795.808    2.2085638  0.041784849   0.11243717 
   36300   -946.29357    45.527783   -900.76579    1630.6401      -1022.3    2.1731739   0.36357227   0.12037394 
   36400   -949.40209    39.787288    -909.6148    1425.0364   -12033.656    2.1588253   0.10544704   0.11947725 
   36500   -950.50816    45.893454    -904.6147    1643.7371   -962.58228    2.1811942   0.13436025   0.11540753 
   36600   -946.36746    46.744184   -899.62328    1674.2072    10851.953    2.2055376   0.03600455   0.12940245 
   36700   -948.80191    42.466582   -906.33533     1520.999   -1867.2999    2.1823189  0.057795987   0.10880459 
   36800   -951.11329    43.539588    -907.5737    1559.4301   -9955.2842    2.1658414  0.085917641    0.1142969 
   36900    -943.7478    43.362288   -900.38551    1553.0799    967.24645    2.1764401   0.28590475   0.11776542 
   37000   -947.67004    44.533428   -903.13661    1595.0259    6075.9478     2.194742    0.1468151   0.12074951 
   37100   -951.12163    42.143718   -908.97791    1509.4351   -2554.6484    2.1864323  0.037069738   0.11368026 
   37200   -947.03423    47.449463   -899.58477    1699.4677   -5389.4988    2.1616376   0.18063564   0.12678169 
   37300   -949.14247    47.537864   -901.60461    1702.6339    3455.4937     2.187616  0.075155509   0.12177469 
   37400    -949.4119    43.345373   -906.06653    1552.4741    1539.8238    2.1939901   0.16836254   0.11748869 
   37500   -943.60291    45.474376   -898.12854    1628.7272   -981.68383    2.1690224   0.10119736   0.13343639 
   37600   -945.77568    45.980767   -899.79492    1646.8643   -1721.9904    2.1692304   0.19491322    0.1311648 
   37700   -946.77751     41.73127   -905.04624    1494.6628    564.48398    2.1840613  0.035801062   0.11804125 
   37800   -947.36572    46.331364   -901.03435    1659.4214    2228.4816    2.1813311   0.49131148   0.10274135 
   37900   -943.81185    46.556503   -897.25535    1667.4851   -3653.5714    2.1663292 0.0040520785   0.12930704 
   38000   -949.41891    43.822409    -905.5965    1569.5598   -1273.5111    2.1844038   0.36519369   0.11918628 
   38100   -945.80409    43.437717   -902.36637    1555.7815     3183.373     2.186693  0.064643622   0.13119262 
   38200   -944.73793    47.982428    -896.7555    1718.5566   -2704.8344    2.1682001  0.059469292   0.11855317 
   38300    -949.7119    43.523358   -906.18854    1558.8488   -1187.5511    2.1809609   0.17875136   0.11821669 
   38400   -947.12841    43.009883   -904.11852     1540.458   -1842.4889    2.1775401  0.074715086   0.12267172 
   38500   -948.42742    49.189105   -899.23832    1761.7753    1768.7946    2.1854627  0.068437875   0.13521261 
   38600   -951.54211    44.638031   -906.90408    1598.7724    1212.3335     2.191425  0.063383725   0.11357801 
   38700   -944.16177    38.148041   -906.01373    1366.3245   -4512.1189    2.1627214  0.051624366   0.11220375 
   38800   -945.53691    44.729566   -900.80734    1602.0508    61.303139    2.1733243  0.052523992   0.11371936 
   38900   -950.22964    45.769165   -904.46047    1639.2855     7564.597    2.2022676   0.11066661   0.11131684 
   39000   -949.51835    40.299086   -909.21926    1443.3671    2799.4641    2.1910049  0.038510286   0.12106918 
   39100   -946.72267    45.847687   -900.87498    1642.0979   -11016.211    2.1480364  0.014086949   0.11652079 
   39200   -948.18063    45.349986   -902.83065     1624.272    315.78245    2.1768902 0.0090336018    0.1159664 
   39300   -950.74649    43.630385   -907.11611    1562.6822    10245.063    2.2119918  0.082425524   0.10924738 
   39400   -945.48189    47.867935   -897.61396    1714.4558   -2718.0941    2.1664906   0.12398554   0.13298555 
   39500   -945.71519    43.664821   -902.05037    1563.9155   -7746.5406    2.1591136  0.033188228   0.12992665 
   39600   -947.35455    41.999512   -905.35503    1504.2702    2618.5696    2.1869949  0.019394092   0.13185461 
   39700   -942.87048     43.82653   -899.04395    1569.7074    12132.803    2.1950847   0.02482907   0.11176602 
   39800    -945.1741    46.188218   -898.98588    1654.2945   -2324.2133    2.1694639   0.13572077    0.1110719 
   39900   -952.97449    47.084259   -905.89023    1686.3874   -13217.272    2.1561371  0.021474748   0.10524545 
   40000   -946.53548    45.071113   -901.46437    1614.2838    3348.1468    2.1833036   0.10157184   0.11024702 
   40100   -944.15455    48.839535   -895.31501     1749.255    8524.2004    2.1945954  0.070916322   0.12134252 
   40200   -946.90395    42.105613   -904.79834    1508.0704   -89.551088    2.1763639   0.17256594   0.11943268 
   40300   -944.81793    40.743921   -904.07401    1459.2995   -9396.4198    2.1471456  0.058591393   0.13412352 
   40400   -945.79693    46.969384   -898.82755     1682.273    1117.8848    2.1753897    0.0813289   0.11366953 
   40500   -949.37588    42.131452   -907.24443    1508.9958    9651.8274    2.2074623   0.21834738   0.12277045 
   40600   -947.10998    41.396055   -905.71392    1482.6566   -408.65045    2.1749878   0.11416878   0.11583816 
   40700   -945.87443    44.987802   -900.88663    1611.2999   -3173.5971    2.1652844  0.058313911   0.10480741 
   40800   -948.14944    42.874461   -905.27498    1535.6077    1445.7248    2.1830677  0.056284983   0.11477831 
   40900   -950.37587    41.852576    -908.5233    1499.0075    3920.9569    2.1945763   0.17080785   0.10335251 
   41000   -947.33442    46.905088   -900.42933    1679.9701   -3950.1524    2.1670309   0.05427247   0.11463088 
   41100   -949.66561    45.696827   -903.96879    1636.6946   -7337.3405    2.1659244  0.044034245   0.11249741 
   41200   -951.07255    42.926833   -908.14572    1537.4835     2646.128    2.1934071   0.15257042   0.11196961 
   41300   -941.58643    43.302862   -898.28357    1550.9515    5070.7485    2.1763065   0.42843727   0.13547564 
   41400   -943.92739    42.326667   -901.60072    1515.9877    2010.2508    2.1730585   0.13992299   0.13200218 
   41500   -948.15704    42.206497   -905.95054    1511.6836   -2643.7586    2.1759007  0.038239745   0.11083667 
   41600   -947.94229    46.379704   -901.56258    1661.1528    2345.7166    2.1836376   0.12566921   0.12746552 
   41700   -947.83363    49.614156   -898.21948    1776.9991    171.97314    2.1772628  0.047579317   0.12512707 
   41800    -947.0211     42.38637   -904.63473    1518.1261   -4197.4864    2.1677545   0.17050058   0.11389609 
   41900   -949.88167    46.617061   -903.26461    1669.6541   -5963.6016    2.1717643  0.026023429    0.1325204 
   42000   -942.13149     47.50928   -894.62221    1701.6101    6351.7855    2.1823993   0.24957707   0.12112298 
   42100   -949.52384    46.459847   -903.06399    1664.0232    5622.1845    2.1965875   0.23415024   0.10726845 
   42200   -948.82142    44.057166   -904.76426    1577.9679   -10308.539    2.1594687  0.024941285    0.1236228 
   42300   -944.19712    46.311284   -897.88584    1658.7023   -7718.8466    2.1535943   0.21910676    0.1186018 
   42400   -947.06546     43.44988   -903.61558    1556.2171    12750.268    2.2112976   0.15984103   0.11676507 
   42500   -946.54881    40.922688   -905.62612    1465.7023    4794.5284    2.1946205   0.22818327   0.12273674 
   42600   -946.73076    44.508922   -902.22184    1594.1482   -9339.9957    2.1533397   0.41239127   0.11500603 
   42700   -945.34777    46.256165    -899.0916    1656.7281   -2789.4094    2.1641949  0.077093523   0.10191417 
   42800   -950.08769      41.7981   -908.28959    1497.0564    9911.2134    2.2139598   0.15590929   0.10975495 
   42900   -946.58538    44.080743   -902.50463    1578.8123    2675.5446    2.1805019  0.072411253   0.11216765 
   43000   -945.74241    44.434898   -901.30751    1591.4969   -5474.9002    2.1603611   0.28951692   0.11918187 
   43100   -950.83174    42.330076   -908.50167    1516.1098    -2334.405    2.1837071   0.01966674   0.11266223 
   43200   -946.81375    42.839179   -903.97457     1534.344    6345.2499    2.1937302   0.32971874   0.11886601 
   43300   -947.61192    47.129283   -900.48264         1688   -2073.2697    2.1756074  0.095098571    0.1186569 
   43400   -946.59696    40.367592   -906.22937    1445.8207   -1147.6616    2.1747232  0.020928212   0.12161382 
   43500   -948.55615    43.317381   -905.23877    1551.4715   -369.95477    2.1830176   0.22475771   0.12356108 
   43600   -947.00797    48.235057   -898.77292    1727.6048   -334.86406    2.1741431   0.19758589   0.12557247 
   43700   -949.33128    44.546486   -904.78479    1595.4936   -3652.9111    2.1750205  0.067023381   0.10711019 
   43800   -946.01064    41.427085   -904.58356     1483.768    843.20379     2.179583   0.17916807   0.11794324 
   43900   -946.37509    49.782061   -896.59303    1783.0129   -1565.3214    2.1695713   0.13531575   0.12139552 
   44000   -951.46471    47.393633   -904.07107    1697.4681   -704.34595     2.183977   0.14857692   0.11967638 
   44100   -948.24842    43.823054   -904.42537    1569.5829   -1246.5878    2.1775986   0.12959097   0.10552035 
   44200   -941.23473    44.766873   -896.46786     1603.387    -2037.954    2.1599985   0.28630894   0.13356667 
   44300   -950.57524    45.826996   -904.74824    1641.3568    4419.3003     2.196701   0.10889672   0.12061554 
   44400   -948.48961    44.124871   -904.36474    1580.3929    959.08138    2.1828714   0.06582286   0.11006862 
   44500    -944.1776    44.217652   -899.95995     1583.716   -7587.2357    2.1522535   0.38944462   0.13702741 
   44600   -938.88703     44.64765   -894.23938    1599.1169    2488.8202    2.1636587    1.2286961   0.13788653 
   44700    -948.5226    44.273957   -904.24865    1585.7326    12543.394    2.2108532   0.59781142    0.1227641 
   44800    -945.5387    43.604647   -901.93405    1561.7603   -4444.6357    2.1646755    10.160238   0.13998991 
   44900   -944.10987    44.259297   -899.85057    1585.2075   -13358.001    2.1396761    7.7076842    0.1581621 
   45000   -953.95551    45.062467   -908.89305    1613.9742    3302.0871    2.2011545    5.1805189   0.14929487 
   45100   -946.30456    43.976494   -902.32807    1575.0785    10918.022    2.1995956    9.0627599   0.14472444 
   45200   -946.01099     45.71901   -900.29198    1637.4891   -4307.8383    2.1655359     7.184573      0.14532 
   45300   -946.64395    41.425115   -905.21884    1483.6974   -5925.6511    2.1609015    5.1150418    0.1323853 
   45400   -950.11103    43.748272   -906.36276    1566.9045     3639.984    2.1928964    4.7959042   0.12619985 
   45500    -945.7174    47.494722   -898.22267    1701.0887    3959.2117    2.1821935    5.1230791   0.14915964 
   45600   -944.77314    41.740221   -903.03292    1494.9833   -2522.2707    2.1667449    10.086123   0.15972837 
   45700   -950.12046    44.133809   -905.98665     1580.713   -4210.3518    2.1712542    5.9524028   0.14294458 
   45800   -940.87391    44.621298   -896.25261    1598.1731    5688.8529    2.1736658    4.1638323   0.14304017 
   45900   -945.33987    45.578898   -899.76098    1632.4708    6407.2092    2.1883801    7.5632819   0.15006909 
   46000   -944.99295    40.802886   -904.19007    1461.4114    1074.4392    2.1797556    6.6717452    0.1250697 
   46100   -939.83817    43.082103   -896.75607    1543.0447   -2875.5071    2.1579109    5.5382498   0.13158983 
   46200   -944.56282     43.92592    -900.6369    1573.2672    1314.4934    2.1754059    6.1587814   0.13056455 
   46300   -948.65541     43.79796   -904.85746    1568.6841    3328.3985     2.190046    6.4904275   0.13223478 
   46400   -943.19733    42.724439   -900.47289    1530.2345    3704.3783    2.1804461    5.3846157   0.13037522 
   46500   -944.11801    45.513234   -898.60478     1630.119   -3738.8273    2.1640386    5.4740487   0.14372262 
   46600   -949.27307    42.136914   -907.13616    1509.1915    1713.3569    2.1910013    7.0375214   0.12425612 
   46700   -946.59072    44.510893   -902.07983    1594.2188    2612.9428    2.1836485    7.2961693    0.1189664 
   46800   -942.57724    42.377292   -900.19994    1517.8009    2.1187395    2.1718093    6.5241583   0.15096078 
   46900   -949.15714    39.815795   -909.34135    1426.0574    1603.9289    2.1916022    7.8138132   0.12251542 
   47000   -947.35436    43.995917   -903.35844    1575.7742    73.521758    2.1784831    6.7396265   0.12648755 
   47100   -946.39517    45.297872    -901.0973    1622.4055   -1152.3855    2.1764916    6.2211515   0.13413068 
   47200   -950.36606    41.867412   -908.49865    1499.5389    50.571893    2.1867773    5.4589537   0.12426468 
   47300   -950.46781    45.791402   -904.67641     1640.082   -2252.2294    2.1780862     6.303692   0.12954112 
   47400   -946.48337    45.831643   -900.65172    1641.5232   -744.36076    2.1765705    6.1991652   0.14058001 
   47500    -949.2921    43.606958   -905.68515    1561.8431    -1172.387    2.1792733     7.117815   0.11564426 
   47600   -947.18831    39.640858   -907.54745    1419.7918   -360.29357    2.1806057    6.6154465   0.12218376 
   47700   -943.86156    44.852205   -899.00936    1606.4433    350.07145    2.1682495    6.5708825   0.12786084 
   47800   -948.73808     45.21621   -903.52187    1619.4807    304.60955    2.1818991     8.501494   0.12138474 
   47900   -950.95111    45.102029   -905.84908    1615.3911    1903.0537    2.1867893    6.3528252   0.12367172 
   48000   -945.97982    49.757399   -896.22242    1782.1296   -5595.8263    2.1531561    5.9164137   0.13120669 
   48100   -944.44347    41.731091   -902.71238    1494.6563    4082.5672    2.1821363    5.2862949   0.12975419 
   48200   -946.53427    42.167053   -904.36722    1510.2709    5447.3043    2.1911223    6.6757725   0.12222242 
   48300   -948.13155     50.39314   -897.73841    1804.8995   -4344.8303    2.1636988    5.0827384    0.1212849 
   48400   -947.64587    47.259063   -900.38681    1692.6483     -6380.09    2.1568734    6.3877909   0.10935959 
   48500   -951.17044    45.817141    -905.3533    1641.0038   -1259.2189    2.1840188    6.1653544   0.11683894 
   48600   -946.38649    46.475856   -899.91064    1664.5966    8832.4038    2.1948868    6.5939241   0.12243213 
   48700   -946.99347    46.311879   -900.68159    1658.7236   -4274.9371      2.16247    5.7358938   0.10350585 
   48800   -949.00874    40.962961   -908.04578    1467.1447   -4926.7281    2.1665891    6.6844965   0.11294785 
   48900   -949.62551    47.714674   -901.91084    1708.9666    3438.9829    2.1875857    6.5563298    0.1284021 
   49000   -945.82846    45.906432   -899.92203    1644.2019    7115.2925    2.1918888     6.271287   0.12515055 
   49100   -950.07294    41.212591   -908.86035    1476.0855   -5839.2861    2.1707269    5.3243835   0.13829615 
   49200   -947.97177    44.029577    -903.9422    1576.9798   -8627.5031    2.1557061    5.0219325   0.11997477 
   49300   -945.58357    45.843579   -899.73999    1641.9508    7767.8729     2.192547    4.9079716    0.1242725 
   49400   -949.01834    42.827319   -906.19102    1533.9192    9712.5908    2.2089967    5.7985092   0.14123004 
   49500   -953.07206    46.021435   -907.05062    1648.3209   -10540.075    2.1657557    6.0630122    0.1071676 
   49600    -948.6558    48.432238   -900.22356    1734.6671   -9962.9456    2.1532277    6.0182351   0.11626763 
   49700   -949.54492    46.025848   -903.51907     1648.479    5794.3574    2.1941174    4.3201739   0.11007745 
   49800   -949.67445    42.606624   -907.06783    1526.0147    5778.5721    2.1998147    4.6221367   0.11689916 
   49900   -946.17605    48.657385   -897.51867    1742.7311   -6247.4441    2.1593845    5.6140851   0.14087662 
   50000   -949.99195    47.004138   -902.98781    1683.5178    -2530.146    2.1760384    5.7046197   0.12783811 
   50100    -944.8788    39.673199    -905.2056    1420.9501    5877.9129    2.1904892    5.4921662   0.11769827 
   50200   -943.73247    47.017679   -896.71479    1684.0028    977.71153    2.1721046    5.5944105   0.13015903 
   50300     -946.482    44.309626   -902.17237    1587.0101   -139.31726    2.1743501    6.0211221   0.10898256 
   50400   -949.85692    44.360947   -905.49597    1588.8483   -2477.7458     2.178477    6.6046449   0.11537141 
   50500   -947.68503    49.289601   -898.39542    1765.3748   -568.62268    2.1761338     6.077324   0.12573777 
   50600   -948.47614    47.123559   -901.35258     1687.795    2170.5617    2.1815043    6.0429767    0.1018769 
   50700   -949.34585     43.17739   -906.16846    1546.4575   -3749.2716     2.171068    5.2522952   0.11391982 
   50800   -946.46106    45.560716   -900.90034    1631.8196   -441.01109    2.1728367    5.4701878   0.12309528 
   50900    -945.4486    45.838112   -899.61049    1641.7549    6477.9318     2.189125    6.2339551   0.11922083 
   51000   -950.78713    42.800737   -907.98639    1532.9672    3137.8077    2.1922782    6.2483637   0.11340761 
   51100   -945.41542    42.793112   -902.62231    1532.6941   -8050.0345    2.1536268    5.9038668   0.11005422 
   51200    -944.2316    43.410744   -900.82086    1554.8154   -1689.3218    2.1669089    5.8234925   0.10422175 
   51300   -951.31222     43.48007   -907.83215    1557.2984    12347.794     2.217604    6.1312659   0.11108014 
   51400   -946.80931    43.643988   -903.16532    1563.1694    1350.5375    2.1821438    5.5356648   0.11995991 
   51500    -946.2451     45.22119   -901.02391     1619.659   -10763.009    2.1465919    7.1604845    0.1225467 
   51600   -945.86478    40.873068   -904.99171    1463.9251     548.7642    2.1769046    5.8614488   0.12619257 
   51700   -949.45726    43.075471   -906.38179    1542.8072    12503.431    2.2153293     5.046741   0.12043313 
   51800   -943.54947    46.132663   -897.41681    1652.3047   -1182.6979    2.1637537    4.6102729   0.12928767 
   51900   -941.60595    37.810946   -903.79501     1354.251   -4984.0617    2.1577753    8.0968974   0.12311291 
   52000    -949.8194    45.475493   -904.34391    1628.7672    1549.6752    2.1873632    6.4142231   0.12178887 
   52100   -946.78678    51.379662   -895.40712    1840.2331    3061.0916    2.1813002    7.3637251   0.11476292 
   52200   -945.97799    43.990528   -901.98746    1575.5812   -2041.3892    2.1720757    6.2634872   0.10712334 
   52300   -947.96084     42.74368   -905.21716    1530.9236   -3945.1603    2.1702012    5.2614659   0.11433567 
   52400   -945.19565     46.71077   -898.48488    1673.0104    1720.5521    2.1749814     6.636144   0.11723814 
   52500   -947.60247    46.920437   -900.68203    1680.5199    1265.5042    2.1810676    7.6899962   0.13440812 
   52600   -950.28861    44.432623   -905.85599    1591.4154   -813.64264    2.1822952    6.1960973   0.12056846 
   52700    -944.4257    43.381097    -901.0446    1553.7536    -165.6422    2.1687904    5.7206264   0.12376014 
   52800    -947.9765    48.874448   -899.10205    1750.5055   -2673.2577    2.1693797    5.1410303   0.12265122 
   52900    -950.1591    42.380137   -907.77896    1517.9028    4455.3187    2.1982198    6.6007467   0.11392715 
   53000   -946.03686    43.816199   -902.22066    1569.3374     915.2685    2.1769174    7.7357238    0.1234952 
   53100   -948.15343    47.301744   -900.85168    1694.1769   -6851.9033    2.1606986    6.2734031   0.11187537 
   53200   -952.47607    42.782328   -909.69374    1532.3079   -1269.1616    2.1889278    7.2581727   0.10184361 
   53300   -951.02787    47.878718   -903.14916     1714.842    4560.3913    2.1949446    6.4142734   0.11584105 
   53400   -945.62821    45.023335   -900.60488    1612.5726   -756.12314    2.1716476    5.0464633    0.1266863 
   53500   -950.67864    43.491741    -907.1869    1557.7164   -12519.069    2.1553829    6.0263433   0.12055082 
   53600   -949.20678    43.792419   -905.41436    1568.4856    1679.1758    2.1887847    7.6160196     0.130945 
   53700   -944.49899    46.200074   -898.29891    1654.7191    13421.247    2.2057243    6.8307714   0.12577498 
   53800   -946.05048    41.741037   -904.30944    1495.0126   -3749.9304    2.1688024    6.8890101   0.11101117 
   53900   -946.57259    40.485555   -906.08703    1450.0457   -12398.512    2.1502089    6.4370065   0.12719661 
   54000   -945.15667    48.205407   -896.95126    1726.5429    2645.0838    2.1771172    6.9375662   0.10821534 
   54100   -947.24271    45.768461   -901.47425    1639.2603    11007.211    2.2041865    6.2070813    0.1268057 
   54200   -949.01148    43.066444   -905.94504    1542.4839   -3009.6228    2.1737201    6.0387169   0.11531758 
   54300   -945.82183    47.271711   -898.55012    1693.1013   -8976.6641    2.1509235    5.8250299   0.12166139 
   54400   -946.17199    45.825222   -900.34676    1641.2933     991.6861    2.1813041     6.266356   0.13865973 
   54500   -948.30938    44.322172   -903.98721    1587.4595    6530.1635     2.192763    6.5766021   0.13797105 
   54600    -942.5692    43.193575   -899.37562    1547.0372  -0.77642744    2.1652055    8.6315613   0.12850731 
   54700   -944.96046    41.897319   -903.06315      1500.61   -6586.7259    2.1616886      7.90458   0.13268944 
   54800   -950.65968    44.081958   -906.57772    1578.8559    2352.8629    2.1926502    5.8441665   0.10992126 
   54900   -947.45198    47.467591   -899.98439     1700.117    4594.1129    2.1903795     5.356687   0.12132402 
   55000   -943.08404    39.877969   -903.20607    1428.2842   -925.71295    2.1682339    4.8362052    0.1294278 
   55100   -950.06047    40.827493   -909.23298    1462.2928   -4188.7534    2.1747337    6.2424122   0.11430716 
   55200    -947.0032    46.188372   -900.81483       1654.3    3818.6227    2.1857862    6.7715132   0.12045484 
   55300   -946.23337    44.332404   -901.90096    1587.8259    7124.9283    2.1936338    5.2336765   0.11619699 
   55400   -951.07917    41.967735   -909.11143    1503.1321   -4761.3897    2.1781564    5.3410573   0.11938218 
   55500   -948.70509    47.995898    -900.7092     1719.039   -13583.819    2.1460986    5.6966575   0.12531196 
   55600   -950.77472    50.200411   -900.57431    1797.9967    9208.2065    2.2092484    6.9440569   0.11494902 
   55700   -946.76435     42.78058   -903.98377    1532.2452    17234.884    2.2233735    5.2112313   0.12374744 
   55800   -942.42769    41.378592   -901.04909    1482.0311   -13486.078    2.1400116     6.212843    0.1183488 
   55900   -941.90908    44.023972   -897.88511     1576.779   -10135.373    2.1416758    4.3089796   0.14150536 
   56000   -947.37598    43.322961   -904.05302    1551.6713    9801.5202    2.2075138    5.9731705   0.12368593 
   56100   -949.26918    45.366275    -903.9029    1624.8554    7312.9939    2.1992708    6.0383631   0.11723464 
   56200   -944.34909    47.466905   -896.88218    1700.0924   -8009.5729    2.1498244    7.7742334   0.13064313 
   56300   -949.04953    43.326633   -905.72289    1551.8029   -2928.4761    2.1755031    6.3534989   0.10860501 
   56400   -951.94036    47.677249   -904.26311    1707.6261    2236.4662    2.1930827    5.8786546   0.11342779 
   56500   -948.90951    49.835847   -899.07366    1784.9393   -1708.3351    2.1785723    6.7295059   0.13363294 
   56600   -948.36463    44.819123    -903.5455    1605.2585   -6361.3055     2.164476    5.6186488   0.11529425 
   56700    -949.0514    42.453794   -906.59761    1520.5409   -2008.0436    2.1774932     5.144298   0.11212475 
   56800   -944.86492    44.782983   -900.08194    1603.9641    7329.0967     2.190072    5.7715642   0.11876611 
   56900   -949.25965    45.390128   -903.86953    1625.7098    -373.6211    2.1818594    3.8310655   0.10086838 
   57000   -949.57503    40.172475   -909.40256    1438.8324   -5779.8473    2.1692879    5.7362441   0.11166766 
   57100   -944.64113    43.041799   -901.59933    1541.6012   -533.79458    2.1673108    6.0507659   0.11728053 
   57200   -949.90124    48.702979   -901.19826    1744.3641    8572.1363     2.202774    6.8249758   0.10951712 
   57300   -950.06442     41.62788   -908.43654    1490.9597    2889.4439      2.19143     7.468481   0.12173801 
   57400   -943.47716    43.619788   -899.85737    1562.3026    -12777.55    2.1347081    6.4411423   0.11789228 
   57500   -942.43697    41.297764    -901.1392    1479.1362     3249.177     2.175777     4.424272   0.11846666 
   57600   -947.42814    43.213954   -904.21419    1547.7671    14690.107     2.216545     6.606601   0.11940576 
   57700   -947.99482    46.261787   -901.73303    1656.9295   -1649.5814    2.1736421    5.4650293   0.11774885 
   57800    -945.4656    47.784784   -897.68082    1711.4777   -12906.855     2.136916    5.4720928   0.11491046 
   57900   -949.52382    44.553887   -904.96993    1595.7587    1297.0038    2.1830046    6.6196328    0.1052035 
   58000   -951.53335    48.421448    -903.1119    1734.2807    4409.0697    2.1953467    5.5668888   0.10393077 
   58100   -943.38005    46.595168   -896.78488    1668.8699   -1709.3102    2.1622602     6.726873   0.10414357 
   58200   -952.05258    45.869312   -906.18327    1642.8724   -4227.0718    2.1787592     8.273411   0.10560582 
   58300   -947.21637     43.48373   -903.73264    1557.4295    1306.0287    2.1800506    5.7576084   0.10210298 
   58400   -940.22927     42.08972   -898.13955    1507.5011    5189.7681    2.1755011    5.2189089   0.12812513 
   58500   -949.01801    43.131031   -905.88698    1544.7971    -1815.315    2.1773283    4.8946563   0.11880333 
   58600   -949.16044    43.387585   -905.77286    1553.9859   -4153.4135    2.1711362    4.1011401   0.11626222 
   58700   -945.75133    45.931612   -899.81972    1645.1038    3358.7285    2.1815754    6.0988865   0.11303756 
   58800   -951.71023    46.351919   -905.35831    1660.1576    3335.1301    2.1940383    6.6575389   0.11111662 
   58900   -950.67576    42.472332   -908.20343    1521.2049   -4412.5596    2.1745875    6.6606244   0.11494027 
   59000   -946.23765    44.992396   -901.24525    1611.4645    -6295.654    2.1618445    7.1866435   0.12901901 
   59100   -946.36195    43.292263   -903.06968    1550.5719    6513.6427    2.1932516    7.1895917   0.11994969 
   59200   -949.54548    41.166616   -908.37886    1474.4389    11554.163    2.2086312    7.6502211   0.10307498 
   59300   -944.20901    45.107723   -899.10128     1615.595     -10618.9    2.1437618    6.5486132   0.12799603 
   59400   -949.15974    46.528533   -902.63121    1666.4833   -8692.9276    2.1613086    5.4105186    0.1268264 
   59500   -951.87508    47.476341   -904.39874    1700.4304    10787.446    2.2126997    7.0795884   0.12767024 
   59600   -944.70877    48.538911   -896.16986    1738.4878    3912.3353    2.1844146    4.2561506   0.14212599 
   59700   -945.58977    44.805573    -900.7842    1604.7731   -9104.2846      2.14916    6.4256148   0.12891357 
   59800   -950.07141    44.453713    -905.6177    1592.1708   -3989.2053    2.1686294    7.7093457   0.12022894 
   59900   -946.90545    46.785724   -900.11973     1675.695      7602.98    2.1923217    5.8315737   0.10690261 
   60000   -947.22695    49.207338   -898.01961    1762.4284   -870.40837    2.1722294    7.3918223   0.12308064 
   60100   -947.67349     41.48056   -906.19293    1485.6832   -929.20578    2.1726882    4.7407781   0.11069004 
   60200   -950.78779    48.519951   -902.26784    1737.8087   -3861.4418    2.1714522    6.7194808   0.10110966 
   60300   -944.65562    46.653838   -898.00178    1670.9713    1260.9329    2.1727261    5.9693775   0.12777746 
   60400   -952.02959    44.394552   -907.63504    1590.0518    3053.7045    2.1915463    5.3781574   0.10526948 
   60500    -949.4712    45.920942   -903.55025    1644.7216   -4590.3863     2.168419    6.9412725   0.11487973 
   60600   -947.91495    47.773917   -900.14104    1711.0884    -6826.088    2.1631852    5.9030353   0.12199641 
   60700   -950.72195    42.223067   -908.49888    1512.2771    4277.8516    2.1929755    6.0559343   0.11197071 
   60800   -947.71649    43.726827   -903.98966    1566.1364     1763.276    2.1800117    7.5466609   0.13252858 
   60900   -946.68599    45.884451   -900.80154    1643.4146   -3185.3253    2.1647441    4.7330358     0.140314 
   61000   -948.44394    43.519257   -904.92468     1558.702   -1118.6929    2.1745655    5.5589691   0.10652923 
   61100   -952.02108    41.984357   -910.03673    1503.7274    7813.3777    2.2062897    6.4083456    0.1073402 
   61200   -942.41595    41.786865   -900.62908    1496.6539    1804.3266    2.1716932    5.7326967   0.11186863 
   61300   -945.54529    42.662331   -902.88296      1528.01    -8094.556    2.1507177     6.521227   0.10443115 
   61400   -950.64106    45.078671   -905.56239    1614.5545    1531.1498    2.1859246    6.8289584   0.11461241 
   61500   -951.08572     39.48197   -911.60375     1414.101    14192.785     2.223252    7.0159022   0.10957886 
   61600   -945.92131     43.80629   -902.11502    1568.9824    -5060.482    2.1611454    4.9189998   0.12795239 
   61700   -944.90412     42.19694   -902.70718    1511.3413   -8032.4688    2.1545905    7.1243645   0.12810983 
   61800   -949.40454    46.737345    -902.6672    1673.9622    7872.8266    2.1969208    6.9934089   0.12019574 
   61900   -950.45951    42.395667   -908.06384     1518.459    8743.5635    2.2080317     6.636212   0.12703834 
   62000   -954.20766    42.414874   -911.79278     1519.147   -6755.2472    2.1778436    6.7874825   0.11097533 
   62100   -946.61003    43.111159   -903.49887    1544.0854   -7382.1554     2.157912    5.8160475   0.11796934 
   62200   -945.15203    42.593143   -902.55889    1525.5319    5508.3606    2.1891765    5.9579646   0.12119311 
   62300   -949.08064    45.981456   -903.09918     1646.889    4764.0873     2.194542    6.5828774   0.11095816 
   62400    -942.1696    49.463602     -892.706    1771.6068   -3574.5074    2.1550095    5.9431182    0.1165922 
   62500   -948.48717    49.545437   -898.94173    1774.5379   -2879.2834    2.1699078    5.7542593   0.12402512 
   62600   -949.15272    46.278336   -902.87439    1657.5222   -26.006328    2.1801477    6.9750105   0.11817321 
   62700   -949.56235    45.641549    -903.9208    1634.7148   -1462.5704    2.1793585     6.652433   0.13030683 
   62800   -944.20355    49.342592   -894.86095    1767.2727   -1313.5722    2.1640809    5.1145141   0.12817551 
   62900   -946.26211    46.687688   -899.57442    1672.1837     789.1095    2.1785654    6.0357534   0.13073885 
   63000   -948.94245      45.1223   -903.82015    1616.1171   -3566.4379    2.1756072    5.3271982   0.12686894 
   63100   -947.01062    44.646142   -902.36448    1599.0629   -483.94809    2.1783583    5.3016798   0.11715883 
   63200   -943.03002    49.680768   -893.34925    1779.3849    1508.6059    2.1702707     5.435541   0.12390949 
   63300   -943.08975    40.958633   -902.13111    1466.9897    6572.4202     2.186643    5.9225146   0.11534378 
   63400   -951.83177    47.780754   -904.05102    1711.3333   -6398.2281    2.1729752    5.5685808   0.11918107 
   63500    -946.1833    45.163703   -901.01959    1617.6001   -595.63331    2.1731284    5.9812497   0.11782302 
   63600   -942.99869    50.354999   -892.64369    1803.5334    3257.5666    2.1741117    6.9213036   0.13058606 
   63700   -947.06655    45.094307   -901.97224    1615.1145    3704.2782    2.1872725    8.4750388   0.11300005 
   63800   -946.00211    42.627686   -903.37443    1526.7691   -4703.1262    2.1644223     5.542311   0.12512255 
   63900   -948.85797    46.714127   -902.14384    1673.1306   -2014.6208    2.1741491    5.8359608   0.12252208 
   64000   -948.85786    44.352288   -904.50557    1588.5381    2882.7811    2.1891659    6.4879449   0.12751563 
   64100   -951.74734    41.401969   -910.34537    1482.8684    3483.3065    2.1958346    4.8668701   0.11729507 
   64200   -948.79726    44.276024   -904.52124    1585.8066   -1605.8017    2.1799794     4.965473   0.10511495 
   64300   -946.94132    45.196414    -901.7449    1618.7717   -1299.6743    2.1763041      6.38898   0.12023853 
   64400   -944.20792    40.727433   -903.48049     1458.709    1548.6079    2.1812236     6.824668    0.1279908 
   64500   -950.88212    40.802803   -910.07932    1461.4084    5101.3964    2.2018275    6.5468425   0.11699912 
   64600    -943.7165     41.36875   -902.34775    1481.6786    1799.7335    2.1752238     5.665947   0.12860419 
   64700   -946.51386    44.365833   -902.14803    1589.0233     -2114.37    2.1715577    6.6774782   0.12485794 
   64800   -951.98913    42.734263   -909.25487    1530.5863    1708.7922    2.1929271    6.2765171   0.11677943 
   64900   -948.28331    43.023043   -905.26026    1540.9294    3297.9682    2.1894904    4.8711761   0.12192524 
   65000   -946.39592    44.980495   -901.41542    1611.0382   -837.38079    2.1727987    6.0955472   0.13040766 
   65100   -948.98983    44.405693   -904.58414    1590.4509   -6716.7615    2.1659669     5.417917    0.1196233 
   65200   -954.37798    44.844479    -909.5335    1606.1666     1122.957    2.1948009    7.1432372   0.11410359 
   65300   -947.24144    47.084825   -900.15662    1686.4077    4358.6709    2.1904417    5.3074309   0.11924201 
   65400   -944.78653    43.445934    -901.3406    1556.0758    26.337468    2.1746252     6.558726   0.12745933 
   65500   -951.64789    46.955811   -904.69208    1681.7868   -10352.005    2.1585199    6.3303284   0.11965995 
   65600   -944.83307    43.776118   -901.05696    1567.9018    4351.4071    2.1821374    6.1874542   0.11535615 
   65700   -942.62485    47.351647    -895.2732    1695.9643    7695.5621    2.1895494    5.9098549    0.1388933 
   65800   -947.87223    45.006251   -902.86598    1611.9607   -6115.1805    2.1652076    6.2509304   0.12587113 
   65900   -946.51653    42.550125   -903.96641    1523.9912   -8275.3964    2.1581612    5.8033127   0.13528838 
   66000   -946.70352    48.727722   -897.97579    1745.2503    6096.9785     2.190501    6.1031438   0.13394624 
   66100   -945.10259    49.183701   -895.91889    1761.5818    7775.8035    2.1898327    5.5628217    0.1214309 
   66200   -943.77239    40.330801   -903.44159     1444.503   -6874.6471     2.157351    6.2976547    0.1229307 
   66300     -947.773    44.287695    -903.4853    1586.2246   -4287.0966    2.1672951    5.8452153   0.12067674 
   66400   -948.95381    49.924539   -899.02927    1788.1159    8435.5245    2.1986028    5.7082519   0.12345832 
   66500   -943.03751    48.760023   -894.27749    1746.4072    383.68767    2.1699562    5.6066714   0.13260059 
   66600    -948.1657    44.479899    -903.6858    1593.1087   -5459.0079    2.1674435    6.7815776   0.11974104 
   66700   -949.35274    46.086907   -903.26583    1650.6659   -80.757565    2.1841347    5.7927638   0.12489394 
   66800   -947.58171    46.454746   -901.12697    1663.8405    2538.3015    2.1853803    6.1287968   0.11818637 
   66900   -940.34386    47.836175   -892.50768    1713.3183    389.97446    2.1604264    5.6057365   0.13789901 
   67000   -948.57034    45.969341     -902.601    1646.4551    2642.9419    2.1857961    6.4952447   0.13056353 
   67100   -949.24826    46.000566    -903.2477    1647.5735    824.58001    2.1811892    6.4004824   0.11660401 
   67200   -947.26996     45.90033   -901.36963    1643.9834   -1387.6654    2.1749954    5.0772451   0.12380815 
   67300   -940.96445    48.657067   -892.30738    1742.7197   -2130.4688    2.1616878     7.171358   0.13176885 
   67400   -946.86804    44.759882   -902.10816    1603.1367    6437.7286    2.1928483     5.778812   0.12150158 
   67500   -948.96142    45.550903   -903.41052    1631.4682   -2555.0982    2.1769613    7.0098875   0.12435838 
   67600   -946.55434    44.430771   -902.12357    1591.3491   -5523.1275    2.1628241     5.651987   0.12513547 
   67700   -943.34738    50.886691   -892.46069    1822.5767    510.93514    2.1708998    6.4802997   0.12998968 
   67800   -945.32616    45.588958    -899.7372    1632.8311     11443.49    2.2046816    5.5367306   0.13963672 
   67900   -944.53314    41.455082   -903.07806    1484.7707   -5931.7031    2.1595299    6.7456826   0.13846097 
   68000   -946.82132    43.303937   -903.51738      1550.99   -12322.347    2.1491434    5.1745293   0.13312705 
   68100   -947.61762    47.196326   -900.42129    1690.4012    12458.053    2.2079508    7.5335222   0.12416908 
   68200   -940.33298    46.608356   -893.72462    1669.3423    8263.3146    2.1806567    5.6587878   0.12105534 
   68300   -944.34332    42.591526    -901.7518     1525.474   -7319.9429    2.1552592    6.1469196    0.1180755 
   68400   -945.47843    41.726374   -903.75206    1494.4874    449.74372    2.1752448    6.8980158   0.11525664 
   68500   -947.72811    44.695929   -903.03218    1600.8461    4498.2947    2.1923948    6.2335546   0.12308205 
   68600   -943.25779    49.247439   -894.01035    1763.8647   -3982.1434    2.1582341    7.3267927    0.1187578 
   68700   -947.88012    45.074393   -902.80573    1614.4013   -1714.2195    2.1743081    5.8994211   0.12539687 
   68800   -947.37727    43.515374    -903.8619    1558.5629    1867.3744    2.1839499    4.8998423   0.12090402 
   68900   -946.66637    48.129477   -898.53689    1723.8233    1914.0617    2.1774285    5.1044851   0.11360215 
   69000   -942.61836     45.01476    -897.6036    1612.2654    -3698.684     2.160457    6.3254968   0.14613229 
   69100   -947.13817    42.514382   -904.62379     1522.711   -941.33975    2.1748153    5.0374469     0.110231 
   69200   -946.32772    44.316356   -902.01136    1587.2511    4506.2741    2.1894707     4.470833   0.11419602 
   69300   -942.16426     45.04487   -897.11939    1613.3439    2329.4965    2.1741664    6.0667127   0.12980073 
   69400   -942.32698    45.341446   -896.98554    1623.9662   -9947.3736    2.1412917    6.3889669   0.12483995 
   69500   -947.60742    43.160762   -904.44666     1545.862    460.51832    2.1774751     5.106808   0.12040368 
   69600   -950.06723    48.327349   -901.73988    1730.9104    14018.641    2.2151189    5.4384086   0.13406401 
   69700    -946.4012    42.599466   -903.80173    1525.7584   -837.42156    2.1736502    6.9804228   0.12498816 
   69800   -953.02994    41.373198   -911.65674    1481.8379   -16852.695    2.1484213    5.8747246   0.11893927 
   69900   -952.09855    44.672197   -907.42636    1599.9961     133.3399     2.186549    6.3711051   0.11709156 
   70000   -949.74034    48.067562   -901.67278    1721.6057    7708.3488    2.2003873    5.5682472   0.10623865 
   70100   -948.39061    44.993298   -903.39732    1611.4967   -2352.6248    2.1723017    6.3555742   0.12993704 
   70200   -949.18241    38.656789   -910.52562     1384.546   -6460.9284     2.168799    6.0684283   0.12244173 
   70300    -949.7866    43.298105    -906.4885    1550.7811    2299.5277    2.1867132    5.9102777   0.11953308 
   70400   -948.66932    46.970516    -901.6988    1682.3136    6557.5113    2.1927377    5.7136499   0.12686428 
   70500   -946.65457    43.323185   -903.33139    1551.6794   -2710.9421    2.1676939    5.8385432   0.11291847 
   70600   -949.64481    40.073467   -909.57135    1435.2863   -7800.4243    2.1659936    5.5944822   0.12127063 
   70700   -948.79526    41.114452   -907.68081    1472.5706    5386.1834     2.193968    5.2907388   0.11432772 
   70800   -945.64334    44.002737    -901.6406    1576.0185    9173.3967    2.1957947    5.2175717    0.1266447 
   70900   -947.94003    44.307048   -903.63298    1586.9178   -6143.7942    2.1629664    4.9007171   0.11667735 
[...]
  186800   -947.90475    48.981959   -898.92279    1754.3561    4157.5295     2.197108  0.021474968   0.12062551 
  186900   -949.74244    44.559446     -905.183    1595.9578    9009.3765    2.2123956  0.041177724   0.11463808 
  187000   -950.84186     43.31535   -907.52651    1551.3987   -7135.7824    2.1733903   0.13252998    0.1262562 
  187100    -941.1186    40.973334   -900.14526    1467.5162    -7368.251    2.1563839    0.1887535   0.13661313 
  187200   -947.71138    43.933682    -903.7777    1573.5452    3683.2954    2.1952044  0.036943246   0.13393647 
  187300    -955.1675    47.673783   -907.49372     1707.502    2403.8156    2.2034666  0.041979368   0.10201543 
  187400   -944.12631    45.690011    -898.4363    1636.4505    -7101.888     2.162412  0.088572352   0.12304934 
  187500   -948.34355    44.824915   -903.51864    1605.4659   -4156.1263     2.177512 0.0051973482   0.12209011 
  187600   -946.55813    40.925043   -905.63308    1465.7866    6586.0782    2.1993939   0.15082204   0.13479286 
  187700   -946.08811    49.348122   -896.73999    1767.4708    -2774.643    2.1706792  0.056332797   0.12976011 
  187800   -949.57916    46.642644   -902.93652    1670.5703   -3288.9635    2.1760711  0.082318865   0.12139979 
  187900   -947.64086    42.455904   -905.18496    1520.6165    -347.3018     2.184805   0.23925622   0.11650372 
  188000   -943.68962    46.446319   -897.24331    1663.5387    1837.8263    2.1787064   0.39656155   0.11889348 
  188100   -947.14393    44.772248   -902.37169    1603.5795    1742.7467    2.1820085  0.082378941   0.11562183 
  188200   -946.29157    40.466573   -905.82499    1449.3659    -2589.744    2.1726515   0.12187769   0.11543082 
  188300   -947.79322    48.137111   -899.65611    1724.0967   -1608.3687    2.1735987   0.13083541   0.11516786 
  188400   -947.52341    46.235074   -901.28834    1655.9727    8118.1588    2.2012043   0.17795285   0.10159873 
  188500   -949.62744    42.651664   -906.97578    1527.6279   -846.14963    2.1847959   0.16000189    0.1078994 
  188600   -947.23018    45.103046   -902.12713    1615.4276   -11530.324    2.1499356   0.10344102   0.11247176 
  188700    -948.1726    48.669582   -899.50302    1743.1679   -1103.2296    2.1767719  0.079650398   0.12482515 
  188800   -951.37068    44.024919   -907.34576    1576.8129    14551.729    2.2224191   0.17553814   0.11301042 
  188900   -947.13483    45.699387   -901.43545    1636.7863   -3223.5474    2.1700659   0.18389145   0.10494393 
  189000   -946.40963    45.171959   -901.23767    1617.8957   -10807.494    2.1477255   0.20254462   0.11867811 
  189100   -948.47822    42.044499   -906.43372    1505.8815    1911.4206    2.1911443  0.021913626   0.10594296 
  189200    -950.1782    45.182974   -904.99523    1618.2903    11470.275    2.2110087   0.10787058  0.099998349 
  189300   -946.95374    47.722831    -899.2309    1709.2587   -5479.5888     2.163607  0.056822628   0.12270169 
  189400   -949.13764    43.415858   -905.72179    1554.9986   -7633.0165    2.1633644   0.12611393   0.10507765 
  189500   -948.18581    44.870038   -903.31578     1607.082     3290.744    2.1894357   0.32637038   0.11431979 
  189600   -945.14735    48.509768   -896.63758     1737.444    3517.7662    2.1811601  0.024364459   0.11696525 
  189700   -947.12896      42.0177   -905.11126    1504.9217    1627.6105    2.1796136   0.22886852   0.11454813 
  189800   -945.06439    41.652179   -903.41221      1491.83    -2436.707    2.1720354   0.42264279   0.12098211 
  189900   -945.41915    48.822791   -896.59636    1748.6553    278.84176    2.1697921   0.12649454   0.10931774 
  190000   -951.12319    45.505301   -905.61789    1629.8349    4038.5795    2.1945054    0.1784598  0.095641041 
  190100   -947.34603    43.267617   -904.07842    1549.6891   -2413.3237    2.1723413  0.078616765   0.11916196 
  190200   -944.71094     46.00992   -898.70102    1647.9085   -3497.3803    2.1606004   0.07071943   0.11002518 
  190300    -952.8786    45.517614   -907.36099    1630.2759    1798.0016    2.1945582  0.094853295   0.10300991 
  190400    -950.6107    46.180576   -904.43012    1654.0208    1856.6508    2.1864744   0.12336763   0.11116576 
  190500   -944.14696    44.135256    -900.0117    1580.7648   -3622.8773    2.1607802   0.14386957   0.12671237 
  190600   -947.46638    40.532205   -906.93417    1451.7166   -3318.8483    2.1744372   0.16224093   0.13022883 
  190700   -951.11989    45.426179   -905.69371     1627.001    5600.8573    2.2011776   0.22947947    0.1155776 
  190800   -946.62449    47.958043   -898.66645    1717.6832    5939.9844     2.189485   0.38843522   0.11802531 
  190900   -945.98648    41.386712   -904.59977    1482.3219   -11914.718    2.1485206  0.041639852    0.1086092 
  191000   -949.96512    43.863892   -906.10123    1571.0455   -7194.8485    2.1654952   0.10216829   0.11674835 
  191100   -942.88746    45.953282   -896.93418    1645.8799    14117.915    2.2011774  0.058826447   0.12086485 
  191200   -948.55257     46.80756   -901.74501     1676.477    6445.4538    2.1956444   0.23424949   0.11848639 
  191300   -948.87786    42.158125   -906.71973    1509.9511   -11905.315     2.156263  0.075012037   0.11735333 
  191400    -942.0933    43.137512   -898.95579    1545.0293   -2516.2054    2.1617052  0.063906447   0.12576683 
  191500   -949.23337     49.04522   -900.18815    1756.6219    8000.1587    2.1976003   0.20960388   0.12516352 
  191600   -947.24599     41.65588   -905.59011    1491.9626    4505.9287    2.1913271  0.047474522    0.1225917 
  191700   -947.73021    46.373669   -901.35655    1660.9367   -7164.6307    2.1572691  0.042900154   0.12788415 
  191800   -945.99547    48.052263   -897.94321    1721.0578   -4210.3915    2.1639808   0.03799282   0.12066502 
  191900   -950.12888    43.531824   -906.59705    1559.1521    9537.4088     2.211691   0.21838436   0.11547086 
  192000   -952.19222    50.396054   -901.79616    1805.0039   -2370.8013    2.1831802  0.046900925   0.11963524 
  192100   -945.64494    44.787768   -900.85717    1604.1354   -10420.948    2.1509903    0.2733005   0.13695739 
  192200   -950.34133    41.104902   -909.23643    1472.2285    733.08314    2.1888048   0.13628088    0.1216268 
  192300   -949.35241    46.961237   -902.39117    1681.9812    5679.5097    2.1982504   0.34776278   0.12451682 
  192400   -946.52925    45.467721   -901.06153    1628.4889   -831.67467    2.1754887   0.13602489   0.13605571 
  192500    -949.5403    41.088608   -908.45169    1471.6449   -5131.8721    2.1718913  0.041640608   0.12957718 
  192600   -948.95588    45.167628   -903.78825    1617.7406    324.71281    2.1822663   0.10966878   0.13603886 
  192700   -949.31253    49.431474   -899.88106    1770.4561    2467.8802    2.1876784   0.18681031   0.12096952 
  192800   -950.46713    44.133379   -906.33375    1580.6976   -1790.2956    2.1862884   0.28203503   0.12669927 
  192900   -945.41275    41.586718   -903.82603    1489.4854   -529.58773     2.178588   0.24493943   0.13789502 
  193000   -943.39601    44.547066   -898.84894    1595.5144    308.95946    2.1722518   0.17719703   0.12594502 
  193100   -948.90277    43.748393   -905.15437    1566.9088    696.20071    2.1868371   0.19622582   0.13713424 
  193200   -947.91044    43.660237   -904.25021    1563.7513    3000.0733    2.1874514   0.01967814   0.12599747 
  193300   -942.41147    45.525514   -896.88595    1630.5588   -2017.6051    2.1640229    0.2159507    0.1389707 
  193400   -948.40499    43.237855   -905.16713    1548.6232   -678.09385    2.1831709  0.092187399   0.14058324 
  193500   -949.53047    46.201081   -903.32939    1654.7552    1641.9942    2.1877392   0.16251654   0.13258399 
  193600   -942.23306    45.420667    -896.8124    1626.8036    821.50349    2.1687729 0.0012758837   0.14479708 
  193700   -947.25457    41.407604   -905.84697    1483.0702    1111.7322    2.1865468  0.090475424   0.12529874 
  193800   -948.96901    44.799071   -904.16994    1604.5402   -2006.2722    2.1807175  0.029528727   0.12272432 
  193900   -939.87116    41.683845   -898.18731    1492.9642     3919.561    2.1760665   0.14531919   0.12198877 
  194000   -950.43928    43.846166   -906.59311    1570.4107    2940.5326    2.1938865  0.091675525   0.12541559 
  194100   -950.16289    44.902853   -905.26004    1608.2574   -6313.8775    2.1674167  0.037211841   0.11890834 
  194200   -939.74328    39.640623   -900.10266    1419.7834    816.16401    2.1662889  0.058303235   0.14114006 
  194300   -949.57978     43.72133   -905.85845    1565.9395    7389.1457    2.2010531   0.49210202   0.12972754 
  194400   -950.97914    43.870464   -907.10868    1571.2809    2285.5499     2.195145   0.26207369   0.11816507 
  194500   -950.43686    49.917746   -900.51911    1787.8726   -10244.451    2.1569373  0.085617441   0.12915703 
  194600   -948.27171    45.061801   -903.20991    1613.9503   -6074.3835    2.1700365    0.2125608   0.13838408 
  194700   -948.61717    42.615886   -906.00129    1526.3465     8288.478    2.2103194    3.2222381   0.14982511 
  194800   -940.88845    44.121762   -896.76669    1580.2815    3234.7664    2.1770296   0.31445113   0.15694896 
  194900    -946.0801    44.640013   -901.44009    1598.8434   -7964.0623    2.1577782   0.54757684   0.14289545 
  195000   -948.00975    43.731618   -904.27813     1566.308   -827.31829    2.1838469    6.2955719   0.14527958 
  195100   -951.66923    44.788716   -906.88051    1604.1694    4822.6904    2.2024938    4.0679903   0.14792945 
  195200   -944.64207    47.830446   -896.81162    1713.1131   -2525.2108    2.1645447    3.4688349   0.15832286 
  195300   -942.52912    43.790761   -898.73836    1568.4263   -1899.9372     2.162079    6.3816162   0.15466443 
  195400   -946.87237    45.207309   -901.66507    1619.1619    734.37234    2.1758607     5.563961   0.14572998 
  195500   -944.30921    40.689867   -903.61935    1457.3635    6996.4025     2.191871    4.4087164   0.15316818 
  195600   -946.81623    46.203315   -900.61292    1654.8352     542.8723    2.1750563    5.6197771   0.16477483 
  195700   -942.43188    47.105368   -895.32651    1687.1435   -9833.0732    2.1438598    5.7455373   0.15287019 
  195800   -947.01311    44.856208    -902.1569    1606.5867   -2353.8236    2.1744111    4.8663709   0.15657063 
  195900   -948.93807    46.736865   -902.20121     1673.945     10901.24    2.2038411    3.8070953   0.14838618 
  196000   -945.41626     48.38262   -897.03364      1732.89    441.81325    2.1699847    5.0770961    0.1367524 
  196100   -941.22388    44.563462   -896.66042    1596.1016   -8370.4463    2.1420717    3.0417673   0.15676419 
  196200   -943.49014     40.19259   -903.29755    1439.5528    319.51785    2.1749925    3.0562951   0.15605498 
  196300   -946.60128    45.593426   -901.00785    1632.9912    9444.3245    2.2036683    7.9232102   0.14779461 
  196400   -943.11671    49.120077   -893.99663     1759.303   -1772.6954    2.1674396    3.1982957    0.1465523 
  196500   -945.71844    43.460658   -902.25778    1556.6032   -8233.3219    2.1578072    7.9041482   0.16436501 
  196600   -946.42828    43.330103   -903.09818    1551.9271   -1830.8618    2.1711877    6.7411046   0.15149894 
  196700   -945.22944    45.907454   -899.32199    1644.2385    10850.772    2.1975492    3.4261867   0.14568791 
  196800   -942.46318    45.071897   -897.39128    1614.3119    828.32636    2.1726037    5.7550154   0.15128412 
  196900   -947.62522    40.546283   -907.07893    1452.2208    -3628.462    2.1724664     4.063642   0.14615609 
  197000   -949.22293    45.154423   -904.06851    1617.2677   -1486.5908    2.1772759    4.9039524   0.15346836 
  197100   -946.16103     46.91432   -899.24671    1680.3008    1828.1214    2.1777887    7.2086316   0.15237847 
  197200   -946.15932    46.852914   -899.30641    1678.1015   -874.25984     2.171784    7.9625161   0.14205456 
  197300   -948.56022    42.422807   -906.13741    1519.4311   -1336.6874    2.1826872    4.5125979   0.14599246 
  197400   -947.04247    46.777207   -900.26526    1675.3899    210.72925    2.1756157    7.3486771   0.14824263 
  197500   -946.68607    47.299862   -899.38621    1694.1095    506.27927    2.1704308    4.2675391   0.14054632 
  197600   -951.01868    43.264146   -907.75454    1549.5648    1237.9567    2.1884279    5.0842207   0.15210232 
  197700   -945.01427    44.394436   -900.61983    1590.0477   -569.60268    2.1698946    5.5616171   0.14790524 
  197800   -944.97762    44.797861   -900.17976    1604.4969   -629.14185     2.168376    8.2401671   0.14993526 
  197900   -950.69979    43.277908   -907.42188    1550.0577    760.19137    2.1882119    13.798991   0.13082789 
  198000   -946.41352    46.042972   -900.37054    1649.0923    255.14869    2.1738759    14.731556   0.12200959 
  198100   -947.32053    46.542344   -900.77819     1666.978   -1270.0147    2.1740518    16.763898   0.12778192 
  198200   -951.79324    44.819411   -906.97383    1605.2687   -1897.4518    2.1843718    15.943351   0.11196988 
  198300   -949.35256    49.884572   -899.46799    1786.6845   -1037.9597    2.1736728     14.44566   0.11947563 
  198400   -945.16121    44.624279   -900.53693    1598.2798    946.92186    2.1783298    16.284224   0.13678193 
  198500   -950.10678    43.441044   -906.66573    1555.9007   -1670.5412    2.1820298    13.887121   0.12458909 
  198600   -943.38706    43.824791   -899.56227    1569.6451    1591.1524    2.1718006    14.457859   0.13380574 
  198700   -942.90897     42.28085   -900.62812    1514.3467    6155.2759    2.1842698    12.234359   0.13136607 
  198800   -951.97794    45.473404   -906.50454    1628.6924   -155.07725    2.1873681    14.036873   0.12149358 
  198900   -945.75191    45.721163   -900.03075    1637.5662   -3664.1544    2.1670083    13.300984   0.13469036 
  199000   -946.28385    45.504222   -900.77963    1629.7962   -4238.3074    2.1695571    13.458575   0.11886965 
  199100   -950.35792    43.284673   -907.07324       1550.3    3607.3792    2.1971166    17.333724   0.11995494 
  199200   -946.02455    46.179049    -899.8455    1653.9661    2653.4111    2.1817886    16.159523   0.13435935 
  199300   -945.31502    43.646837   -901.66818    1563.2714   -3100.9432    2.1670727    14.459449   0.13452131 
  199400   -950.98569    42.685572   -908.30012    1528.8424   -3144.6857    2.1808893    13.962905    0.1230359 
  199500   -947.86592    47.839469   -900.02645    1713.4363    3690.5514    2.1876432    14.098473    0.1320638 
  199600   -945.95135    44.079706   -901.87164    1578.7752      3317.97    2.1847604    14.932588   0.12310252 
  199700   -951.48599    42.894729   -908.59126    1536.3336   -6031.8113    2.1744462    12.956962   0.12285529 
  199800   -948.88002    48.199341   -900.68068    1726.3256   -5076.8529    2.1674098    15.102071   0.12227324 
  199900   -946.02323    45.345282   -900.67795    1624.1036    8719.5461    2.1985315    13.511907   0.11791965 
  200000   -950.40184     43.31657   -907.08527    1551.4425    3949.6638    2.1973696    16.317353    0.1187242 
  200100   -944.98261    45.348583   -899.63403    1624.2218   -8605.1776    2.1532948    17.147505   0.13382516 
  200200   -948.02255    46.909055    -901.1135    1680.1122   -5660.0379    2.1678112    15.967509   0.12488213 
  200300   -950.70257    45.319543   -905.38303    1623.1817    12823.606    2.2144611    13.101838   0.10870154 
  200400   -945.64456     46.78753   -898.85703    1675.7597    4960.5588    2.1870431    14.172496   0.12563987 
  200500   -942.11337    41.671358   -900.44201    1492.5169   -7623.1088    2.1487686    13.970413   0.12816229 
  200600   -949.02979    41.938005   -907.09179    1502.0672   -5303.3357    2.1721091    15.677836   0.12797227 
  200700   -944.11091     43.69547   -900.41544    1565.0133    14147.686    2.2062951    16.902398   0.12244677 
  200800   -945.77098    45.903656   -899.86732    1644.1025    4311.0596    2.1885837    14.568692    0.1299197 
  200900   -947.15949    39.131226   -908.02826    1401.5386   -7051.5851    2.1675266    14.768524   0.12868412 
  201000   -948.89265    46.406341   -902.48631    1662.1068   -4171.8332    2.1718488    15.419149   0.12795484 
  201100   -945.20682    46.296893   -898.90993    1658.1868    3835.0441    2.1866308    14.421771   0.11090312 
  201200   -950.91939    43.119164   -907.80023    1544.3721    1798.3168    2.1935195    13.104883   0.11100557 
  201300   -950.14271    47.580775   -902.56193    1704.1708    -3773.425    2.1703371    14.335992   0.12652411 
  201400   -947.09065    47.374172   -899.71648     1696.771   -1984.5204    2.1710677    12.400288   0.13120396 
  201500   -950.29552     42.91421   -907.38131    1537.0314    3844.8281    2.1965067    14.421436   0.11975383 
  201600   -949.06877    47.255325   -901.81344    1692.5144   -451.52244    2.1816061    15.657891   0.12570694 
  201700   -947.59253    47.458648   -900.13388    1699.7967   -1979.9084    2.1730457     15.95505   0.12604466 
  201800   -948.37719    41.361949   -907.01524     1481.435   -62.317547    2.1854946    13.570341   0.12512778 
  201900   -942.82717    41.747071   -901.08009    1495.2287    5072.4906    2.1861653    14.835949   0.13408128 
  202000   -944.59322     45.24197   -899.35125    1620.4033    2138.6588    2.1807657    13.791678   0.11863797 
  202100   -949.46692    42.667678   -906.79924    1528.2015   -4493.7398    2.1776514    14.764854   0.11258903 
  202200   -946.52144    45.382967   -901.13847    1625.4533   -1831.0206    2.1764782    16.555736   0.11766294 
  202300   -945.65031    47.138067   -898.51224    1688.3146    5202.8927    2.1923958      13.4839   0.12393309 
  202400   -949.43496    43.163433   -906.27152    1545.9576    3110.4823    2.1941608    16.787813   0.13263494 
  202500   -944.62107    43.154715   -901.46635    1545.6454   -6643.3982    2.1597315    13.813628   0.13138649 
  202600   -943.74191    44.787538   -898.95438    1604.1272   -2159.4404    2.1653737    15.962465    0.1221207 
  202700   -951.90104    45.345485   -906.55556    1624.1108    10489.918    2.2153509    16.947944   0.11042231 
  202800   -948.40245    47.249516   -901.15293    1692.3063    2929.7506    2.1882147    12.121326   0.11635184 
  202900   -942.91729     42.16921   -900.74808    1510.3482    -9891.564    2.1492474    13.959252   0.13418963 
  203000   -950.46307    42.236602   -908.22647    1512.7619   -3510.9485     2.181526     16.94027   0.13705565 
  203100   -948.73035    46.576852   -902.15349    1668.2139    12574.489    2.2109369    13.928908   0.11127393 
  203200   -946.71911    47.208222   -899.51089    1690.8273    2050.3313    2.1842686    14.308878   0.11615046 
Loop time of 143.185 on 1 procs for 200000 steps with 217 atoms

Performance: 362.049 ns/day, 0.066 hours/ns, 1396.795 timesteps/s
100.0% CPU use with 1 MPI tasks x no OpenMP threads

MPI task timing breakdown:
Section |  min time  |  avg time  |  max time  |%varavg| %total
---------------------------------------------------------------
Pair    | 138.72     | 138.72     | 138.72     |   0.0 | 96.88
Neigh   | 1.3026     | 1.3026     | 1.3026     |   0.0 |  0.91
Comm    | 0.89424    | 0.89424    | 0.89424    |   0.0 |  0.62
Output  | 0.071049   | 0.071049   | 0.071049   |   0.0 |  0.05
Modify  | 1.8878     | 1.8878     | 1.8878     |   0.0 |  1.32
Other   |            | 0.3081     |            |       |  0.22

Nlocal:    217 ave 217 max 217 min
Histogram: 1 0 0 0 0 0 0 0 0 0
Nghost:    957 ave 957 max 957 min
Histogram: 1 0 0 0 0 0 0 0 0 0
Neighs:    4201 ave 4201 max 4201 min
Histogram: 1 0 0 0 0 0 0 0 0 0
FullNghs:  8402 ave 8402 max 8402 min
Histogram: 1 0 0 0 0 0 0 0 0 0

Total # of neighbors = 8402
Ave neighs/atom = 38.7189
Neighbor list builds = 2191
Dangerous builds = 8
Total wall time: 0:02:25
