LAMMPS (3 Mar 2020)

    # ---------- Initialize simulation ---------------------
    units metal
    atom_style atomic
    dimension  3
    boundary   p p p
    read_data /home/modeler/RemLabs/Lab4/Problem2A_size_7/temp_1550/lammps.data
  orthogonal box = (0 0 0) to (28.63 28.63 28.63)
  1 by 1 by 1 MPI processor grid
  reading atoms ...
  1372 atoms
  read_data CPU = 0.00181103 secs

    pair_style eam
    pair_coeff * * /usr/share/lammps-stable/potentials/Ag_u3.eam
Reading potential file /usr/share/lammps-stable/potentials/Ag_u3.eam with DATE: 2007-06-11

    velocity  all create 1550 87287 dist gaussian

    # ---------- Describe computed properties------------------
    compute msdall all msd
    thermo_style custom step pe ke etotal temp press density c_msdall[4]
    thermo 100

    # ---------- Specify ensemble  ---------------------
    #fix  1 all nve
    fix  1 all nvt temp 1550 1550 0.05

    # --------- Compute RDF ---------------
    compute rdfall all rdf 100 1 1
    fix 2 all ave/time 1 2500 2500 c_rdfall[*] file /home/modeler/RemLabs/Lab4/Problem2A_size_7/temp_1550/lammps.rdf mode vector

    # --------- Run -------------
    timestep 0.001
    run 10000
Neighbor list info ...
  update every 1 steps, delay 10 steps, check yes
  max neighbors/atom: 2000, page size: 100000
  master list distance cutoff = 7.55
  ghost atom cutoff = 7.55
  binsize = 3.775, bins = 8 8 8
  2 neighbor lists, perpetual/occasional/extra = 1 1 0
  (1) pair eam, perpetual
      attributes: half, newton on
      pair build: half/bin/atomonly/newton
      stencil: half/bin/3d/newton
      bin: standard
  (2) compute rdf, occasional, copy from (1)
      attributes: half, newton on
      pair build: copy
      stencil: none
      bin: none
Per MPI rank memory allocation (min/avg/max) = 3.83 | 3.83 | 3.83 Mbytes
Step PotEng KinEng TotEng Temp Press Density c_msdall[4] 
       0      -3910.2    274.68427   -3635.5157         1550    12502.211    10.472245            0 
     100    -3743.881    152.91345   -3590.9675    862.86648    51441.767    10.472245  0.090532179 
     200   -3714.3987     224.7083   -3489.6904    1267.9935    62437.775    10.472245   0.11026743 
     300   -3654.2685    271.89763   -3382.3709    1534.2754    80422.973    10.472245   0.14301443 
     400   -3613.2413    289.88276   -3323.3585    1635.7627    91769.458    10.472245   0.16893459 
     500   -3624.0152    274.50763   -3349.5076    1549.0032     88216.76    10.472245    0.1713244 
     600   -3648.2824    268.93162   -3379.3508    1517.5387    81791.647    10.472245   0.15561783 
     700   -3644.3545    282.48094   -3361.8736    1593.9954    83540.086    10.472245   0.14577864 
     800   -3629.3935    275.89333   -3353.5001    1556.8225    87009.089    10.472245   0.14299212 
     900   -3639.1258    266.85595   -3372.2698     1505.826    84680.303    10.472245    0.1411182 
    1000   -3631.9712    271.75178   -3360.2194    1533.4524    86221.094    10.472245   0.14146424 
    1100   -3627.4801    286.65947   -3340.8207    1617.5741    88430.178    10.472245    0.1384047 
    1200   -3635.8199    262.98725   -3372.8326    1483.9956    84965.235    10.472245   0.13882407 
    1300   -3634.8415    264.46589   -3370.3756    1492.3393    85182.197    10.472245   0.14256983 
    1400   -3629.2714    275.67573   -3353.5956    1555.5946    86822.227    10.472245   0.15396436 
    1500    -3629.079     280.7135   -3348.3655     1584.022    87383.065    10.472245   0.15799036 
    1600   -3630.1445    273.25368   -3356.8908    1541.9274    86551.649    10.472245   0.15243371 
    1700   -3643.5957    280.53442   -3363.0613    1583.0114     83982.95    10.472245   0.13773616 
    1800   -3645.6786    280.03607   -3365.6425    1580.1994    82839.133    10.472245   0.12618014 
    1900   -3645.9006    275.42423   -3370.4764    1554.1755    83014.236    10.472245   0.12451472 
    2000    -3635.353    272.51378   -3362.8392    1537.7522    84999.995    10.472245   0.12940054 
    2100   -3630.2081    271.03395   -3359.1742    1529.4018    86689.413    10.472245   0.13739239 
    2200   -3633.6594     271.6126   -3362.0468     1532.667    85752.265    10.472245   0.14020038 
    2300   -3633.9154    267.42843   -3366.4869    1509.0564    85778.039    10.472245   0.14511241 
    2400   -3634.0845    282.22727   -3351.8572     1592.564    85964.031    10.472245   0.14765301 
    2500    -3630.941    273.64267   -3357.2983    1544.1224    86422.154    10.472245   0.14806158 
    2600   -3646.3569    263.80424   -3382.5526    1488.6057    82123.998    10.472245   0.13466531 
    2700   -3641.6618     271.6857   -3369.9761    1533.0795    83405.197    10.472245   0.12996154 
    2800   -3633.8387    279.43881   -3354.3999    1576.8291    86077.782    10.472245    0.1320599 
    2900   -3638.2162    281.33479   -3356.8814    1587.5278    85605.219    10.472245   0.13394619 
    3000   -3634.1943    266.23885   -3367.9554    1502.3438    85713.129    10.472245   0.14024644 
    3100   -3624.9997    278.25371    -3346.746    1570.1418    88658.529    10.472245   0.14801655 
    3200   -3626.2969    267.45914   -3358.8377    1509.2297    87217.142    10.472245   0.15142256 
    3300   -3638.7076    265.51109   -3373.1965    1498.2372    84266.983    10.472245   0.14985906 
    3400   -3638.4591    283.92922   -3354.5298    1602.1678    85115.312    10.472245   0.14725319 
    3500   -3640.0272    273.72164   -3366.3056     1544.568    84303.779    10.472245   0.14619527 
    3600   -3640.1061    284.34371   -3355.7624    1604.5067    84854.993    10.472245   0.14305655 
    3700   -3633.2046    279.66728   -3353.5374    1578.1183    85880.988    10.472245   0.14522305 
    3800   -3641.9388    279.24755   -3362.6913    1575.7499    84528.263    10.472245   0.13723618 
    3900   -3643.3381     262.4459   -3380.8922    1480.9408    82649.817    10.472245   0.13326188 
    4000   -3641.6932    277.24345   -3364.4498     1564.441    84160.593    10.472245   0.12968172 
    4100   -3629.6772    263.17149   -3366.5057    1485.0352    86887.821    10.472245    0.1408844 
    4200   -3624.6498    279.07288   -3345.5769    1574.7642    88395.183    10.472245   0.15118007 
    4300   -3633.4191    291.13612    -3342.283    1642.8352    86496.219    10.472245     0.149982 
    4400    -3639.251    275.55635   -3363.6946     1554.921    84326.066    10.472245   0.14490522 
    4500   -3637.0038    273.43111   -3363.5727    1542.9286    85183.233    10.472245   0.14159521 
    4600   -3632.5342    277.66661   -3354.8676    1566.8288    86027.583    10.472245   0.14163556 
    4700   -3631.3968    277.79097   -3353.6058    1567.5306    86909.556    10.472245   0.14228857 
    4800   -3642.9403    268.24991   -3374.6904    1513.6919    83209.962    10.472245   0.13855019 
    4900   -3629.9217    275.19599   -3354.7257    1552.8875    86771.845    10.472245   0.14189927 
    5000   -3629.7711    273.88586   -3355.8853    1545.4947    86751.058    10.472245   0.14215552 
    5100   -3643.0851    269.39211    -3373.693    1520.1372    82758.826    10.472245   0.13341194 
    5200   -3643.2023    272.63135   -3370.5709    1538.4157    83409.801    10.472245   0.13098247 
    5300   -3632.2711    276.21535   -3356.0557    1558.6397    86309.664    10.472245    0.1386691 
    5400   -3633.0727    274.91443   -3358.1583    1551.2988    86287.116    10.472245   0.14053783 
    5500   -3647.6971    271.16532   -3376.5318    1530.1431    82532.101    10.472245   0.13383253 
    5600   -3654.9319    281.24585    -3373.686     1587.026    81311.246    10.472245   0.12591243 
    5700   -3627.2786    262.98146   -3364.2971    1483.9629    86924.575    10.472245   0.13880148 
    5800   -3628.5425     271.2777   -3357.2647    1530.7773    87564.247    10.472245   0.14057189 
    5900   -3637.4741    269.23921   -3368.2349    1519.2744     85181.89    10.472245   0.13618224 
    6000   -3640.2203     267.6447   -3372.5756    1510.2768    84094.797    10.472245   0.13261371 
    6100   -3629.8135    275.03208   -3354.7815    1551.9626    87321.138    10.472245   0.13883332 
    6200   -3630.8097    265.57913   -3365.2306    1498.6211    86355.521    10.472245   0.14787602 
    6300   -3635.5917    288.26236   -3347.3294     1626.619    86113.836    10.472245   0.14323438 
    6400   -3631.8459    271.86686    -3359.979    1534.1018    86853.119    10.472245   0.14626741 
    6500   -3630.2757    272.60927   -3357.6665    1538.2911    86603.667    10.472245    0.1433825 
    6600   -3642.9867    272.75957   -3370.2272    1539.1392    83563.262    10.472245   0.13464337 
    6700   -3643.7732    277.78681   -3365.9863    1567.5071     83919.36    10.472245   0.13129861 
    6800    -3624.876    270.32942   -3354.5466    1525.4262    87771.034    10.472245   0.14131982 
    6900   -3630.9054    286.16903   -3344.7363    1614.8067    87115.786    10.472245   0.14001253 
    7000   -3638.6356     277.9358   -3360.6998    1568.3479    84922.422    10.472245   0.13783014 
    7100   -3636.5203    278.91549   -3357.6048    1573.8761    85763.693    10.472245   0.13070723 
    7200   -3633.2957    260.60041   -3372.6953     1470.527    85979.951    10.472245   0.13212331 
    7300   -3635.9095    274.37683   -3361.5327    1548.2652    85760.376    10.472245   0.13327532 
    7400   -3627.7044    286.10502   -3341.5994    1614.4455    88113.089    10.472245   0.14357007 
    7500   -3625.6044     270.4557   -3355.1487    1526.1388    88032.092    10.472245   0.15049011 
    7600    -3641.954    264.41864   -3377.5354    1492.0727    83392.686    10.472245   0.13605376 
    7700   -3647.8485     275.4655    -3372.383    1554.4084      82124.6    10.472245   0.12411067 
    7800   -3634.1535    288.61437   -3345.5391    1628.6053    86794.846    10.472245   0.12762366 
    7900   -3636.6549    273.21146   -3363.4434    1541.6892    84836.976    10.472245   0.13087992 
    8000   -3639.5729    265.25154   -3374.3214    1496.7726    84193.534    10.472245   0.13453203 
    8100   -3628.9297    276.45149   -3352.4782    1559.9721    87734.154    10.472245   0.14174768 
    8200    -3634.581    277.21075   -3357.3703    1564.2565    86003.147    10.472245    0.1410608 
    8300   -3642.3014    266.07336    -3376.228      1501.41    83724.051    10.472245   0.13612541 
    8400   -3643.5209    274.96121   -3368.5596    1551.5627    83064.072    10.472245    0.1352644 
    8500   -3633.7574    277.34204   -3356.4153    1564.9974    86114.194    10.472245   0.14235766 
    8600   -3629.1796    273.01231   -3356.1673    1540.5654    86395.725    10.472245   0.14650209 
    8700   -3635.3527    274.95156   -3360.4012    1551.5083    84920.249    10.472245   0.14464588 
    8800   -3638.8667    288.75922   -3350.1075    1629.4227    85231.305    10.472245   0.14040231 
    8900   -3630.0025    277.74089   -3352.2616     1567.248     86992.14    10.472245   0.14559236 
    9000   -3633.0469    270.50396    -3362.543    1526.4111    85560.378    10.472245   0.14595183 
    9100   -3632.3527    264.81262   -3367.5401    1494.2958    85401.994    10.472245   0.14668676 
    9200   -3640.5725    289.88915   -3350.6833    1635.7987    85086.502    10.472245   0.14116564 
    9300    -3629.058    269.14263   -3359.9154    1518.7294     86642.66    10.472245   0.14689759 
    9400   -3630.4955    277.31266   -3353.1829    1564.8316    86941.538    10.472245   0.13959897 
    9500   -3651.6136    275.62773   -3375.9858    1555.3238    81417.605    10.472245   0.12823265 
    9600   -3640.5481    274.34741   -3366.2007    1548.0991    84405.333    10.472245   0.13235416 
    9700   -3629.0893    276.87479   -3352.2145    1562.3607    87253.023    10.472245   0.14422805 
    9800   -3634.0595    283.79448    -3350.265    1601.4075    86034.659    10.472245    0.1443278 
    9900   -3640.0755    269.83201   -3370.2434    1522.6195    83964.521    10.472245   0.14274041 
   10000   -3632.5197    273.04864   -3359.4711    1540.7704    85584.251    10.472245   0.14247104 
Loop time of 37.8779 on 1 procs for 10000 steps with 1372 atoms

Performance: 22.810 ns/day, 1.052 hours/ns, 264.006 timesteps/s
100.0% CPU use with 1 MPI tasks x no OpenMP threads

MPI task timing breakdown:
Section |  min time  |  avg time  |  max time  |%varavg| %total
---------------------------------------------------------------
Pair    | 23.721     | 23.721     | 23.721     |   0.0 | 62.62
Neigh   | 0.36577    | 0.36577    | 0.36577    |   0.0 |  0.97
Comm    | 0.17927    | 0.17927    | 0.17927    |   0.0 |  0.47
Output  | 0.0049629  | 0.0049629  | 0.0049629  |   0.0 |  0.01
Modify  | 13.534     | 13.534     | 13.534     |   0.0 | 35.73
Other   |            | 0.07345    |            |       |  0.19

Nlocal:    1372 ave 1372 max 1372 min
Histogram: 1 0 0 0 0 0 0 0 0 0
Nghost:    3264 ave 3264 max 3264 min
Histogram: 1 0 0 0 0 0 0 0 0 0
Neighs:    70287 ave 70287 max 70287 min
Histogram: 1 0 0 0 0 0 0 0 0 0

Total # of neighbors = 70287
Ave neighs/atom = 51.2296
Neighbor list builds = 119
Dangerous builds = 0
    
Total wall time: 0:00:37
