LAMMPS (3 Mar 2020)

    # ---------- Initialize simulation ---------------------
    units metal
    atom_style atomic
    dimension  3
    boundary   p p p
    read_data /home/modeler/RemLabs/Lab4/Problem2A_v1_size_5/temp_2380/lammps.data
  orthogonal box = (0 0 0) to (20.45 20.45 20.45)
  1 by 1 by 1 MPI processor grid
  reading atoms ...
  500 atoms
  read_data CPU = 0.00116238 secs

    pair_style eam
    pair_coeff * * /usr/share/lammps-stable/potentials/Ag_u3.eam
Reading potential file /usr/share/lammps-stable/potentials/Ag_u3.eam with DATE: 2007-06-11

    velocity  all create 2380 87287 dist gaussian

    # ---------- Describe computed properties------------------
    compute msdall all msd
    thermo_style custom step pe ke etotal temp press density c_msdall[4]
    thermo 100

    # ---------- Specify ensemble  ---------------------
    #fix  1 all nve
    fix  1 all nvt temp 2380 2380 0.25

    # --------- Compute RDF ---------------
    compute rdfall all rdf 100 1 1
    fix 2 all ave/time 1 125000 125000 c_rdfall[*] file /home/modeler/RemLabs/Lab4/Problem2A_v1_size_5/temp_2380/lammps.rdf mode vector

    # --------- Run -------------
    timestep 0.005
    run 500000
Neighbor list info ...
  update every 1 steps, delay 10 steps, check yes
  max neighbors/atom: 2000, page size: 100000
  master list distance cutoff = 7.55
  ghost atom cutoff = 7.55
  binsize = 3.775, bins = 6 6 6
  2 neighbor lists, perpetual/occasional/extra = 1 1 0
  (1) pair eam, perpetual
      attributes: half, newton on
      pair build: half/bin/atomonly/newton
      stencil: half/bin/3d/newton
      bin: standard
  (2) compute rdf, occasional, copy from (1)
      attributes: half, newton on
      pair build: copy
      stencil: none
      bin: none
Per MPI rank memory allocation (min/avg/max) = 3.769 | 3.769 | 3.769 Mbytes
Step PotEng KinEng TotEng Temp Press Density c_msdall[4] 
       0        -1425    153.51193   -1271.4881         2380    19172.555    10.472245            0 
     100   -1324.2313    95.864642   -1228.3666    1486.2548    85879.065    10.472245   0.13224433 
     200   -1294.0856    133.86627   -1160.2193    2075.4199    111334.63    10.472245   0.19730591 
     300    -1263.528    161.33101    -1102.197    2501.2245    134146.48    10.472245   0.25088572 
     400   -1265.9968    161.81135   -1104.1854    2508.6715     132301.2    10.472245   0.26343857 
     500   -1273.7185    149.42596   -1124.2925    2316.6524    125808.81    10.472245   0.27938965 
     600   -1263.6745    154.18796   -1109.4866    2390.4809    133512.91    10.472245    0.2649804 
     700   -1265.8437    158.74975    -1107.094    2461.2054    132302.08    10.472245    0.2246493 
     800   -1270.8907    152.06051   -1118.8301    2357.4975    127719.77    10.472245   0.32208473 
     900   -1265.8926    160.94472   -1104.9479    2495.2356    131595.99    10.472245   0.24348358 
    1000   -1265.0547    154.87648   -1110.1782    2401.1554    133052.25    10.472245   0.30079051 
    1100   -1263.4683    156.29159   -1107.1767    2423.0948    134168.68    10.472245   0.29313885 
    1200    -1268.398    156.50216   -1111.8958    2426.3595    131146.82    10.472245   0.22129534 
    1300   -1272.6129    152.30834   -1120.3046    2361.3399    128038.78    10.472245    0.2443626 
    1400   -1258.7293    155.83387   -1102.8955    2415.9986    137146.81    10.472245   0.26613026 
    1500   -1274.3347    163.55804   -1110.7766    2535.7517    127653.52    10.472245   0.23162722 
    1600   -1258.8654    144.97358   -1113.8918    2247.6241    136523.96    10.472245   0.24836116 
    1700   -1265.8129    149.71599    -1116.097    2321.1489    132543.87    10.472245    0.2532064 
    1800   -1265.8562     144.4344   -1121.4218    2239.2648    130952.06    10.472245    0.2241534 
    1900   -1262.1481    155.84797   -1106.3001    2416.2171    135481.03    10.472245   0.26912711 
    2000   -1264.2244    156.83587   -1107.3885    2431.5332    134179.05    10.472245   0.26913317 
    2100   -1265.7247    145.21269    -1120.512    2251.3312    129741.81    10.472245   0.27651624 
    2200   -1260.7648    156.05913   -1104.7057    2419.4909    135704.76    10.472245   0.26743119 
    2300   -1263.8804    149.80613   -1114.0743    2322.5465    131361.15    10.472245   0.30566626 
    2400   -1272.9304    144.12148   -1128.8089    2234.4135    126476.55    10.472245    0.2496191 
    2500   -1255.5529    144.99121   -1110.5617    2247.8974    137563.89    10.472245   0.29153984 
    2600   -1251.7746    144.89163    -1106.883    2246.3536    141890.48    10.472245   0.30914666 
    2700   -1256.8323    153.12438   -1103.7079    2373.9914    138144.81    10.472245   0.28447528 
    2800    -1270.385     148.4734   -1121.9116    2301.8843    129136.57    10.472245    0.2392978 
    2900   -1270.3553    154.09873   -1116.2565    2389.0975    129268.87    10.472245   0.22453984 
    3000   -1261.3622    160.16096   -1101.2013    2483.0844    134953.66    10.472245   0.25785074 
    3100   -1269.8481    156.84522   -1113.0029    2431.6782     130055.6    10.472245   0.25762324 
    3200   -1278.4237    151.14076    -1127.283    2343.2381    125308.01    10.472245   0.20287191 
    3300   -1275.5307    152.54057   -1122.9901    2364.9403    125059.19    10.472245   0.24408324 
    3400   -1261.4044    150.74005   -1110.6644    2337.0256    134587.95    10.472245   0.28474986 
    3500   -1257.8202    159.38336   -1098.4368    2471.0287    138980.87    10.472245   0.26586659 
    3600   -1260.0069    149.99731   -1110.0096    2325.5103    136576.21    10.472245   0.26736582 
    3700   -1263.3198    151.41962   -1111.9002    2347.5615    133506.64    10.472245   0.23773081 
    3800   -1267.8408     164.0911   -1103.7497     2544.016    132276.03    10.472245   0.25779404 
    3900   -1271.1039    148.75539   -1122.3485    2306.2561    127522.33    10.472245   0.24534046 
    4000   -1266.5389    157.07883     -1109.46       2435.3    132126.94    10.472245   0.24790497 
    4100   -1258.3992    154.44638   -1103.9528    2394.4873    135512.26    10.472245   0.27412956 
    4200   -1267.6815    151.38317   -1116.2984    2346.9964    130542.58    10.472245   0.22831157 
    4300   -1267.5942    146.47345   -1121.1207    2270.8776     131251.1    10.472245   0.24086464 
    4400   -1254.2871    156.17248   -1098.1146    2421.2483    139011.71    10.472245   0.29995742 
    4500   -1263.2743    146.59262   -1116.6817    2272.7251    133620.15    10.472245   0.28163697 
    4600   -1267.7514    153.99944   -1113.7519    2387.5582    130673.04    10.472245   0.30210355 
    4700   -1253.5521    155.29439   -1098.2577    2407.6346    141660.79    10.472245   0.32629262 
    4800   -1272.1654    159.54817   -1112.6172    2473.5839    128706.26    10.472245   0.25164374 
    4900   -1274.5064    153.14017   -1121.3662    2374.2363     125008.4    10.472245   0.23521685 
    5000   -1265.1324    153.87635    -1111.256    2385.6498     133078.4    10.472245   0.24833014 
    5100   -1276.0479    159.93722   -1116.1107    2479.6156       125624    10.472245   0.23101536 
    5200   -1271.9338    150.30454   -1121.6293    2330.2736    129294.51    10.472245   0.24266706 
    5300    -1259.446    155.20032   -1104.2457    2406.1762    137383.09    10.472245   0.25705048 
    5400    -1268.695    152.16967   -1116.5253    2359.1899    129430.55    10.472245   0.24888685 
    5500   -1270.8567    154.75903   -1116.0977    2399.3346    129898.61    10.472245   0.23908875 
    5600    -1264.165    153.09632   -1111.0687    2373.5564    133544.06    10.472245   0.25956143 
    5700   -1256.4497    159.46679   -1096.9829    2472.3222    138763.25    10.472245   0.29395999 
    5800   -1264.9768    156.99383    -1107.983    2433.9822    132263.66    10.472245   0.26218559 
    5900   -1272.2334    152.74009   -1119.4933    2368.0336    128540.76    10.472245   0.27063803 
    6000   -1264.1535    164.93998   -1099.2135    2557.1768    135471.04    10.472245   0.24333525 
    6100   -1262.9816    157.71251   -1105.2691    2445.1244     133477.5    10.472245   0.27247495 
    6200   -1270.3877    155.14759   -1115.2401    2405.3587    129194.42    10.472245   0.23863169 
    6300   -1254.5037    147.27607   -1107.2276    2283.3211    138795.89    10.472245   0.31333481 
    6400   -1255.5261    152.78643   -1102.7397    2368.7521    138296.28    10.472245    0.2946805 
    6500   -1263.5093    148.54509   -1114.9642    2302.9956    131926.86    10.472245   0.30928315 
    6600   -1268.7663    170.37942   -1098.3869    2641.5082    132575.64    10.472245   0.25421699 
    6700   -1257.0634    159.21939   -1097.8441    2468.4865    138102.77    10.472245   0.30451987 
    6800   -1260.7959    151.12281   -1109.6731    2342.9599    135951.74    10.472245   0.25288766 
    6900    -1273.615    148.07801    -1125.537    2295.7543    125546.23    10.472245   0.21171956 
    7000   -1261.3821    153.25767   -1108.1245    2376.0579    134070.78    10.472245   0.25637475 
    7100   -1262.2008    154.61078   -1107.5901    2397.0362    133988.71    10.472245   0.25958018 
    7200   -1263.7742      145.194   -1118.5802    2251.0414    133046.85    10.472245   0.30828574 
    7300    -1255.371    159.28395   -1096.0871    2469.4874    140143.97    10.472245   0.25350787 
    7400   -1273.7661     154.7398   -1119.0263    2399.0365    126916.68    10.472245     0.231406 
    7500   -1262.0425    146.72095   -1115.3216    2274.7147    134150.64    10.472245   0.24880357 
    7600   -1249.7646    144.00113   -1105.7635    2232.5476    140619.45    10.472245   0.30397412 
    7700   -1260.2221     166.4107   -1093.8114    2579.9783    137240.55    10.472245    0.2874867 
    7800   -1263.3889    151.64092    -1111.748    2350.9924    133528.32    10.472245   0.23707267 
    7900   -1269.6238      153.102   -1116.5218    2373.6445    129078.39    10.472245   0.22941384 
    8000   -1255.8394    157.31573   -1098.5237    2438.9728    138955.96    10.472245   0.28744229 
    8100   -1258.1208    154.99492   -1103.1259    2402.9917    138106.71    10.472245   0.29787618 
    8200   -1267.7974    151.74453   -1116.0528    2352.5987    129830.86    10.472245   0.24446491 
    8300   -1262.1545    149.02217   -1113.1324    2310.3922    133149.77    10.472245   0.25416788 
    8400   -1267.2075    165.66705   -1101.5405     2568.449    131924.32    10.472245   0.25482339 
    8500   -1267.2641     160.2956   -1106.9685    2485.1718    131152.51    10.472245   0.27984382 
    8600    -1271.748    151.27505   -1120.4729    2345.3201    128556.65    10.472245   0.26282298 
    8700   -1255.0533    148.34098   -1106.7123    2299.8312    137440.94    10.472245   0.26270664 
    8800     -1271.56    144.85818   -1126.7018    2245.8349    127428.94    10.472245   0.24201641 
    8900   -1269.6066    153.88159    -1115.725     2385.731    130000.46    10.472245   0.25339809 
    9000   -1267.6135    160.28517   -1107.3283    2485.0101    131386.06    10.472245   0.27457393 
    9100   -1273.3001     150.0451    -1123.255    2326.2512    126318.42    10.472245   0.24259995 
    9200   -1264.1063    156.96427    -1107.142    2433.5239    132367.86    10.472245   0.27803684 
    9300   -1261.4477     156.9953   -1104.4524     2434.005    135551.42    10.472245   0.26067858 
    9400   -1268.6242    149.73101   -1118.8932    2321.3818    129828.47    10.472245   0.26995595 
    9500   -1261.0818    156.82933   -1104.2525    2431.4318    135791.01    10.472245    0.2563666 
    9600   -1257.2212    153.34628    -1103.875    2377.4318    137783.22    10.472245   0.31422295 
    9700   -1263.5901    151.82594   -1111.7642    2353.8609    134420.55    10.472245   0.26044997 
    9800   -1267.7972    147.63461   -1120.1626    2288.8798    129871.77    10.472245   0.26149445 
    9900   -1268.0578    155.44963   -1112.6082    2410.0415    130482.68    10.472245   0.25156599 
   10000   -1261.5292    155.27785   -1106.2513    2407.3782    135167.86    10.472245    0.2703685 
   10100   -1275.1549    149.95769   -1125.1972    2324.8962    126082.66    10.472245   0.23173768 
   10200    -1262.973    148.80647   -1114.1666     2307.048    134387.26    10.472245   0.24593852 
   10300   -1263.0758    157.15839   -1105.9174    2436.5335    134973.94    10.472245   0.26441312 
   10400   -1270.0618     151.3369   -1118.7249     2346.279    127968.77    10.472245   0.25589214 
   10500   -1276.4155    157.99337   -1118.4221    2449.4787    125367.43    10.472245   0.21392493 
   10600   -1254.5878    153.06752   -1101.5203      2373.11    138650.96    10.472245   0.29454389 
   10700   -1265.4235    154.87931   -1110.5442    2401.1993    132351.23    10.472245   0.24992704 
   10800   -1263.4598    148.08995   -1115.3699    2295.9394    133015.44    10.472245   0.25230409 
   10900   -1263.3121    146.76297   -1116.5491    2275.3663    132852.22    10.472245   0.27257307 
   11000   -1258.8211    156.27883   -1102.5423    2422.8971    138094.36    10.472245   0.28156369 
   11100   -1270.2503    151.35952   -1118.8908    2346.6297    127936.02    10.472245   0.23666297 
   11200   -1272.0529    153.03671   -1119.0162    2372.6322    127028.01    10.472245   0.25249501 
   11300   -1257.6887    162.13143   -1095.5573    2513.6339    139606.76    10.472245   0.27682695 
   11400   -1265.7491    150.64074   -1115.1083     2335.486     133266.4    10.472245   0.26479632 
   11500   -1269.5517    154.81156   -1114.7401    2400.1491    130315.96    10.472245   0.25545179 
   11600   -1256.0898    157.76482    -1098.325    2445.9353    138559.89    10.472245   0.30438316 
   11700   -1260.5433    146.17624   -1114.3671    2266.2698    133422.02    10.472245   0.29241463 
   11800   -1258.8481    151.36875   -1107.4794    2346.7728     135473.1    10.472245   0.27168148 
   11900   -1271.1394     155.8097   -1115.3296    2415.6239    127736.14    10.472245    0.2182072 
   12000   -1271.2692    149.23775   -1122.0315    2313.7345    127590.56    10.472245   0.24759385 
   12100    -1267.288    161.63079   -1105.6572    2505.8722    132348.24    10.472245   0.24424119 
   12200   -1267.2433    151.67532    -1115.568    2351.5257    130970.35    10.472245   0.26003055 
   12300   -1261.3821    158.50876   -1102.8734    2457.4692    134605.59    10.472245   0.26297041 
   12400   -1258.9404    157.83733   -1101.1031    2447.0596    137173.57    10.472245   0.26362311 
   12500   -1269.6812    154.20298   -1115.4782    2390.7138    127762.96    10.472245   0.26246596 
   12600   -1266.4719    161.32537   -1105.1465     2501.137    133171.62    10.472245   0.27207119 
   12700   -1249.7017     160.3114   -1089.3903    2485.4167    142820.24    10.472245    0.3200621 
   12800    -1257.508    150.85524   -1106.6528    2338.8114    136285.31    10.472245   0.25615587 
   12900   -1268.7666    152.67491   -1116.0916    2367.0231     131004.4    10.472245   0.26464487 
   13000   -1262.1865    165.02561   -1097.1609    2558.5044    134956.14    10.472245    0.2721707 
   13100   -1258.8131    151.48333   -1107.3297    2348.5492    136800.87    10.472245   0.25733201 
   13200   -1265.7635    150.99566   -1114.7679    2340.9885    130774.48    10.472245   0.27334832 
   13300    -1265.911    155.35739   -1110.5536    2408.6113    133197.13    10.472245    0.2273736 
   13400   -1273.3611    140.90721   -1132.4539    2184.5804    125244.02    10.472245   0.24570141 
   13500   -1266.4618    147.69793   -1118.7638    2289.8616    131070.19    10.472245    0.2423963 
   13600   -1259.0677    149.54465   -1109.5231    2318.4925    135893.92    10.472245    0.2249823 
   13700   -1270.6429    143.54988    -1127.093    2225.5515    128426.22    10.472245   0.26665818 
   13800   -1258.7828    153.87171   -1104.9111    2385.5778    136134.04    10.472245    0.2908579 
   13900   -1254.8209    150.63506   -1104.1859    2335.3978    138713.08    10.472245   0.32368862 
   14000   -1266.5334    145.42122   -1121.1121    2254.5642    132406.31    10.472245   0.28762486 
   14100   -1262.8093    158.35014   -1104.4592    2455.0101    134133.21    10.472245   0.26878311 
   14200   -1263.5669    154.67619   -1108.8907    2398.0502    133793.82    10.472245    0.2649015 
   14300   -1276.8293    154.47821   -1122.3511    2394.9808    124295.15    10.472245   0.22580091 
   14400   -1263.1925    155.75472   -1107.4378    2414.7715     133913.9    10.472245   0.24413787 
   14500   -1265.7104    160.43298   -1105.2774    2487.3017    133125.96    10.472245   0.26704617 
   14600    -1277.867    156.08383   -1121.7832    2419.8738    125933.13    10.472245   0.22580028 
   14700   -1265.9298     152.0781   -1113.8517    2357.7704    130520.56    10.472245   0.25315025 
   14800   -1265.2787    154.06605   -1111.2126    2388.5908    133187.15    10.472245   0.23804236 
   14900   -1271.9779    144.60706   -1127.3708    2241.9418    125596.48    10.472245   0.26562161 
   15000     -1259.83    151.20868   -1108.6213     2344.291    136687.64    10.472245   0.27827501 
   15100   -1259.8566     154.3307   -1105.5259     2392.694    134970.61    10.472245   0.29021428 
   15200   -1268.7469    142.26857   -1126.4784    2205.6865    128885.95    10.472245    0.2313022 
   15300   -1272.3528    157.15894   -1115.1939     2436.542    128552.92    10.472245   0.23439279 
   15400   -1259.2694    147.54949     -1111.72    2287.5601    136129.95    10.472245   0.27714842 
   15500   -1260.4562    154.47343   -1105.9828    2394.9067    135454.64    10.472245   0.30376184 
   15600   -1254.2809    154.41623   -1099.8646    2394.0199    140537.15    10.472245   0.32848208 
   15700   -1268.0578     149.3155   -1118.7423    2314.9398    130310.67    10.472245   0.24431635 
   15800   -1264.0842     146.1377   -1117.9465    2265.6722    131815.79    10.472245   0.27622806 
   15900   -1261.4176    163.07211   -1098.3455    2528.2179    137125.95    10.472245   0.23896478 
   16000   -1267.3932    150.73671   -1116.6565    2336.9738    130768.62    10.472245   0.25313541 
   16100   -1272.5526    159.25312   -1113.2994    2469.0094    127854.97    10.472245   0.24327065 
   16200    -1254.319     157.6832   -1096.6358      2444.67    141521.51    10.472245   0.29050201 
   16300   -1274.8292    161.18073   -1113.6485    2498.8945    127578.62    10.472245   0.26191721 
   16400   -1270.0869    153.62499   -1116.4619    2381.7527    129020.37    10.472245   0.23889515 
   16500   -1270.5019    157.28409   -1113.2179    2438.4823     128985.2    10.472245   0.23152668 
   16600    -1263.245    153.16486   -1110.0802     2374.619    134660.05    10.472245   0.26929262 
   16700   -1274.6885    149.81085   -1124.8776    2322.6196     125682.5    10.472245   0.23008427 
   16800   -1262.2462     150.3834   -1111.8628    2331.4962     134609.6    10.472245   0.23754848 
   16900   -1265.7095    158.55319   -1107.1563     2458.158    132696.78    10.472245   0.23430167 
   17000   -1277.8071    155.94846   -1121.8586    2417.7751    124460.28    10.472245   0.21796353 
   17100   -1272.9694     171.4501   -1101.5193    2658.1075    129332.42    10.472245     0.208298 
   17200   -1259.2704    156.72679   -1102.5436    2429.8422    137346.72    10.472245   0.32031928 
   17300   -1267.6048    148.22011   -1119.3847    2297.9572    130787.11    10.472245   0.36557074 
   17400   -1258.0109    153.67536   -1104.3355    2382.5337    136560.84    10.472245   0.41571139 
   17500   -1261.6153    156.12821   -1105.4871     2420.562    135369.09    10.472245   0.39056792 
   17600   -1269.3164    151.15106   -1118.1653    2343.3977    129104.87    10.472245   0.39222272 
   17700   -1256.4696    155.07396   -1101.3956    2404.2171    137633.48    10.472245   0.44546959 
   17800   -1255.5706    153.36398   -1102.2066    2377.7062    138565.99    10.472245    0.4743372 
   17900   -1265.5929    146.06569   -1119.5272    2264.5559    131526.21    10.472245   0.51611073 
   18000   -1259.6769    151.12883   -1108.5481    2343.0531    136080.87    10.472245   0.54166095 
   18100   -1260.0145    161.51795   -1098.4966    2504.1227    136857.06    10.472245   0.57819283 
   18200   -1250.6679    159.03707   -1091.6308    2465.6599    142763.41    10.472245   0.67430376 
   18300   -1260.5066    150.32865   -1110.1779    2330.6473    135861.24    10.472245   0.75733188 
   18400   -1262.7794    160.42035   -1102.3591    2487.1058    134250.51    10.472245   0.75056751 
   18500   -1273.7402     146.7274   -1127.0128    2274.8148    124877.65    10.472245   0.67972462 
   18600    -1272.178     151.7881   -1120.3899    2353.2742     127013.6    10.472245   0.62021922 
   18700   -1267.0304    156.54057   -1110.4899     2426.955     130398.8    10.472245    0.7040867 
   18800   -1274.6598    146.98956   -1127.6702    2278.8792    126365.74    10.472245   0.67006855 
   18900   -1270.1638     151.7249   -1118.4389    2352.2943    129947.77    10.472245   0.72447809 
   19000   -1267.8981    157.43523   -1110.4629    2440.8255    132419.48    10.472245   0.71542892 
   19100   -1259.3825    161.58787   -1097.7946    2505.2068    138366.33    10.472245   0.74701442 
   19200   -1271.4064    151.92811   -1119.4783    2355.4448    128035.13    10.472245   0.67933775 
   19300   -1267.2551    157.66132   -1109.5938    2444.3307    132167.14    10.472245   0.66051996 
   19400   -1265.3624    149.91377   -1115.4486    2324.2152    132415.23    10.472245   0.72995066 
   19500    -1273.858    147.92208   -1125.9359    2293.3367    125648.47    10.472245    0.6346862 
   19600   -1261.2711    156.78147   -1104.4896    2430.6898    134642.15    10.472245   0.70454362 
   19700   -1261.4794    152.66317   -1108.8163     2366.841       134453    10.472245   0.74525703 
   19800   -1268.7577    143.15098   -1125.6067    2219.3671    129456.26    10.472245    0.6793553 
   19900   -1270.4789    156.54476   -1113.9341      2427.02    129472.44    10.472245   0.74595617 
   20000    -1273.786    164.93988   -1108.8461    2557.1752    127175.95    10.472245   0.70871431 
   20100    -1266.122    147.91118   -1118.2108    2293.1677    130923.95    10.472245   0.67304849 
   20200   -1270.6865    145.44993   -1125.2365    2255.0093    129206.78    10.472245   0.65197144 
   20300   -1264.2908    160.46729   -1103.8235    2487.8337    134059.64    10.472245   0.72393308 
   20400     -1264.22    150.96357   -1113.2564     2340.491     132500.2    10.472245   0.75623774 
   20500   -1271.2179    138.44213   -1132.7758    2146.3625    125921.02    10.472245   0.72750621 
   20600   -1264.4825    152.63156    -1111.851     2366.351    131982.15    10.472245   0.69998976 
   20700   -1270.8035    161.11961   -1109.6839     2497.947    130936.49    10.472245   0.67743046 
   20800   -1267.8468    146.27048   -1121.5763    2267.7309    130076.06    10.472245   0.69975922 
   20900   -1268.4904    154.56858   -1113.9218     2396.382    130062.03    10.472245   0.65733001 
   21000    -1263.526    156.56946   -1106.9566    2427.4028    132013.24    10.472245    0.7196271 
   21100   -1267.7696    144.79442   -1122.9751    2244.8465     130076.4    10.472245   0.69344007 
   21200   -1274.3772    156.73974   -1117.6374    2430.0429    128031.81    10.472245   0.69228681 
   21300   -1262.6649    153.99801   -1108.6669     2387.536    133598.22    10.472245   0.71464681 
   21400   -1253.7389    151.45886   -1102.2801    2348.1698    140564.94    10.472245   0.73620282 
   21500   -1274.7718    156.80093   -1117.9708    2430.9916    126817.98    10.472245   0.68154843 
   21600   -1274.2848    156.67224   -1117.6125    2428.9963    126693.71    10.472245     0.702805 
   21700   -1254.7588    154.28773   -1100.4711    2392.0277    139543.78    10.472245   0.72254932 
   21800   -1269.2848    156.66124   -1112.6235    2428.8258    130559.77    10.472245   0.68240455 
   21900   -1275.7405    150.41471   -1125.3258    2331.9816    124880.89    10.472245   0.67760679 
   22000   -1263.0792    148.96017    -1114.119    2309.4309    134469.18    10.472245   0.75145174 
   22100    -1257.032    155.61691   -1101.4151    2412.6348    137858.85    10.472245   0.77632183 
   22200   -1266.5316    150.09848   -1116.4331     2327.079    129936.69    10.472245   0.65295048 
   22300   -1272.0691    155.44253   -1116.6266    2409.9313    127866.13    10.472245   0.69592746 
   22400   -1248.1703    152.47174   -1095.6986    2363.8731    143550.68    10.472245    0.7347455 
   22500   -1254.5271    156.27289   -1098.2542     2422.805     139936.7    10.472245   0.71815619 
   22600    -1276.503    159.63518   -1116.8678    2474.9329     124655.2    10.472245   0.69366071 
   22700   -1278.9463    159.98183   -1118.9645    2480.3071    124392.34    10.472245   0.64492017 
   22800   -1260.6549    163.32455   -1097.3303    2532.1317    137575.66    10.472245   0.74956026 
   22900   -1260.8387    149.29936   -1111.5394    2314.6895    135795.96    10.472245   0.69310725 
   23000   -1270.8079    153.87327   -1116.9347     2385.602    128805.07    10.472245   0.70272361 
   23100   -1263.5171    162.89753   -1100.6195    2525.5112    135746.34    10.472245   0.71112243 
   23200    -1262.175    157.61558   -1104.5594    2443.6217    136500.67    10.472245   0.69960574 
   23300    -1263.928    150.96496    -1112.963    2340.5126    132570.69    10.472245   0.72945494 
   23400   -1258.0232    145.27662   -1112.7466    2252.3223    136051.34    10.472245   0.75931316 
   23500   -1252.9447    154.91357   -1098.0311    2401.7305    141370.73    10.472245    0.7830051 
   23600   -1269.6143    153.76723   -1115.8471    2383.9581    129619.07    10.472245   0.63891364 
   23700   -1268.7282    150.26418    -1118.464    2329.6479    130303.68    10.472245   0.69474276 
   23800   -1253.4708    158.57327   -1094.8975    2458.4693    140269.39    10.472245   0.76016689 
   23900   -1260.5681    158.95082   -1101.6173    2464.3227     137001.8    10.472245   0.78166712 
   24000   -1272.5168     160.6901   -1111.8267    2491.2881    128791.48    10.472245   0.70286725 
   24100   -1265.4035    154.67459   -1110.7289    2398.0254    132485.88    10.472245   0.70208402 
   24200   -1258.7215    167.11018   -1091.6114    2590.8228    138312.65    10.472245   0.74017807 
   24300   -1255.6676    150.09272   -1105.5749    2326.9896    137979.86    10.472245   0.72302372 
   24400   -1267.9625    154.10979   -1113.8527     2389.269    131107.13    10.472245   0.66777472 
   24500   -1274.8835    144.85515   -1130.0283    2245.7879    124211.32    10.472245   0.71595412 
   24600   -1263.6823    149.52361   -1114.1586    2318.1663    133302.07    10.472245   0.70304604 
   24700   -1263.1917    161.35507   -1101.8367    2501.5975    134759.94    10.472245   0.69575992 
   24800   -1271.8681    148.84763   -1123.0205    2307.6861    127315.22    10.472245   0.66714692 
   24900    -1273.472    158.70087   -1114.7711    2460.4476    128194.67    10.472245   0.65622043 
   25000   -1262.1872    152.34974   -1109.8375    2361.9817    133428.59    10.472245   0.69733697 
   25100   -1264.4119    152.82498    -1111.587    2369.3497    132440.12    10.472245   0.67363178 
   25200   -1263.3348    154.23996   -1109.0948    2391.2871    134151.85    10.472245   0.73833356 
   25300   -1273.9255    152.27963   -1121.6459    2360.8947    125745.04    10.472245   0.71808087 
   25400   -1270.8861    153.07293   -1117.8132    2373.1938    127131.42    10.472245   0.66513251 
   25500   -1255.8377     147.1874   -1108.6503    2281.9464    136730.02    10.472245   0.72658233 
   25600   -1265.3949    150.14691    -1115.248    2327.8297    131608.75    10.472245   0.70333884 
   25700   -1268.8991    149.86769   -1119.0314    2323.5009       128889    10.472245   0.70419481 
   25800   -1263.3686    158.99537   -1104.3733    2465.0135    133708.05    10.472245   0.65655523 
   25900   -1275.4615    150.50176   -1124.9598    2333.3312    126267.91    10.472245   0.66851013 
   26000      -1272.6    154.49851   -1118.1015    2395.2955    126868.15    10.472245   0.66882936 
   26100   -1257.7486     151.9269   -1105.8217    2355.4262     136960.1    10.472245   0.65866396 
   26200   -1270.3348    155.24177    -1115.093    2406.8188    129234.11    10.472245   0.67659749 
   26300   -1269.8818    152.19848   -1117.6833    2359.6366    130731.92    10.472245    0.6547003 
   26400   -1265.8987    154.33983   -1111.5589    2392.8354    132086.12    10.472245   0.66185807 
   26500   -1264.4119    152.87427   -1111.5377    2370.1138    133193.28    10.472245   0.70152525 
   26600   -1271.8661     147.7323   -1124.1338    2290.3943    126309.58    10.472245   0.66004617 
   26700   -1263.9727    157.22019   -1106.7525    2437.4917    134671.75    10.472245   0.72757238 
   26800   -1258.2161    152.65284   -1105.5633    2366.6809    137376.05    10.472245   0.68923899 
   26900   -1264.4682    150.53211   -1113.9361    2333.8018    132862.77    10.472245   0.74512595 
   27000   -1252.5815    160.19429   -1092.3872    2483.6012    141466.71    10.472245    0.7689789 
   27100     -1255.15    149.14177   -1106.0082    2312.2463    139243.94    10.472245   0.68958936 
   27200   -1265.6465    150.52484   -1115.1217     2333.689    131701.36    10.472245   0.73571797 
   27300   -1259.4772    154.57375   -1104.9034    2396.4621    135746.04    10.472245   0.71608526 
   27400     -1264.87    167.17513   -1097.6948    2591.8298    134670.33    10.472245   0.74382552 
   27500   -1263.4793    147.59056   -1115.8887    2288.1969     132683.1    10.472245   0.67490547 
   27600   -1262.0741    151.51468   -1110.5594    2349.0352    134270.14    10.472245   0.72836067 
   27700   -1262.8336     164.8056    -1098.028    2555.0934    135384.11    10.472245   0.68925452 
   27800   -1263.9686     145.2068   -1118.7618    2251.2398    132888.23    10.472245   0.70730716 
   27900   -1264.4193    155.97668   -1108.4426    2418.2127    132199.52    10.472245   0.67821405 
   28000   -1251.0378     147.3594   -1103.6784     2284.613    140192.47    10.472245   0.77739548 
   28100   -1265.2565    146.29423   -1118.9623     2268.099    132858.52    10.472245   0.74235927 
   28200   -1262.3223     156.9948   -1105.3275    2433.9972    133985.08    10.472245   0.73359396 
   28300   -1248.3641    154.43589   -1093.9282    2394.3247    142853.74    10.472245   0.71833065 
   28400   -1266.7919    158.59827   -1108.1936    2458.8569    131952.52    10.472245   0.71596807 
   28500   -1262.8625    143.07943    -1119.783    2218.2578    132684.49    10.472245   0.74706668 
   28600   -1256.0184     156.4926   -1099.5258    2426.2113    137508.64    10.472245   0.76169547 
   28700   -1261.6228    151.95276     -1109.67    2355.8271    135451.61    10.472245   0.71245678 
   28800   -1272.5501    153.14063   -1119.4094    2374.2434    127040.73    10.472245    0.7153019 
   28900   -1258.1542    151.69561   -1106.4586    2351.8404    137012.16    10.472245   0.77598173 
   29000   -1263.7683    157.69004   -1106.0783    2444.7761    133996.36    10.472245    0.7523062 
   29100   -1264.5196    146.74648   -1117.7732    2275.1106    132072.11    10.472245   0.72294556 
   29200   -1266.2539    155.85305   -1110.4008     2416.296     131923.5    10.472245   0.68788612 
   29300   -1253.4687    157.91344   -1095.5553    2448.2396    140677.37    10.472245    0.7272342 
   29400   -1266.5709    149.93564   -1116.6353    2324.5543    129816.95    10.472245   0.70848129 
   29500   -1263.3576    157.17394   -1106.1836    2436.7746    134056.39    10.472245    0.7186003 
   29600   -1262.9728    159.86587   -1103.1069    2478.5094    134483.28    10.472245   0.74995968 
   29700   -1268.9087    154.93856   -1113.9701     2402.118    130963.61    10.472245   0.69951328 
   29800   -1275.1239    155.40793   -1119.7159    2409.3949    126053.74    10.472245   0.68041666 
   29900   -1258.6689    158.78311   -1099.8858    2461.7227    136587.46    10.472245   0.72165974 
   30000   -1259.7159    145.98773   -1113.7282    2263.3471    134818.89    10.472245   0.74969642 
   30100   -1262.0561    143.10228   -1118.9538    2218.6121    134733.23    10.472245   0.66589682 
   30200   -1272.5692    165.83754   -1106.7316    2571.0922    129434.77    10.472245    0.6904197 
   30300   -1269.3755    152.22277   -1117.1527    2360.0133    128979.49    10.472245   0.70008809 
   30400   -1265.6656    149.44311   -1116.2225    2316.9183    132131.43    10.472245   0.69150532 
   30500   -1260.8553    151.32196   -1109.5333    2346.0473     135633.9    10.472245    0.7056524 
   30600   -1261.2558    148.82715   -1112.4286    2307.3686    133386.24    10.472245   0.73515203 
   30700    -1274.949    158.88301    -1116.066    2463.2715    128062.74    10.472245   0.70205307 
   30800   -1271.3615    152.61545    -1118.746    2366.1012    129102.73    10.472245   0.67364947 
   30900   -1268.7318    164.42244   -1104.3093     2549.153    132014.06    10.472245    0.6858266 
   31000   -1267.8192    160.52254   -1107.2966    2488.6903    131684.02    10.472245   0.70515014 
   31100   -1277.9982    153.90175   -1124.0964    2386.0436    123820.79    10.472245   0.68881263 
   31200   -1266.1368    159.50054   -1106.6362    2472.8454    133063.53    10.472245   0.69382141 
   31300   -1258.3805    152.50543    -1105.875    2364.3954    136916.27    10.472245   0.72115084 
   31400   -1270.7072     146.0984   -1124.6088    2265.0629    128672.05    10.472245   0.65198901 
   31500   -1268.0016    150.08784   -1117.9137    2326.9139    131027.47    10.472245   0.65048638 
   31600   -1268.5631    159.34836   -1109.2148    2470.4861    132156.26    10.472245   0.68842561 
   31700   -1269.7518     145.9482   -1123.8036    2262.7344       128373    10.472245   0.73002043 
   31800   -1266.2112    150.05321    -1116.158    2326.3771    133070.57    10.472245   0.71172431 
   31900   -1260.5505    152.30712   -1108.2434    2361.3209     136896.6    10.472245   0.69508176 
   32000   -1276.5057    153.38708   -1123.1186    2378.0643    126156.34    10.472245   0.67221158 
   32100   -1280.0198    154.54095   -1125.4788    2395.9535    121330.41    10.472245   0.67624785 
   32200   -1264.5794    150.88537    -1113.694    2339.2786    131870.18    10.472245   0.67669196 
   32300   -1259.7923    150.08309   -1109.7092    2326.8402    135997.34    10.472245   0.70282863 
   32400   -1255.8913    148.50332    -1107.388    2302.3481     137776.3    10.472245   0.77403118 
   32500   -1268.9182    151.12191   -1117.7963    2342.9458    129411.01    10.472245   0.68142589 
   32600   -1272.2745    148.83445   -1123.4401    2307.4818     128109.5    10.472245   0.69230939 
   32700   -1262.1274    155.50156   -1106.6259    2410.8466    133561.94    10.472245   0.70344557 
   32800   -1273.1347    152.00541   -1121.1293    2356.6433    127272.76    10.472245   0.63305764 
   32900   -1271.7093     146.4134   -1125.2959    2269.9465    125828.24    10.472245   0.71765879 
   33000   -1259.5693    147.53111   -1112.0381    2287.2752    134777.39    10.472245   0.71563189 
   33100   -1267.2397    163.09848   -1104.1412    2528.6267    132901.25    10.472245   0.68966985 
   33200   -1269.8056     147.6811   -1122.1244    2289.6006    127652.41    10.472245   0.68752235 
   33300   -1267.6452    152.82644   -1114.8188    2369.3723    130511.69    10.472245   0.72896007 
   33400   -1261.8568    152.11313   -1109.7437    2358.3134    134282.05    10.472245   0.70254381 
   33500   -1266.8167    155.51756   -1111.2991    2411.0946    131827.12    10.472245   0.69881753 
   33600   -1266.9462    150.54311   -1116.4031    2333.9723    130631.02    10.472245   0.75398174 
   33700   -1268.1253    163.37218   -1104.7531    2532.8701    132412.61    10.472245   0.71273238 
   33800   -1259.6157    150.93401   -1108.6817    2340.0328    135456.19    10.472245   0.75414419 
   33900   -1274.7917    151.73501   -1123.0566    2352.4512    126211.15    10.472245   0.67943152 
   34000   -1257.9209    155.66418   -1102.2568    2413.3678    137068.41    10.472245   0.81566466 
   34100   -1261.9624    157.57234     -1104.39    2442.9512    134257.77    10.472245   0.77052207 
   34200   -1262.6261    151.42058   -1111.2055    2347.5763    134516.98    10.472245   0.71490684 
   34300   -1268.2321    147.78571   -1120.4463    2291.2224    130107.52    10.472245   0.68354223 
   34400   -1274.2643    168.09141   -1106.1729    2606.0356     127893.6    10.472245   0.67138482 
   34500   -1261.0359    145.19844   -1115.8374    2251.1102       133405    10.472245   0.65941586 
   34600   -1274.5335    150.86488   -1123.6686    2338.9609    127175.88    10.472245   0.69146167 
   34700   -1265.2512    155.10432   -1110.1469    2404.6879    134070.29    10.472245   0.68173774 
   34800   -1266.1536    155.99322   -1110.1604    2418.4691    132988.13    10.472245   0.67233325 
   34900   -1268.3403    150.38945   -1117.9508      2331.59    129197.18    10.472245   0.65216282 
   35000   -1271.5178    157.13833   -1114.3795    2436.2225    128335.69    10.472245   0.71911947 
   35100   -1265.8149    158.93118   -1106.8837    2464.0182    133108.34    10.472245   0.74488949 
   35200   -1245.3537    153.52475    -1091.829    2380.1987    145594.17    10.472245   0.77492146 
   35300   -1254.3779    143.75951   -1110.6184    2228.8015    137946.01    10.472245   0.76811636 
   35400   -1263.2926    147.66472   -1115.6279    2289.3467    133624.13    10.472245   0.67904105 
   35500   -1266.4281    154.89989   -1111.5282    2401.5185    132671.57    10.472245   0.76018664 
   35600   -1265.1678    154.53814   -1110.6296      2395.91    134065.98    10.472245   0.71632299 
   35700    -1277.512    149.01781   -1128.4942    2310.3245    123825.71    10.472245   0.65448687 
   35800   -1268.2072    159.18042   -1109.0268    2467.8824    129992.56    10.472245   0.70216805 
   35900    -1265.678     153.7288   -1111.9492    2383.3623    131651.48    10.472245   0.70108964 
   36000   -1272.0335    148.40775   -1123.6257    2300.8663    126353.05    10.472245   0.65990332 
   36100   -1269.2538    159.41346   -1109.8404    2471.4953    130513.07    10.472245   0.66042524 
   36200   -1260.4607    152.33384   -1108.1269    2361.7351    134811.52    10.472245   0.75569176 
   36300   -1265.4415    141.63162   -1123.8099    2195.8114    130620.28    10.472245   0.69633454 
   36400   -1266.9882    149.77217   -1117.2161    2322.0199     130199.7    10.472245   0.71894984 
   36500   -1264.8882    155.48262   -1109.4056    2410.5529    134533.86    10.472245    0.5964853 
   36600   -1263.1371    150.71465   -1112.4224    2336.6317    134447.59    10.472245   0.73364395 
   36700   -1260.8205    163.92397   -1096.8965    2541.4249    137708.04    10.472245   0.71584693 
   36800   -1270.6348    153.78557   -1116.8492    2384.2424    129037.37    10.472245   0.70809634 
   36900   -1268.1131    157.68821   -1110.4249    2444.7476    131028.63    10.472245   0.68124648 
   37000   -1264.9486    162.93628   -1102.0123    2526.1121    133260.81    10.472245    0.7273571 
   37100   -1262.6278    156.17121   -1106.4566    2421.2285    134368.57    10.472245   0.72934504 
   37200   -1270.9049    153.35015   -1117.5547    2377.4918    128963.69    10.472245    0.7270648 
   37300   -1261.5794    158.90123   -1102.6781    2463.5539    135524.96    10.472245   0.71475775 
   37400   -1244.7178    147.25522   -1097.4626    2282.9979    144932.06    10.472245   0.75247252 
   37500   -1264.1954    148.76723   -1115.4282    2306.4397    132654.39    10.472245   0.69060794 
   37600   -1258.7802    151.04651   -1107.7337    2341.7768    136555.38    10.472245   0.73542175 
   37700   -1268.7223    164.59079   -1104.1315     2551.763    131899.03    10.472245   0.67428782 
   37800   -1263.3768    147.96603   -1115.4107    2294.0181    133210.55    10.472245   0.72257089 
   37900   -1261.7684     158.4158   -1103.3526    2456.0279    134623.84    10.472245   0.69570985 
   38000   -1260.0986    158.66295   -1101.4356    2459.8597    136366.88    10.472245   0.73975608 
   38100   -1266.2872     148.5745   -1117.7127    2303.4516    131394.96    10.472245   0.73845596 
   38200   -1261.7775    156.24909   -1105.5284    2422.4359    135350.82    10.472245   0.75644445 
   38300   -1263.2747    157.13728   -1106.1374    2436.2063    134758.73    10.472245   0.67043264 
   38400   -1273.4069    153.36581   -1120.0411    2377.7345     127656.6    10.472245   0.69489699 
   38500   -1249.3662    147.23289   -1102.1333    2282.6517    142348.57    10.472245   0.74375351 
   38600    -1260.979    156.31735   -1104.6617    2423.4943    135681.85    10.472245   0.76576838 
   38700   -1257.5406    143.18572   -1114.3549    2219.9057    137186.52    10.472245   0.73147841 
   38800   -1264.3808    153.37823   -1111.0026    2377.9271    132173.42    10.472245   0.81496576 
   38900   -1263.7954    163.18062   -1100.6147    2529.9002    134269.75    10.472245   0.76261774 
   39000   -1270.8571    151.09016   -1119.7669    2342.4537    128981.67    10.472245   0.75861972 
   39100   -1260.1405    151.03349    -1109.107    2341.5751    135569.55    10.472245   0.77455361 
   39200   -1260.1712    161.73902   -1098.4322    2507.5501    138117.88    10.472245   0.79437424 
   39300   -1275.5351     153.1784   -1122.3567     2374.829    125636.27    10.472245   0.77600756 
   39400   -1268.6931    158.24483   -1110.4483    2453.3774    130366.91    10.472245   0.79335746 
   39500   -1260.7905    160.20258   -1100.5879    2483.7296    136655.46    10.472245    0.8444425 
   39600   -1265.5491    141.35171   -1124.1974    2191.4718    130889.57    10.472245   0.78553503 
   39700   -1260.3015    152.68322   -1107.6183    2367.1519    135327.04    10.472245   0.81625231 
   39800   -1277.3146    170.85559    -1106.459    2648.8905    127622.96    10.472245   0.71336534 
   39900   -1266.3639    145.50408   -1120.8599    2255.8488    129858.21    10.472245    0.8124669 
   40000   -1262.3319    153.31139   -1109.0205    2376.8908    133143.36    10.472245   0.74043704 
   40100   -1257.5812    152.56534   -1105.0159    2365.3243     136588.8    10.472245   0.80822381 
   40200   -1264.6098    145.31415   -1119.2956    2252.9042     131198.1    10.472245   0.79121089 
   40300    -1273.295    157.13704    -1116.158    2436.2025    128191.56    10.472245   0.78366071 
   40400    -1255.301    154.72457   -1100.5764    2398.8003    137385.69    10.472245   0.82873235 
   40500   -1261.9092    150.85123    -1111.058    2338.7494    134450.15    10.472245   0.80433433 
   40600   -1261.1296    148.73103   -1112.3985    2305.8784    133548.26    10.472245   0.81986394 
   40700   -1265.5209    163.14976   -1102.3711    2529.4218    134014.92    10.472245   0.78123788 
   40800   -1271.1426    160.82027   -1110.3223    2493.3062    129416.56    10.472245   0.75145433 
   40900   -1270.2444    149.91561   -1120.3288    2324.2437    128370.09    10.472245    0.7966044 
   41000   -1258.4751    156.89807    -1101.577    2432.4976    137791.51    10.472245    0.7696893 
   41100   -1271.4233    156.19672   -1115.2266    2421.6241     130195.9    10.472245   0.80465443 
   41200   -1265.7405    143.20517   -1122.5353    2220.2072    129627.83    10.472245   0.77780019 
   41300   -1267.5462    163.20573   -1104.3405    2530.2895    132999.34    10.472245   0.79592605 
   41400    -1266.319    153.43484   -1112.8842    2378.8048    131872.34    10.472245    0.7770882 
   41500   -1260.8076    144.10009   -1116.7075    2234.0818    133906.44    10.472245   0.82306639 
   41600   -1260.4155    154.46835   -1105.9471     2394.828    136185.28    10.472245   0.83841375 
   41700   -1262.6691    160.67476   -1101.9943    2491.0502    135287.88    10.472245   0.75720359 
   41800   -1267.6746    144.89471   -1122.7799    2246.4013    130355.83    10.472245    0.7501317 
   41900   -1257.9121    150.64837   -1107.2638    2335.6042    136709.63    10.472245   0.81458153 
   42000    -1255.102    153.88848   -1101.2135    2385.8379    139966.84    10.472245   0.90431837 
   42100   -1263.7821     154.7725   -1109.0096    2399.5435    136007.99    10.472245   0.87559436 
   42200   -1253.9917    164.11679   -1089.8749    2544.4144    141283.61    10.472245    0.9690029 
   42300   -1263.5273    158.72916   -1104.7981    2460.8862    133827.28    10.472245   0.98635782 
   42400   -1256.9748    147.18368   -1109.7911    2281.8888    135833.87    10.472245   0.96321518 
   42500   -1253.5763    160.48878   -1093.0875    2488.1668    140608.72    10.472245   0.93231891 
   42600   -1251.6413    159.28908   -1092.3523    2469.5671    142958.46    10.472245    1.0249739 
   42700   -1260.2241    153.02487   -1107.1992    2372.4488    136094.45    10.472245   0.97730224 
   42800   -1261.5311    149.18517   -1112.3459    2312.9193    134337.51    10.472245    1.0541668 
   42900   -1241.4184    154.06005   -1087.3584    2388.4978    149593.17    10.472245    1.1361353 
   43000     -1256.21    149.42451   -1106.7855    2316.6299    137565.17    10.472245    1.1283972 
   43100     -1262.85    148.79212   -1114.0578    2306.8256    133955.32    10.472245    1.1458358 
   43200    -1270.668    147.14951   -1123.5185     2281.359    128439.91    10.472245    1.1322868 
   43300    -1261.596    156.91324   -1104.6828    2432.7328    134697.75    10.472245    1.0772853 
   43400   -1264.5968    158.78287    -1105.814    2461.7189    134656.45    10.472245    1.0976656 
   43500   -1275.4946    149.79077   -1125.7039    2322.3083    125660.46    10.472245    1.0743267 
   43600   -1262.5457    150.23488   -1112.3108    2329.1936    134811.02    10.472245    1.1283027 
   43700   -1272.4932    164.27195   -1108.2212    2546.8199       129246    10.472245    1.0929011 
   43800   -1270.8307    144.77695   -1126.0537    2244.5756     127579.4    10.472245    1.1172841 
   43900   -1281.0177    139.89778   -1141.1199    2168.9305    120102.32    10.472245    1.0624314 
   44000   -1264.3042    148.82816    -1115.476    2307.3842    132247.64    10.472245    1.1098531 
   44100   -1259.7509    155.22015   -1104.5307    2406.4837    135604.98    10.472245    1.0857185 
   44200   -1278.0858    154.31113   -1123.7747    2392.3905    124900.38    10.472245    1.1061994 
   44300   -1269.5782    152.68101   -1116.8972    2367.1176    129236.72    10.472245    1.1557612 
   44400   -1265.8088    158.12527   -1107.6835    2451.5238    133875.44    10.472245    1.0942634 
   44500   -1269.5899    151.90087    -1117.689    2355.0225    129753.98    10.472245    1.1265655 
   44600   -1267.8144    143.73414   -1124.0803    2228.4082    129185.05    10.472245    1.1011586 
   44700    -1259.033    156.71817   -1102.3148    2429.7085     136859.2    10.472245    1.1001856 
   44800   -1261.0149    150.08827   -1110.9266    2326.9206    134704.41    10.472245    1.0905748 
   44900    -1270.711    151.40191   -1119.3091    2347.2868    128307.89    10.472245    1.1276113 
   45000    -1264.833    153.99975   -1110.8333    2387.5629    132948.68    10.472245    1.0714898 
   45100   -1269.2466    148.25821   -1120.9884    2298.5479    128250.51    10.472245    1.0583513 
   45200   -1268.1701    145.05759   -1123.1125    2248.9266    130963.88    10.472245    1.1237175 
   45300   -1266.4364    159.22767   -1107.2088    2468.6149    131994.54    10.472245    1.1159147 
   45400   -1266.0215    156.15844    -1109.863    2421.0306    132301.28    10.472245    1.0323496 
   45500   -1275.1052    147.31649   -1127.7887    2283.9478    124376.72    10.472245    1.0990249 
   45600   -1269.7084    159.52143    -1110.187    2473.1693    131234.83    10.472245    1.1313443 
   45700   -1261.0095    150.21875   -1110.7907    2328.9435    134491.42    10.472245    1.1124167 
   45800   -1266.2941    156.13108    -1110.163    2420.6064    133325.38    10.472245    1.1350325 
   45900   -1271.4022    148.83295   -1122.5693    2307.4585    127589.36    10.472245    1.1480212 
   46000   -1254.5602    147.21789   -1107.3423    2282.4192    138269.92    10.472245    1.1560825 
   46100   -1264.0577    161.80496   -1102.2527    2508.5725    134094.94    10.472245    1.0570486 
   46200   -1263.6803    147.15868   -1116.5216    2281.5011    132599.59    10.472245    1.0481306 
   46300   -1265.4047    147.89882   -1117.5059    2292.9761    133967.35    10.472245    1.0978103 
   46400   -1266.0998      167.234   -1098.8658    2592.7426    134141.88    10.472245    1.0749352 
   46500   -1262.2409    150.13472   -1112.1062    2327.6408    134374.01    10.472245    1.2067163 
   46600   -1264.7691    153.37103    -1111.398    2377.8155    132396.97    10.472245    1.0997905 
   46700   -1267.0337    152.49458   -1114.5392    2364.2273    131583.44    10.472245    1.0680548 
   46800   -1262.5797    158.24468    -1104.335     2453.375    134585.77    10.472245    1.0290326 
   46900   -1266.1139    160.19287   -1105.9211    2483.5792    132447.98    10.472245    1.1540277 
   47000   -1278.2915    159.93492   -1118.3566    2479.5799    124360.89    10.472245    1.0178061 
   47100   -1264.9144    153.04395   -1111.8705    2372.7445    133112.41    10.472245    1.1352786 
   47200   -1261.6424    159.59949   -1102.0429    2474.3795    135735.31    10.472245     1.093124 
   47300   -1272.4387    158.70319   -1113.7355    2460.4836    129846.99    10.472245    1.0315629 
   47400   -1272.8555    150.69706   -1122.1584    2336.3592    126360.58    10.472245    1.0973776 
   47500   -1264.2854    146.43626   -1117.8491     2270.301    132842.01    10.472245    1.1232184 
   47600   -1262.6726    157.54358    -1105.129    2442.5054    134729.19    10.472245    1.1907944 
   47700   -1255.8511     156.6517   -1099.1994    2428.6779    139755.97    10.472245    1.1660755 
   47800   -1263.3104    147.91949   -1115.3909    2293.2966    132130.69    10.472245    1.1556745 
   47900   -1268.2275    154.05951    -1114.168    2388.4895    130952.83    10.472245    1.0930763 
   48000   -1261.9561    160.78695   -1101.1692    2492.7895    134965.25    10.472245     1.092925 
   48100   -1270.1744    152.74015   -1117.4342    2368.0345    128594.11    10.472245    1.0571422 
   48200    -1263.873    153.14034   -1110.7326     2374.239    132917.75    10.472245    1.1463989 
   48300   -1255.8022    156.17083   -1099.6314    2421.2226    139520.94    10.472245    1.1569946 
   48400    -1263.803    145.78386   -1118.0192    2260.1864    131884.56    10.472245    1.1714335 
   48500   -1263.7493    154.63869   -1109.1107    2397.4688    134547.22    10.472245    1.0909685 
   48600   -1263.6423     171.5673    -1092.075    2659.9247     135634.4    10.472245    1.0826432 
   48700   -1267.6947    156.07478   -1111.6199    2419.7336    130732.26    10.472245    1.0806461 
   48800   -1261.0418    144.94246   -1116.0994    2247.1417    134004.37    10.472245    1.1444666 
   48900   -1260.6157    161.71657   -1098.8991    2507.2021    136525.89    10.472245     1.096785 
   49000   -1265.4793    144.96206   -1120.5173    2247.4454    131415.54    10.472245    1.0972594 
   49100   -1268.2485    155.20895   -1113.0395      2406.31    130680.94    10.472245    1.1356243 
   49200   -1248.2822    146.63111   -1101.6511    2273.3219    143669.41    10.472245    1.2101787 
   49300   -1267.1093    156.34404   -1110.7653     2423.908    132177.71    10.472245    1.1148324 
   49400   -1267.3676    146.76143   -1120.6062    2275.3424    129694.01    10.472245    1.1417223 
   49500   -1264.9749    163.68591    -1101.289    2537.7341    134161.71    10.472245    1.0887635 
   49600   -1263.4311    156.36985   -1107.0613    2424.3083    134142.65    10.472245    1.1123487 
   49700   -1261.7947    148.45925   -1113.3355    2301.6648    133326.76    10.472245    1.0880828 
   49800   -1250.5929    158.08247   -1092.5104    2450.8601     142088.3    10.472245    1.1664901 
   49900   -1256.2274    149.69461   -1106.5328    2320.8174    137492.36    10.472245    1.1238304 
   50000   -1262.0535    150.32176   -1111.7318    2330.5405    134981.06    10.472245    1.1514432 
   50100   -1272.7872    145.97634   -1126.8109    2263.1705    126507.59    10.472245    1.1011611 
   50200   -1262.6713    154.92764   -1107.7436    2401.9487    133609.29    10.472245    1.1399136 
   50300   -1262.9297    151.53351   -1111.3961    2349.3272    133077.38    10.472245    1.0948116 
   50400   -1260.9799    143.26116   -1117.7187    2221.0754    134408.45    10.472245    1.0862646 
   50500   -1268.5108    154.40499   -1114.1058    2393.8457    130731.73    10.472245    1.0989463 
   50600   -1268.7182     159.4995   -1109.2187    2472.8293    130757.04    10.472245    1.1331274 
   50700   -1256.6574    155.29319   -1101.3642    2407.6161    140043.79    10.472245    1.2050274 
   50800   -1278.1279     157.4493   -1120.6786    2441.0436    123575.53    10.472245    1.0864795 
   50900   -1271.6345    151.62715   -1120.0073    2350.7789    128493.78    10.472245    1.0837741 
   51000   -1271.3672     158.2606   -1113.1066    2453.6219    129048.73    10.472245    1.1175671 
   51100   -1270.6102     166.6213   -1103.9889    2583.2435    130345.72    10.472245    1.0751199 
   51200   -1246.1174    156.86162   -1089.2557    2431.9325    146151.37    10.472245    1.1824887 
   51300   -1257.7878    144.20872   -1113.5791    2235.7659    136171.88    10.472245    1.0834394 
   51400    -1264.106    146.78132   -1117.3247    2275.6507     132182.6    10.472245    1.0844292 
   51500   -1253.5825    155.42011   -1098.1624    2409.5837     140406.6    10.472245    1.1136891 
   51600   -1267.4313    152.27829    -1115.153     2360.874    130685.24    10.472245    1.1719685 
   51700   -1260.9743    151.71757   -1109.2567    2352.1808    134695.95    10.472245    1.1372757 
   51800   -1256.5355    150.79283   -1105.7427    2337.8438    137874.66    10.472245    1.1436621 
   51900   -1271.3182    146.92252   -1124.3957    2277.8398    128516.42    10.472245    1.0874467 
   52000   -1270.3676    157.96411   -1112.4035    2449.0251    129816.98    10.472245    1.0867354 
   52100    -1255.993    161.02789   -1094.9651     2496.525     140872.8    10.472245    1.1371947 
   52200   -1257.9791    166.52282   -1091.4563    2581.7166    139200.27    10.472245    1.1383996 
   52300   -1260.4013     146.5769   -1113.8244    2272.4814     134608.4    10.472245    1.0779628 
   52400   -1257.8544    144.24088   -1113.6135    2236.2645       136412    10.472245    1.1028844 
   52500   -1249.4224    147.47586   -1101.9465    2286.4187    143069.38    10.472245    1.1189344 
   52600   -1269.1982    147.19356   -1122.0046    2282.0419    129237.72    10.472245    1.0973607 
   52700   -1267.4708    157.46157   -1110.0093    2441.2338    132688.52    10.472245    1.1121927 
   52800   -1259.3865     156.1479   -1103.2386    2420.8672    136678.88    10.472245    1.0981854 
   52900   -1264.3892     149.6432    -1114.746    2320.0204    132063.12    10.472245    1.0754381 
   53000   -1264.4852    149.04512   -1115.4401    2310.7479    133223.39    10.472245    1.1653264 
   53100   -1250.1468    156.93151   -1093.2153     2433.016    142485.03    10.472245    1.0712076 
   53200   -1265.6536    156.01817   -1109.6354    2418.8559    133815.22    10.472245    1.2026674 
   53300   -1269.8977    150.63792   -1119.2598    2335.4422    129120.29    10.472245    1.0889783 
   53400   -1263.3861    149.66285   -1113.7233     2320.325    133452.52    10.472245    1.0839292 
   53500   -1254.9384    152.33851   -1102.5999    2361.8077    140024.36    10.472245    1.1329516 
   53600   -1270.5992     149.7255   -1120.8737    2321.2964    127737.77    10.472245    1.2117923 
   53700   -1260.2299    148.11441   -1112.1155    2296.3184    135626.51    10.472245    1.1112124 
   53800   -1256.3547    152.44085   -1103.9138    2363.3943    137858.17    10.472245    1.0545724 
   53900   -1274.7127    152.23197   -1122.4808    2360.1559    124960.15    10.472245    1.0626822 
   54000   -1268.4729    155.82871   -1112.6442    2415.9186    131702.14    10.472245    1.0830114 
   54100   -1258.9473    151.52731     -1107.42     2349.231    135413.86    10.472245    1.0921077 
   54200   -1268.4934     143.4086   -1125.0848    2223.3611    128518.89    10.472245    1.1195816 
   54300   -1279.8344    142.19021   -1137.6442    2204.4717     121419.5    10.472245    1.1298693 
   54400   -1266.6249    152.02982    -1114.595    2357.0218    131698.24    10.472245    1.0621475 
   54500   -1265.4095    159.29556    -1106.114    2469.6675    133040.72    10.472245    1.1311303 
   54600   -1266.8717    144.96408   -1121.9076    2247.4768    131113.31    10.472245    1.0887413 
   54700   -1275.7734     157.6303   -1118.1431    2443.8499    125435.64    10.472245    1.0783005 
   54800   -1257.7668    150.70725   -1107.0595    2336.5171    138217.97    10.472245    1.1250835 
   54900   -1267.8927    154.48209   -1113.4106     2395.041    131390.06    10.472245    1.1103229 
   55000   -1275.2594    148.88329   -1126.3761    2308.2389    126055.05    10.472245    1.1240923 
   55100   -1273.5201    154.91015     -1118.61    2401.6775    127511.88    10.472245    1.0924603 
   55200   -1258.5342      151.948   -1106.5862    2355.7534    136278.66    10.472245    1.1591977 
   55300    -1268.549    152.80521   -1115.7438    2369.0432    131200.84    10.472245    1.0643572 
   55400   -1268.2436    150.65134   -1117.5923    2335.6503    130503.07    10.472245    1.1336572 
   55500    -1261.511    156.00132   -1105.5097    2418.5946    135367.11    10.472245    1.1687487 
   55600   -1261.2312    152.22567   -1109.0055    2360.0582    134815.26    10.472245    1.0458395 
   55700    -1266.591    152.44857   -1114.1424     2363.514    132039.44    10.472245    1.1411956 
   55800    -1255.097    155.67177   -1099.4252    2413.4855    139346.77    10.472245    1.1723277 
   55900   -1262.9672    150.75525   -1112.2119    2337.2612    133230.21    10.472245    1.1300698 
   56000   -1267.5958     152.7741   -1114.8217    2368.5608    130713.95    10.472245    1.0991144 
   56100   -1265.6214    168.00067   -1097.6208    2604.6288    134687.79    10.472245    1.0729851 
   56200   -1253.9175    144.87066   -1109.0469    2246.0285    139968.64    10.472245    1.2455108 
   56300   -1263.5446    148.36163    -1115.183    2300.1513    132611.03    10.472245    1.0807794 
   56400   -1253.0738    161.29941   -1091.7744    2500.7345    140321.64    10.472245    1.1149536 
   56500   -1260.6321    151.44171   -1109.1903     2347.904    134645.31    10.472245    1.1141718 
   56600   -1270.8062    152.68079   -1118.1254    2367.1142    127037.21    10.472245    1.0452672 
   56700   -1259.3143    157.03823   -1102.2761    2434.6706    136532.01    10.472245    1.0870585 
   56800   -1264.4277    152.20038   -1112.2273    2359.6661    133065.64    10.472245    1.0946821 
   56900   -1272.0765    155.19533   -1116.8812    2406.0989    128700.55    10.472245     1.142985 
   57000   -1258.5923    158.59614   -1099.9962     2458.824    137357.18    10.472245    1.1582651 
   57100   -1264.9537    159.25126   -1105.7024    2468.9808    133363.37    10.472245    1.1438131 
   57200   -1269.2364    158.11574   -1111.1207    2451.3759     129539.3    10.472245    1.1588624 
   57300   -1271.2268    161.07672     -1110.15     2497.282    130099.25    10.472245    1.0788025 
   57400   -1266.7274    155.03553   -1111.6919    2403.6214       131763    10.472245    1.0882828 
   57500   -1272.6792    149.85886   -1122.8203    2323.3639       126459    10.472245    1.1134988 
   57600   -1261.9792     150.4638   -1111.5154    2332.7427    134424.16    10.472245     1.075849 
   57700   -1269.5607    160.46925   -1109.0915    2487.8639    130046.74    10.472245     1.105479 
   57800   -1276.1697    148.56992   -1127.5998    2303.3806    125110.96    10.472245    1.1076639 
   57900   -1257.5986    144.72181   -1112.8768    2243.7207    136571.49    10.472245    1.0656126 
   58000   -1260.6432     157.9122    -1102.731    2448.2204    136166.66    10.472245    1.1216799 
   58100   -1263.5001    146.17315   -1117.3269    2266.2219     133837.2    10.472245     1.136167 
   58200   -1265.4185    149.92744   -1115.4911    2324.4271    133391.07    10.472245    1.1603579 
   58300   -1255.9152    151.09828   -1104.8169    2342.5795     139380.2    10.472245    1.0779537 
   58400   -1267.1618    148.34467   -1118.8172    2299.8884    131312.13    10.472245    1.0689179 
   58500   -1266.0396    151.70116   -1114.3385    2351.9264    132406.67    10.472245    1.0787771 
   58600   -1267.0555    150.53237   -1116.5231    2333.8057    131276.55    10.472245    1.0654984 
   58700    -1274.067    144.69226   -1129.3747    2243.2626    126639.06    10.472245    1.1072331 
   58800   -1266.5367     157.4037    -1109.133    2440.3367     132207.4    10.472245    1.0835759 
   58900   -1266.4479    155.48435   -1110.9636    2410.5797    133239.35    10.472245    1.1263852 
   59000   -1263.9813    147.05548   -1116.9258    2279.9012    133776.79    10.472245    1.0530404 
   59100   -1259.8238    158.17029   -1101.6535    2452.2217    136413.08    10.472245    1.1371475 
   59200   -1264.7756    148.92747   -1115.8481    2308.9239    130158.86    10.472245    1.1366914 
   59300   -1273.6608    155.76771   -1117.8931    2414.9728    127445.51    10.472245    1.1084799 
   59400   -1255.0784    156.29939    -1098.779    2423.2159     138733.1    10.472245    1.1357264 
   59500    -1266.673    152.23437   -1114.4386    2360.1931     131520.1    10.472245    1.0873605 
   59600   -1268.0802     151.3014   -1116.7788    2345.7285    130970.65    10.472245    1.0516888 
   59700   -1253.3166     149.4937   -1103.8229    2317.7025    139814.78    10.472245     1.174097 
   59800   -1253.6342    158.23827   -1095.3959    2453.2756    140873.54    10.472245    1.1035733 
   59900   -1267.6992    156.63398   -1111.0652    2428.4032    132002.52    10.472245    1.0855534 
   60000   -1265.2868    149.94778   -1115.3391    2324.7425    133154.64    10.472245    1.1230315 
   60100   -1249.4778    149.01806   -1100.4597    2310.3284    143059.21    10.472245    1.1374174 
   60200   -1272.3194     153.5575   -1118.7619    2380.7065    128454.44    10.472245    1.0659071 
   60300   -1272.6298    150.67138   -1121.9584     2335.961    127682.04    10.472245    1.1211552 
   60400    -1263.298    157.39439   -1105.9036    2440.1923    134476.04    10.472245    1.0755249 
   60500   -1259.1944    146.39394   -1112.8005    2269.6449    135427.84    10.472245    1.2354978 
   60600   -1262.7942    166.14759   -1096.6466    2575.8992     136105.8    10.472245    1.1176798 
   60700   -1264.2784    149.97949   -1114.2989    2325.2341    132493.65    10.472245    1.1249443 
   60800   -1274.4884    157.74708   -1116.7413    2445.6604    127298.41    10.472245    1.0589201 
   60900   -1254.9097    157.90475    -1097.005    2448.1048       139391    10.472245    1.1403549 
   61000    -1262.683    156.35931   -1106.3237    2424.1448    133211.08    10.472245    1.0946577 
   61100   -1265.6259    150.23109   -1115.3948    2329.1349    131824.23    10.472245     1.092244 
   61200   -1269.4225    157.91267   -1111.5099    2448.2277    130716.04    10.472245    1.0872748 
   61300   -1262.2157     162.9909   -1099.2248    2526.9588     136402.2    10.472245    1.0882798 
   61400   -1276.2069    157.95131   -1118.2556    2448.8267    125278.55    10.472245    1.1112466 
   61500   -1260.4959    148.76391   -1111.7319    2306.3882    135986.71    10.472245    1.0794406 
   61600   -1257.1819    167.10779   -1090.0741    2590.7858    139598.06    10.472245    1.1272358 
   61700   -1264.0539    156.35989    -1107.694    2424.1538     133791.8    10.472245    1.0095967 
   61800   -1269.8815    150.84086   -1119.0406    2338.5885    128758.74    10.472245    1.1206987 
   61900   -1264.9286    166.37834   -1098.5502    2579.4766    134746.86    10.472245    1.1218846 
   62000   -1270.1972      155.822   -1114.3752    2415.8145    129566.21    10.472245    1.1414559 
   62100   -1266.9003    148.29831    -1118.602    2299.1697     130220.4    10.472245    1.0722431 
   62200   -1262.5982    158.69831   -1103.8999     2460.408    135073.28    10.472245     1.168315 
   62300   -1257.1927    160.14233   -1097.0504    2482.7956    137338.34    10.472245    1.1666062 
   62400   -1269.3749    152.97535   -1116.3995     2371.681    130032.66    10.472245    1.1193984 
   62500   -1271.3692    154.72491   -1116.6443    2398.8056    128910.99    10.472245    1.0804187 
   62600   -1258.5801    161.79074   -1096.7893     2508.352    136837.37    10.472245    1.1712994 
   62700   -1259.5075    154.49457    -1105.013    2395.2345    137134.18    10.472245    1.2159104 
   62800    -1260.211      151.279    -1108.932    2345.3813    135762.31    10.472245     1.133816 
   62900   -1264.0444    149.65015   -1114.3943    2320.1281    132552.04    10.472245    1.1168036 
   63000   -1272.2294    141.56918   -1130.6602    2194.8434     126558.4    10.472245    1.1105639 
   63100   -1265.5742    154.83892   -1110.7353    2400.5732    131465.77    10.472245    1.1299489 
   63200   -1263.8748    155.61162   -1108.2631    2412.5529    133786.09    10.472245    1.1486037 
   63300    -1271.227    145.39826   -1125.8287    2254.2081    127826.21    10.472245    1.0663587 
   63400   -1273.3545    171.77103   -1101.5835    2663.0832    129334.78    10.472245     1.131203 
   63500   -1268.1107    153.52106   -1114.5897    2380.1415    132390.77    10.472245    1.0802549 
   63600   -1265.1398    147.38914   -1117.7506    2285.0742    131978.98    10.472245    1.1136421 
   63700   -1257.8196    158.28709   -1099.5325    2454.0326    136536.81    10.472245     1.022881 
   63800   -1269.5264    156.14483   -1113.3816    2420.8197    131254.03    10.472245    1.0970172 
   63900   -1259.1016    148.76717   -1110.3345    2306.4387    136722.51    10.472245    1.1303039 
   64000   -1263.4037    160.90497   -1102.4987    2494.6193    134688.66    10.472245    1.1466285 
   64100   -1267.4047    160.20775   -1107.1969    2483.8098    131543.15    10.472245    1.1092229 
   64200   -1271.9692     148.8918   -1123.0774    2308.3709    127699.33    10.472245    1.0856821 
   64300   -1262.0445    153.62417   -1108.4203    2381.7401    135226.43    10.472245     1.163106 
   64400   -1260.5072    164.92534   -1095.5818    2556.9498    138664.42    10.472245    1.1313837 
   64500   -1267.7921    155.51746   -1112.2746     2411.093    131349.33    10.472245    1.1175239 
   64600   -1263.4795    151.57917   -1111.9003     2350.035    134142.89    10.472245    1.1029608 
   64700   -1254.5366    165.19924   -1089.3374    2561.1963    140145.31    10.472245    1.1401202 
   64800   -1269.9578    159.80978   -1110.1481    2477.6399    130494.29    10.472245    1.1402336 
   64900   -1263.2738    152.47005   -1110.8038     2363.847    132638.62    10.472245    1.1261016 
   65000   -1266.3538     149.6595   -1116.6943     2320.273    131223.53    10.472245    1.0741971 
   65100    -1272.688    149.98112   -1122.7069    2325.2594    126871.45    10.472245    1.0562661 
   65200   -1274.1513    162.18107   -1111.9702    2514.4035    127998.52    10.472245    1.0923537 
   65300   -1262.6099    156.01427   -1106.5957    2418.7954     133863.1    10.472245    1.1433549 
   65400   -1277.3325    150.81208   -1126.5204    2338.1423    123603.92    10.472245    1.0961186 
   65500     -1263.54    146.50828   -1117.0317    2271.4176    132808.26    10.472245    1.1593838 
   65600   -1265.3176    160.71247   -1104.6051    2491.6348    132666.99    10.472245    1.1059577 
   65700   -1269.2246    150.21132   -1119.0133    2328.8284    129079.57    10.472245    1.0402446 
   65800   -1270.2961    144.36083   -1125.9352    2238.1242    127540.22    10.472245    1.1053591 
   65900    -1266.266    157.83523   -1108.4307     2447.027    132977.84    10.472245    1.0793139 
   66000   -1263.0622    147.86562   -1115.1965    2292.4614    134370.37    10.472245    1.1262996 
   66100   -1275.6281    152.12814      -1123.5    2358.5461    125389.32    10.472245    1.1257338 
   66200   -1262.7662    147.02833   -1115.7379    2279.4803    133534.74    10.472245    1.1217202 
   66300   -1258.4435    159.49455   -1098.9489    2472.7525    138239.41    10.472245    1.1639482 
   66400   -1261.5459      151.504   -1110.0419    2348.8696    134419.35    10.472245    1.0964352 
   66500    -1264.902    149.95814   -1114.9439    2324.9032    132110.31    10.472245    1.1132033 
   66600   -1258.2363     157.0407   -1101.1956    2434.7089    137937.78    10.472245    1.1615132 
   66700   -1269.4058    148.78958   -1120.6163    2306.7862    129131.88    10.472245    1.0756598 
   66800   -1272.8712    153.12264   -1119.7486    2373.9645    127662.56    10.472245     1.067807 
   66900   -1257.9625    150.41085   -1107.5516    2331.9218    136817.93    10.472245    1.1236562 
   67000   -1263.8549    152.14326   -1111.7116    2358.7805    132366.33    10.472245    1.0797921 
   67100   -1265.6189    156.77749   -1108.8414    2430.6282    131854.89    10.472245     1.090411 
   67200   -1271.8025    154.65332   -1117.1492    2397.6957    128668.46    10.472245    1.1025205 
   67300   -1263.5824    140.19748   -1123.3849     2173.577    131444.88    10.472245    1.1155952 
   67400   -1266.5754    155.99404   -1110.5813    2418.4818    132291.78    10.472245     1.164787 
   67500   -1262.2265    160.46557   -1101.7609     2487.807    136063.67    10.472245    1.0947906 
   67600   -1265.2241    150.12511    -1115.099    2327.4918    131209.56    10.472245    1.1433314 
   67700   -1276.4433    155.31121   -1121.1321    2407.8954    125713.85    10.472245     1.045514 
   67800    -1261.287    160.93995    -1100.347    2495.1616    135195.17    10.472245    1.1118135 
   67900    -1266.522    153.24646   -1113.2755    2375.8841    130612.64    10.472245    1.1290817 
   68000   -1271.6374    156.79369   -1114.8437    2430.8792     129664.3    10.472245    1.1637633 
   68100   -1256.2881    164.80491   -1091.4832    2555.0827    140193.02    10.472245    1.1277749 
   68200   -1260.4915    150.71107   -1109.7804    2336.5764    135998.12    10.472245    1.1402045 
   68300   -1268.9087    153.32776   -1115.5809    2377.1447    129999.26    10.472245    1.0658447 
   68400   -1257.3609    153.84431   -1103.5166    2385.1531    136583.85    10.472245    1.2357314 
   68500   -1260.4139    157.57391   -1102.8399    2442.9755    136889.87    10.472245    1.0948991 
   68600   -1263.7934    149.98361   -1113.8097     2325.298    132711.43    10.472245    1.1057342 
   68700    -1266.402    155.00048   -1111.4015     2403.078    132420.91    10.472245    1.0683786 
   68800   -1247.5015    151.37202   -1096.1295    2346.8234    144188.78    10.472245     1.103716 
   68900   -1263.8958    151.57666   -1112.3191    2349.9961    133343.55    10.472245    1.1533856 
   69000   -1266.8624    153.01136    -1113.851    2372.2392     131110.5    10.472245    1.0550141 
   69100    -1249.885    156.22887   -1093.6561    2422.1225    143058.81    10.472245    1.2048831 
   69200   -1265.5581    159.05715    -1106.501    2465.9712    133382.31    10.472245    1.0546229 
   69300   -1272.2632    157.08772   -1115.1754    2435.4379    127269.71    10.472245    1.1397008 
   69400   -1268.1889    148.38424   -1119.8047    2300.5018    129556.35    10.472245    1.1045112 
   69500   -1261.6696    152.55102   -1109.1186    2365.1023    134519.08    10.472245     1.165307 
   69600   -1256.7742    155.01901   -1101.7552    2403.3652    138478.62    10.472245    1.1587662 
   69700   -1276.4356    154.70997   -1121.7256    2398.5739    125646.37    10.472245    1.1041529 
   69800   -1257.0618     147.8757   -1109.1861    2292.6177    137738.85    10.472245    1.0840878 
   69900    -1257.469    154.32861   -1103.1403    2392.6616    137381.67    10.472245    1.0968138 
   70000   -1258.3563    149.24337   -1109.1129    2313.8216    136391.25    10.472245    1.1757593 
   70100   -1271.1994     144.8686   -1126.3308    2245.9965    126458.82    10.472245     1.143461 
   70200   -1271.5939    155.41329   -1116.1806     2409.478    129231.94    10.472245    1.0190179 
   70300   -1267.6072    153.89263   -1113.7146    2385.9022    132005.13    10.472245    1.0604667 
   70400   -1257.0048    159.03126   -1097.9736    2465.5699    137754.09    10.472245    1.1743687 
   70500   -1258.9065    158.86232   -1100.0442    2462.9507    137182.01    10.472245    1.1422417 
   70600   -1263.5204     152.3444    -1111.176    2361.8989    132390.89    10.472245    1.1365267 
   70700    -1270.392    157.42549   -1112.9665    2440.6746    130022.92    10.472245    1.1322907 
   70800   -1265.0201    165.76347   -1099.2566    2569.9439    133305.74    10.472245    1.0825571 
   70900   -1272.4365    153.82484   -1118.6116    2384.8513    127324.24    10.472245    1.0795893 
   71000   -1262.5754    144.62528   -1117.9502    2242.2242    133598.52    10.472245    1.1146862 
   71100    -1262.758    166.93771   -1095.8203    2588.1489    135304.61    10.472245     1.133018 
   71200   -1258.0545    150.58556   -1107.4689    2334.6304    136545.16    10.472245    1.1239565 
   71300   -1271.1642     151.5919   -1119.5723    2350.2324    129076.53    10.472245    1.1524274 
   71400   -1260.7048    157.45923   -1103.2456    2441.1976    136238.71    10.472245    1.0859705 
   71500   -1267.1471    163.60928   -1103.5378     2536.546    132525.71    10.472245    1.1935066 
   71600   -1265.7426    145.86266     -1119.88    2261.4081     130937.1    10.472245    1.1107462 
   71700   -1266.0767    149.68995   -1116.3868    2320.7453    131397.92    10.472245    1.1344713 
   71800   -1269.7888    158.80124   -1110.9876    2462.0038       130150    10.472245     1.061186 
   71900   -1260.8644    146.77761   -1114.0868    2275.5932    134191.47    10.472245    1.1178661 
   72000   -1277.2026    151.67752   -1125.5251    2351.5598    123699.43    10.472245    1.0937154 
   72100   -1261.7558    154.46969   -1107.2861    2394.8488    135128.11    10.472245    1.1137393 
   72200   -1272.5468    157.91291   -1114.6339    2448.2314    127032.45    10.472245    1.0812351 
   72300   -1264.8531    140.92688   -1123.9262    2184.8853    131703.69    10.472245    1.1036666 
   72400   -1267.9467    153.72905   -1114.2177    2383.3662    130708.47    10.472245    1.0530074 
   72500   -1276.8565    166.94705   -1109.9095    2588.2937    126194.48    10.472245    1.0495288 
   72600   -1265.8506    151.21837   -1114.6322    2344.4413     130246.2    10.472245    1.2018354 
   72700   -1264.6782    156.28448   -1108.3937    2422.9847    133057.55    10.472245    1.0247769 
   72800   -1258.6951     157.2818   -1101.4133    2438.4468    137703.54    10.472245    1.1071305 
   72900   -1270.9835    151.33028   -1119.6532    2346.1763    128539.44    10.472245    1.0994398 
   73000   -1260.7495    153.11261   -1107.6369     2373.809    135085.39    10.472245    1.1470965 
   73100   -1252.5886     152.9224   -1099.6662      2370.86    141191.26    10.472245    1.2170745 
   73200   -1250.6861     143.7179   -1106.9682    2228.1564    141032.41    10.472245    1.3212321 
   73300   -1248.1885    154.47012   -1093.7184    2394.8554    143765.66    10.472245    1.3711791 
   73400   -1254.0415    150.08464   -1103.9569    2326.8643    140231.84    10.472245    1.3973973 
   73500   -1275.6985    153.86667   -1121.8318    2385.4997    126393.97    10.472245    1.3454241 
   73600   -1254.4496    152.68238   -1101.7672    2367.1389    138497.04    10.472245    1.4980712 
   73700   -1262.8665    158.37803   -1104.4885    2455.4425    134491.94    10.472245    1.4844182 
   73800   -1269.2038     147.8606   -1121.3432    2292.3836    130060.11    10.472245    1.4610367 
   73900   -1263.7685    159.09781   -1104.6707    2466.6016    133842.95    10.472245    1.4325994 
   74000   -1261.8498     156.1419   -1105.7079    2420.7741    135116.34    10.472245    1.5338275 
   74100   -1267.4907    150.47042   -1117.0203    2332.8454    131088.71    10.472245    1.4559362 
   74200   -1263.2973    162.12611   -1101.1712    2513.5515    135582.42    10.472245     1.484571 
   74300   -1260.9144     156.2387   -1104.6757    2422.2749    135719.38    10.472245    1.4478107 
   74400   -1267.4335    151.63272   -1115.8008    2350.8653    131114.77    10.472245    1.3971933 
   74500   -1272.0357    153.82308   -1118.2126    2384.8239    127788.79    10.472245    1.4219953 
   74600   -1246.9123    147.22889   -1099.6834    2282.5898    143989.96    10.472245    1.4981101 
   74700   -1270.7918    159.88581    -1110.906    2478.8185    130778.81    10.472245     1.401847 
   74800   -1270.1884    152.32315   -1117.8653    2361.5695    129251.42    10.472245    1.4415067 
   74900   -1266.9618    157.52435   -1109.4375    2442.2072    131016.85    10.472245    1.4593553 
   75000   -1263.7829     158.0009    -1105.782    2449.5955     133792.6    10.472245    1.5413531 
   75100    -1265.415     148.4028   -1117.0122    2300.7896    132048.72    10.472245    1.4468921 
   75200   -1255.8788    158.51343   -1097.3654    2457.5415    138833.62    10.472245    1.4585362 
   75300   -1257.4509    160.75725   -1096.6936    2492.3291    139941.95    10.472245    1.5184053 
   75400   -1274.7327    155.91057   -1118.8221    2417.1877    127217.77    10.472245    1.4418474 
   75500   -1264.8965    155.48693   -1109.4096    2410.6197    133218.75    10.472245    1.4235343 
   75600   -1263.0357    155.14126   -1107.8945    2405.2606    134795.69    10.472245    1.4605324 
   75700    -1263.545    145.68531   -1117.8597    2258.6585    132624.12    10.472245    1.4775425 
   75800    -1268.504    162.74206   -1105.7619    2523.1009    130900.28    10.472245    1.4448301 
   75900   -1268.8887    155.07519   -1113.8135    2404.2362    128319.29    10.472245    1.4050914 
   76000   -1264.1742    147.85562   -1116.3186    2292.3063    133393.67    10.472245    1.5415609 
   76100   -1260.2198       154.22   -1105.9998    2390.9776    136044.23    10.472245    1.4747874 
   76200   -1244.5953    150.40232    -1094.193    2331.7895    145836.34    10.472245      1.53085 
   76300   -1272.0534    155.98908   -1116.0643    2418.4048    128500.35    10.472245    1.4843533 
   76400   -1269.1089    154.69848   -1114.4104    2398.3959    131355.49    10.472245    1.4874185 
   76500   -1258.6436     161.9534   -1096.6902    2510.8738    138249.04    10.472245    1.5205585 
   76600   -1268.8081    150.97085   -1117.8373    2340.6039    129939.04    10.472245    1.4443413 
   76700   -1260.5317     145.3569   -1115.1748     2253.567    134536.35    10.472245    1.4357191 
   76800   -1244.8575    145.14478   -1099.7127    2250.2784    145011.93    10.472245    1.5746039 
   76900   -1266.1047     154.3064   -1111.7983    2392.3171    131362.24    10.472245    1.4991511 
   77000   -1267.3684    151.31766   -1116.0507    2345.9806    131752.06    10.472245    1.5028939 
   77100   -1265.0047    151.76997   -1113.2348    2352.9931    131237.38    10.472245    1.4684265 
   77200   -1262.3148    159.42263   -1102.8922    2471.6376    135176.27    10.472245    1.4232172 
[...]
  481400   -1267.5525    161.51023   -1106.0423     2504.003    130159.75    10.472245    13.785377 
  481500    -1261.191    156.07787   -1105.1131    2419.7814    135067.59    10.472245    13.733304 
  481600   -1264.1532    150.12924   -1114.0239    2327.5558    132870.41    10.472245    13.748614 
  481700   -1279.3652    144.66842   -1134.6967     2242.893    122777.73    10.472245    13.795094 
  481800   -1273.6705    154.53386   -1119.1366    2395.8436    127488.79    10.472245    13.589516 
  481900   -1263.2923     158.8818   -1104.4105    2463.2526    132960.66    10.472245    13.787734 
  482000   -1256.7494    140.46975   -1116.2796    2177.7982    136884.69    10.472245    13.867569 
  482100   -1276.7916    159.36744   -1117.4241    2470.7818    125549.11    10.472245     13.78553 
  482200   -1258.5067    158.11463   -1100.3921    2451.3587    139074.63    10.472245    13.771867 
  482300   -1262.7799    145.92803   -1116.8519    2262.4216    133171.38    10.472245    13.688563 
  482400   -1257.5929    152.04028   -1105.5526     2357.184    138227.13    10.472245     13.86743 
  482500   -1262.1466    161.39839   -1100.7482    2502.2692    135948.26    10.472245     13.94907 
  482600    -1265.487      148.471    -1117.016     2301.847    132121.49    10.472245    13.837238 
  482700   -1274.6001    162.79532   -1111.8048    2523.9266    126784.13    10.472245    13.909386 
  482800   -1258.4699     157.9249    -1100.545    2448.4172    136483.44    10.472245    14.088966 
  482900   -1261.9385    153.44591   -1108.4926    2378.9764    134844.97    10.472245    13.840432 
  483000    -1266.188    153.92227   -1112.2658    2386.3617    132036.86    10.472245    13.936398 
  483100   -1268.2008    154.63822   -1113.5626    2397.4616     130317.6    10.472245    14.012571 
  483200   -1251.3561      151.207   -1100.1492     2344.265    141981.86    10.472245     13.96208 
  483300   -1264.9908    151.09814   -1113.8927    2342.5773    131924.68    10.472245    13.699822 
  483400   -1268.2103    148.53086   -1119.6795     2302.775    130953.04    10.472245    13.818394 
  483500   -1255.5821    158.86504   -1096.7171    2462.9928    138247.33    10.472245    13.950447 
  483600   -1264.7567    156.86272    -1107.894    2431.9496    133222.13    10.472245    13.701088 
  483700   -1271.2911    152.61603    -1118.675    2366.1101    128284.03    10.472245    13.802909 
  483800   -1255.8945      152.102   -1103.7925    2358.1408    138013.58    10.472245    14.027975 
  483900   -1252.3603    151.57995   -1100.7803    2350.0471    143570.22    10.472245    13.974487 
  484000   -1264.4967    150.32381   -1114.1729    2330.5723    133993.21    10.472245    13.769391 
  484100    -1264.226    156.05138   -1108.1747    2419.3707    134369.44    10.472245    13.865942 
  484200   -1269.8811    143.37374   -1126.5074    2222.8207    129443.34    10.472245    13.851484 
  484300   -1267.4465    152.46368   -1114.9828    2363.7482    131276.16    10.472245    13.820179 
  484400    -1259.225    150.13937   -1109.0856    2327.7128    137081.78    10.472245    13.857693 
  484500   -1274.1948    149.92383    -1124.271    2324.3712    124187.02    10.472245    13.824091 
  484600   -1268.2532     153.5147   -1114.7385    2380.0429    130858.24    10.472245    13.985037 
  484700   -1258.2313    154.77749   -1103.4538    2399.6208    135902.35    10.472245     13.77996 
  484800   -1268.5686    153.92017   -1114.6484    2386.3292    130532.75    10.472245     13.76814 
  484900   -1261.3011    144.37352   -1116.9276    2238.3209    133587.49    10.472245    13.795488 
  485000   -1260.7254    155.66006   -1105.0654    2413.3039    136205.13    10.472245    13.776937 
  485100   -1258.8282    146.35732   -1112.4709    2269.0772    135837.41    10.472245    13.946321 
  485200   -1258.9865    150.13531   -1108.8512      2327.65    136374.92    10.472245    13.802641 
  485300   -1268.4673    160.90487   -1107.5624    2494.6177    132081.38    10.472245    13.785002 
  485400   -1273.9499    149.83971   -1124.1102    2323.0669    125336.29    10.472245    13.839884 
  485500   -1260.4427    153.82086   -1106.6218    2384.7894    135216.58    10.472245    13.839796 
  485600   -1265.7698    152.88283   -1112.8869    2370.2467     132781.6    10.472245     13.88886 
  485700   -1273.8599     151.7922   -1122.0677    2353.3379    127002.77    10.472245    13.913231 
  485800    -1273.607    161.45502    -1112.152     2503.147    127973.68    10.472245    13.764251 
  485900    -1258.154    151.77547   -1106.3785    2353.0785    136808.27    10.472245    13.811626 
  486000   -1278.8311    151.64511    -1127.186    2351.0574     123478.9    10.472245    13.763159 
  486100   -1269.1363    148.93938   -1120.1969    2309.1086    130040.28    10.472245    13.839504 
  486200   -1269.7991    158.76894   -1111.0302     2461.503    130357.59    10.472245    13.996766 
  486300   -1268.3778    153.43779     -1114.94    2378.8505    130705.72    10.472245      13.8316 
  486400   -1267.3539    144.97456   -1122.3794    2247.6392    129967.63    10.472245    14.036125 
  486500   -1258.6983    156.25541   -1102.4429    2422.5339    136689.31    10.472245    14.175505 
  486600   -1264.3673     150.2009   -1114.1664    2328.6668    133418.97    10.472245    13.952813 
  486700   -1266.4282    160.82326   -1105.6049    2493.3525    134214.81    10.472245    13.810232 
  486800   -1252.3096    150.19001   -1102.1196     2328.498    141745.46    10.472245    14.011277 
  486900   -1268.6659    154.73288    -1113.933    2398.9291    129668.51    10.472245    13.868946 
  487000   -1261.8398    151.22237   -1110.6174    2344.5033    134719.45    10.472245    13.958073 
  487100   -1267.9695    153.34024   -1114.6292    2377.3381    130219.77    10.472245    13.824988 
  487200   -1265.4373    145.33503   -1120.1022    2253.2279    132944.74    10.472245    13.929073 
  487300   -1261.2594    150.97122   -1110.2882    2340.6097    136103.72    10.472245    13.776495 
  487400   -1252.1513    150.13918   -1102.0121    2327.7099    141061.85    10.472245    13.975768 
  487500   -1273.2915     152.6328   -1120.6587    2366.3702    126637.44    10.472245    13.913753 
  487600   -1263.3348    156.41765   -1106.9171    2425.0493    132800.82    10.472245    13.823535 
  487700   -1264.6284    153.69959   -1110.9288    2382.9094    131401.23    10.472245     13.90265 
  487800   -1275.3617    153.83769    -1121.524    2385.0505     126182.4    10.472245    13.856288 
  487900   -1263.4535    158.20417   -1105.2493    2452.7469    133037.16    10.472245    13.909781 
  488000   -1265.6601    152.80842   -1112.8516     2369.093    131867.24    10.472245    13.822328 
  488100   -1279.9931    148.53498   -1131.4581     2302.839    122336.14    10.472245    13.821143 
  488200   -1267.3817    152.85572   -1114.5259    2369.8263    131037.39    10.472245    13.921102 
  488300   -1264.2251    152.26374   -1111.9613    2360.6485    132368.61    10.472245    13.870351 
  488400   -1257.6466    151.41449   -1106.2321    2347.4819    137005.26    10.472245    13.845738 
  488500   -1269.4101    155.86933   -1113.5408    2416.5483    130874.48    10.472245    14.002163 
  488600   -1265.3424    142.70408   -1122.6383    2212.4385    130338.25    10.472245    13.828695 
  488700   -1258.0569    158.91724   -1099.1396    2463.8021    137904.39    10.472245    13.937986 
  488800    -1257.121    148.28525   -1108.8357    2298.9672    138300.63    10.472245    13.971633 
  488900   -1277.3926    151.57108   -1125.8216    2349.9097    124699.55    10.472245    13.771197 
  489000   -1278.0778    144.49013   -1133.5876    2240.1288     123052.4    10.472245    13.703233 
  489100   -1273.4958    163.70739   -1109.7884    2538.0671     128438.6    10.472245    13.927621 
  489200   -1268.9516    159.95329   -1108.9984    2479.8647    131633.19    10.472245    13.701662 
  489300   -1269.0384    146.13127   -1122.9071    2265.5725    129044.12    10.472245    13.756743 
  489400    -1255.419    154.02844   -1101.3905    2388.0078    140332.34    10.472245    13.771759 
  489500   -1259.8157    145.16069    -1114.655     2250.525    134979.89    10.472245    13.821538 
  489600   -1262.9117    144.26354   -1118.6481    2236.6158    131946.68    10.472245    13.911325 
  489700   -1260.7938     151.2641   -1109.5297    2345.1504    135963.08    10.472245    13.809246 
  489800    -1273.719    156.03271   -1117.6863    2419.0813    127067.32    10.472245    13.919975 
  489900   -1273.6768    138.95872   -1134.7181    2154.3716    124284.35    10.472245    14.025538 
  490000    -1270.534    154.06805    -1116.466    2388.6219    129782.52    10.472245    13.746605 
  490100   -1264.7058    158.35243   -1106.3534    2455.0455    132648.24    10.472245    14.070379 
  490200   -1260.7617    162.41664    -1098.345    2518.0558    136650.76    10.472245    13.864044 
  490300   -1264.1886    146.62909   -1117.5595    2273.2906     131495.9    10.472245    13.662519 
  490400   -1269.7836    159.59503   -1110.1885    2474.3104    129882.84    10.472245    13.838153 
  490500   -1241.2503    153.06131    -1088.189    2373.0136    147423.82    10.472245    13.813515 
  490600   -1262.2603    158.17801   -1104.0822    2452.3414    135254.29    10.472245    13.854008 
  490700   -1269.9922    154.61884   -1115.3734    2397.1611     128571.7    10.472245    13.920207 
  490800   -1268.5513    146.99424    -1121.557    2278.9518    129880.41    10.472245    13.727536 
  490900   -1265.3033    161.39544   -1103.9079    2502.2234    133220.63    10.472245    13.799793 
  491000   -1259.9119    149.74212   -1110.1698     2321.554    134711.21    10.472245    13.878034 
  491100   -1270.7591    143.60888   -1127.1502    2226.4662    127789.26    10.472245     13.87097 
  491200   -1260.7913    151.48562   -1109.3056    2348.5846    134001.84    10.472245    14.121748 
  491300   -1265.1236    156.76144   -1108.3621    2430.3792    133556.27    10.472245    13.776209 
  491400   -1268.5664    145.72092   -1122.8455    2259.2106    129224.04    10.472245    13.910781 
  491500   -1259.3675    151.29717   -1108.0704     2345.663    135872.56    10.472245    13.886971 
  491600   -1266.0608    157.30311   -1108.7577    2438.7772    132543.15    10.472245     13.87875 
  491700   -1274.4917    143.55056   -1130.9411    2225.5621    124859.44    10.472245    13.692854 
  491800   -1261.9628    142.55129   -1119.4115    2210.0698    134606.73    10.472245    13.807401 
  491900   -1265.8447    157.56794   -1108.2767     2442.883     132828.4    10.472245    13.835871 
  492000   -1273.4359    148.66416   -1124.7718    2304.8416    127064.76    10.472245    13.759625 
  492100   -1270.0517    149.55612   -1120.4956    2318.6704    129918.94    10.472245    13.769411 
  492200   -1265.2939    154.14879   -1111.1451    2389.8737    132087.14    10.472245    13.649554 
  492300   -1263.6605    153.91057   -1109.7499    2386.1803    132981.11    10.472245     13.77228 
  492400   -1276.0397    152.84004   -1123.1997    2369.5832    125004.93    10.472245    13.966284 
  492500   -1270.6873    156.04917   -1114.6382    2419.3364    130203.83    10.472245    13.775514 
  492600   -1262.1203    159.77812   -1102.3421     2477.149    135118.52    10.472245    13.886343 
  492700   -1278.9495    159.76331   -1119.1861    2476.9194    123742.79    10.472245     13.77486 
  492800    -1275.913     158.1615   -1117.7515    2452.0855    126811.88    10.472245    13.939624 
  492900   -1261.9472    154.99788   -1106.9493    2403.0377    134047.04    10.472245     13.71206 
  493000   -1267.1581    152.73815   -1114.4199    2368.0035    130261.52    10.472245    13.829847 
  493100   -1270.7602    148.86445   -1121.8957    2307.9469    128770.99    10.472245    13.739415 
  493200   -1270.9793    167.61103   -1103.3682    2598.5878       129842    10.472245    13.915229 
  493300     -1252.01    144.72111   -1107.2889    2243.7099    140568.54    10.472245    13.988226 
  493400   -1279.9295    150.34607   -1129.5834    2330.9174    121832.64    10.472245     13.78966 
  493500   -1271.3932    155.57978   -1115.8134    2412.0593    129035.12    10.472245     13.93125 
  493600   -1263.9744    153.47213   -1110.5023    2379.3828    134735.14    10.472245    13.888679 
  493700   -1258.3026    170.53076   -1087.7719    2643.8544    139036.04    10.472245    13.845826 
  493800   -1261.9451    160.12648   -1101.8186    2482.5498    135167.58    10.472245    13.739848 
  493900   -1266.0932    148.18571   -1117.9075    2297.4239    130815.52    10.472245    13.790377 
  494000   -1270.5716    147.98761   -1122.5839    2294.3527    128797.88    10.472245    13.880805 
  494100   -1260.6414    158.03308   -1102.6083    2450.0944     135362.2    10.472245    13.838278 
  494200   -1269.9174    150.48067   -1119.4368    2333.0042    128412.08    10.472245    13.664142 
  494300   -1272.2538    160.91219   -1111.3416    2494.7312    128698.12    10.472245    13.878657 
  494400   -1256.9171    146.47091   -1110.4462    2270.8383    136773.62    10.472245    13.847797 
  494500   -1267.3327    160.98584   -1106.3469    2495.8731    132284.29    10.472245    13.793586 
  494600   -1267.0848    155.54638   -1111.5385    2411.5414    129827.38    10.472245    13.853051 
  494700   -1266.8615     150.6799   -1116.1816    2336.0931     130749.5    10.472245    13.825166 
  494800   -1261.5517    158.68196   -1102.8697    2460.1545    134960.83    10.472245    13.903893 
  494900   -1265.8512    158.10794   -1107.7432    2451.2551    132105.51    10.472245    13.987004 
  495000   -1267.6049    150.20895   -1117.3959    2328.7916    130976.36    10.472245     14.01753 
  495100   -1264.3146    157.64154   -1106.6731    2444.0241    133731.33    10.472245    13.822715 
  495200   -1259.3016    159.04665   -1100.2549    2465.8085    136297.76    10.472245    13.971463 
  495300   -1265.8659    147.96724   -1117.8986    2294.0368    131357.35    10.472245    13.834844 
  495400   -1272.1964    152.89932   -1119.2971    2370.5022    128437.87    10.472245    13.765879 
  495500   -1258.3128    155.44608   -1102.8667    2409.9864    138711.83    10.472245    13.708293 
  495600   -1261.3001    148.45927   -1112.8408    2301.6651    134157.83    10.472245    13.812905 
  495700   -1269.5414    154.43159   -1115.1098     2394.258     130835.7    10.472245    13.812749 
  495800   -1264.3739     154.1026   -1110.2713    2389.1576     132403.3    10.472245    13.828161 
  495900   -1264.0848     159.1965   -1104.8882    2468.1318    133405.11    10.472245     13.84976 
  496000    -1265.251    162.80042   -1102.4505    2524.0058    133061.94    10.472245    14.037727 
  496100   -1275.8157    155.02546   -1120.7903    2403.4652     126081.2    10.472245    13.728961 
  496200   -1260.6694     152.8235   -1107.8459    2369.3267    135250.22    10.472245    13.845882 
  496300   -1261.3494    142.13955   -1119.2099    2203.6862    132951.51    10.472245    13.970003 
  496400   -1272.4121    151.30205   -1121.1101    2345.7386    127141.17    10.472245    13.861495 
  496500   -1255.8058    150.30455   -1105.5012    2330.2738    137954.02    10.472245    13.900208 
  496600   -1268.4589    151.44654   -1117.0124    2347.9788    129922.28    10.472245    13.913576 
  496700   -1278.1116    137.34325   -1140.7684    2129.3259    121330.58    10.472245    13.753103 
  496800   -1265.6137    142.67645   -1122.9373    2212.0101    130479.98    10.472245     13.89023 
  496900   -1265.5359    157.65965   -1107.8762    2444.3049    132756.38    10.472245    14.021935 
  497000    -1259.966    155.19736   -1104.7687    2406.1304     137630.9    10.472245    13.965037 
  497100   -1272.8898    148.17633   -1124.7135    2297.2785    126658.88    10.472245     13.75322 
  497200   -1266.7037    155.19321   -1111.5105     2406.066    131049.42    10.472245    14.056432 
  497300   -1270.3896    159.85699   -1110.5326    2478.3717    128950.87    10.472245    13.805661 
  497400   -1270.6163    147.85074   -1122.7656    2292.2307    127516.79    10.472245    13.866384 
  497500   -1276.4973     150.9818   -1125.5155    2340.7737    124803.05    10.472245    13.875936 
  497600   -1269.2941    158.36621   -1110.9279    2455.2592    131169.47    10.472245    13.945219 
  497700   -1262.9736    155.79916   -1107.1744    2415.4604    133878.54    10.472245    13.758222 
  497800   -1277.1673    154.05905   -1123.1083    2388.4823    124014.48    10.472245    13.780334 
  497900   -1268.4104    158.69395   -1109.7164    2460.3404    130685.91    10.472245    13.814252 
  498000   -1263.0958    151.47369   -1111.6221    2348.3997    134068.43    10.472245    13.934699 
  498100    -1272.935    154.01898    -1118.916    2387.8612    127065.17    10.472245    13.811948 
  498200   -1263.3814    162.59439    -1100.787    2520.8116    135750.05    10.472245    13.943602 
  498300   -1261.5704     146.1298   -1115.4406    2265.5497     134003.8    10.472245    13.906051 
  498400   -1269.6204    154.14089   -1115.4795    2389.7511    130933.52    10.472245    13.734176 
  498500   -1257.6379    151.12163   -1106.5162    2342.9415    137190.72    10.472245    13.922316 
  498600   -1262.7591    171.39114    -1091.368    2657.1935    137075.55    10.472245    14.031452 
  498700    -1267.081    157.75161   -1109.3293    2445.7306    131258.05    10.472245    13.820832 
  498800   -1273.9706    154.06114   -1119.9094    2388.5147    126688.15    10.472245    13.713834 
  498900   -1256.1039    158.61395     -1097.49    2459.1001    140105.77    10.472245    13.868436 
  499000   -1273.5799    162.85383   -1110.7261    2524.8338    127175.69    10.472245    13.771707 
  499100   -1268.8653    148.97697   -1119.8884    2309.6914    130092.58    10.472245    13.985478 
  499200   -1258.9325    160.39177   -1098.5407    2486.6628    138131.67    10.472245     13.82187 
  499300   -1266.7015    153.21349    -1113.488     2375.373    133104.86    10.472245    13.770485 
  499400   -1271.9147    154.16875   -1117.7459    2390.1831     128747.3    10.472245    13.927979 
  499500    -1251.088    156.64596    -1094.442     2428.589    142262.36    10.472245    13.990416 
  499600   -1263.3309    161.83198   -1101.4989    2508.9913    135202.91    10.472245    13.954848 
  499700   -1266.8288    151.31588    -1115.513    2345.9531    132536.37    10.472245    13.874015 
  499800   -1269.5052    164.57212   -1104.9331    2551.4736    131203.21    10.472245    14.081426 
  499900   -1253.5288    162.10461   -1091.4242    2513.2181    141773.91    10.472245    14.009099 
  500000   -1265.1178    146.51407   -1118.6037    2271.5074    131567.06    10.472245    13.955657 
Loop time of 728.197 on 1 procs for 500000 steps with 500 atoms

Performance: 296.623 ns/day, 0.081 hours/ns, 686.628 timesteps/s
100.0% CPU use with 1 MPI tasks x no OpenMP threads

MPI task timing breakdown:
Section |  min time  |  avg time  |  max time  |%varavg| %total
---------------------------------------------------------------
Pair    | 432.87     | 432.87     | 432.87     |   0.0 | 59.44
Neigh   | 39.423     | 39.423     | 39.423     |   0.0 |  5.41
Comm    | 5.9507     | 5.9507     | 5.9507     |   0.0 |  0.82
Output  | 0.16941    | 0.16941    | 0.16941    |   0.0 |  0.02
Modify  | 248.54     | 248.54     | 248.54     |   0.0 | 34.13
Other   |            | 1.245      |            |       |  0.17

Nlocal:    500 ave 500 max 500 min
Histogram: 1 0 0 0 0 0 0 0 0 0
Nghost:    1965 ave 1965 max 1965 min
Histogram: 1 0 0 0 0 0 0 0 0 0
Neighs:    25882 ave 25882 max 25882 min
Histogram: 1 0 0 0 0 0 0 0 0 0

Total # of neighbors = 25882
Ave neighs/atom = 51.764
Neighbor list builds = 36135
Dangerous builds = 286
    
Total wall time: 0:12:08
