LAMMPS (3 Mar 2020)
Reading data file ...
  orthogonal box = (0 0 0) to (17.469 17.469 17.469)
  1 by 1 by 1 MPI processor grid
  reading atoms ...
  217 atoms
  read_data CPU = 0.0010033 secs
Reading potential file library.meam with DATE: 2012-06-29
Reading potential file LiSi.meam with DATE: 2020-11-07
1 atoms in group Li
216 atoms in group Si
Neighbor list info ...
  update every 1 steps, delay 10 steps, check yes
  max neighbors/atom: 2000, page size: 100000
  master list distance cutoff = 6
  ghost atom cutoff = 6
  binsize = 3, bins = 6 6 6
  2 neighbor lists, perpetual/occasional/extra = 2 0 0
  (1) pair meam/c, perpetual
      attributes: full, newton on
      pair build: full/bin/atomonly
      stencil: full/bin/3d
      bin: standard
  (2) pair meam/c, perpetual, half/full from (1)
      attributes: half, newton on
      pair build: halffull/newton
      stencil: none
      bin: none
Setting up Verlet run ...
  Unit style    : metal
  Current step  : 0
  Time step     : 0.003
Per MPI rank memory allocation (min/avg/max) = 8.895 | 8.895 | 8.895 Mbytes
Step Temp E_pair E_mol TotEng Press Volume 
       0         1700   -951.04357            0   -903.57924   -114721.17    5330.9442 
    3200    1800.9554    -945.5665            0   -895.28348   -10413.918    4704.0144 
Loop time of 2.28814 on 1 procs for 3200 steps with 217 atoms

Performance: 362.495 ns/day, 0.066 hours/ns, 1398.516 timesteps/s
100.0% CPU use with 1 MPI tasks x no OpenMP threads

MPI task timing breakdown:
Section |  min time  |  avg time  |  max time  |%varavg| %total
---------------------------------------------------------------
Pair    | 2.1881     | 2.1881     | 2.1881     |   0.0 | 95.63
Neigh   | 0.050815   | 0.050815   | 0.050815   |   0.0 |  2.22
Comm    | 0.014983   | 0.014983   | 0.014983   |   0.0 |  0.65
Output  | 2.5363e-05 | 2.5363e-05 | 2.5363e-05 |   0.0 |  0.00
Modify  | 0.029406   | 0.029406   | 0.029406   |   0.0 |  1.29
Other   |            | 0.004824   |            |       |  0.21

Nlocal:    217 ave 217 max 217 min
Histogram: 1 0 0 0 0 0 0 0 0 0
Nghost:    953 ave 953 max 953 min
Histogram: 1 0 0 0 0 0 0 0 0 0
Neighs:    4155 ave 4155 max 4155 min
Histogram: 1 0 0 0 0 0 0 0 0 0
FullNghs:  8310 ave 8310 max 8310 min
Histogram: 1 0 0 0 0 0 0 0 0 0

Total # of neighbors = 8310
Ave neighs/atom = 38.2949
Neighbor list builds = 86
Dangerous builds = 1
Setting up Verlet run ...
  Unit style    : metal
  Current step  : 3200
  Time step     : 0.003
Per MPI rank memory allocation (min/avg/max) = 9.662 | 9.662 | 9.662 Mbytes
Step PotEng KinEng TotEng Temp Press Density c_msdli[4] c_msdsi[4] 
    3200    -945.5665     50.28302   -895.28348    1800.9554   -10413.918     2.143979            0 2.1356423e-32 
    3300   -947.47855    48.404839   -899.07371    1733.6858    6365.3019    2.1925539   0.56593392   0.10226676 
    3400   -948.39966    45.396973   -903.00269    1625.9549    8343.7209    2.2035152   0.16581963   0.10865097 
    3500   -942.58378     49.27159   -893.31219    1764.7297   -12843.651     2.135037  0.038176915   0.12192677 
    3600   -947.93753    50.836278   -897.10125    1820.7711    -5343.318    2.1621127   0.54326432   0.11924074 
    3700   -944.69789    45.776831   -898.92106    1639.5601    12247.724    2.2044087   0.47388937   0.11188506 
    3800   -935.83487    47.137603   -888.69727     1688.298   -736.67123    2.1519227  0.035412795   0.12284643 
    3900   -941.19358    45.832028   -895.36155     1641.537   -7161.0092    2.1483923   0.38340968   0.13464257 
    4000   -945.42519    47.091452   -898.33373     1686.645    3636.0439    2.1855172     0.299769   0.12529393 
    4100   -942.89299    48.487401   -894.40559    1736.6429    8311.0111    2.1880912  0.062385459   0.10427413 
    4200   -942.49249    51.442652   -891.04984    1842.4892   -11249.709    2.1392079   0.46336326  0.089840189 
    4300   -942.10974    41.888481   -900.22126    1500.2935   -1936.8813    2.1660979   0.12567617   0.10234526 
    4400   -945.27113    49.942957   -895.32818    1788.7756    11676.108    2.1967875   0.34141594   0.11972362 
    4500   -944.15015    50.907058    -893.2431    1823.3062   -489.66524    2.1651728   0.07703385   0.12342034 
    4600   -948.92083    45.923841   -902.99699    1644.8255   -7908.6468    2.1619159   0.12106451   0.12871695 
    4700   -945.42512     46.23691   -899.18821    1656.0384    667.71168     2.178563     0.201439   0.12468384 
    4800   -938.05646    44.616694   -893.43977    1598.0082    10807.155    2.1870181   0.61484373   0.12274698 
    4900   -947.35562    48.385024   -898.97059    1732.9761   -4495.8825    2.1638624   0.16115886   0.11818113 
    5000   -946.93288    43.909572   -903.02331    1572.6816   -5669.5639    2.1662141   0.14610406   0.13859923 
    5100   -940.97966    46.735572   -894.24409    1673.8987    2862.4803    2.1774998    0.1531156    0.1426718 
    5200   -941.89738    45.726554   -896.17083    1637.7593    6642.1161    2.1792327  0.028688087   0.11476924 
    5300   -945.09475    41.961742   -903.13301    1502.9174   -1518.3049    2.1694609  0.080734704   0.11629896 
    5400   -942.76741    48.184856   -894.58255    1725.8068   -1193.5454    2.1600217   0.39472051   0.10945061 
    5500   -944.26387    50.214382   -894.04949    1798.4971    7584.8617    2.1871304   0.14901386   0.13285635 
    5600   -946.37978    46.370391   -900.00939    1660.8192   -3288.6156    2.1690127   0.28065589   0.15243528 
    5700   -940.67571    47.363003   -893.31271     1696.371    -4115.805    2.1508467  0.072463181   0.13394412 
    5800   -943.45136    51.719667   -891.73169    1852.4109    2815.9237    2.1720613   0.10441648   0.12941185 
    5900   -946.20568     47.92979   -898.27589    1716.6713    2119.8921    2.1794681  0.091975014   0.12935641 
    6000   -943.24817    46.722569    -896.5256     1673.433     -4219.84     2.156897   0.21742008   0.12787886 
    6100   -941.03851    51.819864   -889.21865    1855.9996   -6076.6611    2.1469344  0.013761642   0.13937143 
    6200   -942.18818    43.415405   -898.77278    1554.9824    9272.9134    2.1933326  0.078993657   0.13100152 
    6300   -942.05113    44.833377   -897.21775     1605.769    1684.6267    2.1699212  0.088192146    0.1132759 
    6400   -942.67799    50.377931   -892.30006    1804.3548   -10396.812    2.1354042   0.43886931   0.11777431 
    6500   -947.68284    45.446506   -902.23634     1627.729    4195.5393    2.1874285   0.19255119   0.12776507 
    6600   -941.65891    42.735692   -898.92321    1530.6375    10730.249    2.1886522    0.5052791    0.1487979 
    6700   -943.38318    48.697628   -894.68555    1744.1724   -6640.3749     2.147911   0.12734269   0.13268691 
    6800   -942.42969    47.214409   -895.21528    1691.0489   -6468.4816    2.1472669   0.60295331   0.12100043 
    6900   -953.44148    51.341323   -902.10015      1838.86    10897.562    2.2142377   0.20760994   0.11145958 
    7000   -944.69945    51.151313   -893.54814    1832.0545    2481.2979    2.1733383   0.38677347    0.1099884 
    7100   -941.87841    45.776635   -896.10178    1639.5531   -15464.862    2.1296151   0.35223402   0.13357773 
    7200   -944.81908    44.387339   -900.43174    1589.7935     1038.711    2.1792194    0.2351049   0.13461161 
    7300   -947.07074    46.025032   -901.04571    1648.4497    12024.815    2.2115743   0.12883184   0.12471766 
    7400   -940.94657    47.951321   -892.99525    1717.4424   -6194.1705    2.1488845   0.10973542   0.12568507 
    7500   -945.57218    47.272186   -898.29999    1693.1183   -6244.7594    2.1586046   0.18553216   0.12513862 
    7600   -944.06377    45.663175    -898.4006    1635.4893    5865.7279     2.187342   0.17575108    0.1383775 
    7700   -940.58047    51.719192   -888.86128    1852.3939    152.91505    2.1572505   0.97452595   0.14819341 
    7800   -947.06158    50.623191   -896.43839    1813.1391   -4062.7491    2.1617663    4.3039151   0.15270472 
    7900   -945.48813    48.372461   -897.11567    1732.5261     512.3398    2.1763873    12.478294   0.15428766 
    8000   -939.30598    51.380293   -887.92569    1840.2557    2178.3406     2.161509     18.30232   0.11756904 
    8100   -945.27249    48.735224   -896.53727     1745.519    -1662.749    2.1683583    17.684643   0.11160839 
    8200   -945.88477     47.52857    -898.3562     1702.301   -4426.3198    2.1625008     17.72921   0.11393338 
    8300   -941.30365    50.024247    -891.2794    1791.6871    4133.0749    2.1738356    16.195994   0.11305407 
    8400   -942.87717    47.345358   -895.53181     1695.739    2931.4364    2.1735843    19.564063   0.14331349 
    8500   -946.37124    46.042985   -900.32826    1649.0927   -6364.2102    2.1563463    16.875168    0.1353403 
    8600   -941.39353    46.157744   -895.23578     1653.203    3321.2744    2.1748614    22.232644   0.14105144 
    8700   -943.94391    50.860131   -893.08378    1821.6254    7610.4544    2.1898245    18.206644   0.13576604 
    8800   -948.80596    45.793479   -903.01248    1640.1563   -6374.0663    2.1670688    17.122411   0.12049781 
    8900   -943.09635    44.710275   -898.38607    1601.3599   -11544.441    2.1432356    16.924876   0.12776395 
    9000   -942.87969    49.439073   -893.44062    1770.7283    10661.608    2.1937724    17.924745   0.14573599 
    9100    -944.5622    45.103845   -899.45835    1615.4561    8823.9312    2.1962219    17.555266   0.13258376 
    9200   -944.11673    40.084629    -904.0321     1435.686   -11205.033    2.1485317    18.368375   0.12813133 
    9300   -941.71073    46.978587   -894.73214    1682.6026   -3800.0561    2.1561702    17.810691   0.14906479 
    9400   -944.27014    49.021808   -895.24833    1755.7834    9955.1122    2.1956189    19.197964   0.14523941 
    9500   -945.22805    43.705354    -901.5227    1565.3673    1105.1265    2.1772403    18.491116    0.1538923 
    9600   -941.41372    48.778707   -892.63501    1747.0764    -5554.271    2.1517208    19.270036   0.15215731 
    9700   -943.73967       50.024   -893.71567    1791.6783     2485.572    2.1769095    17.157148   0.12458227 
    9800   -948.77984    50.060973   -898.71887    1793.0025    1487.8967    2.1863582    20.644375   0.13110561 
    9900    -941.8463    47.661321   -894.18498    1707.0557    -3610.716    2.1581533    18.225509   0.12476417 
   10000   -938.09235    47.314686   -890.77766    1694.6405   -3126.9463    2.1521232    18.140688   0.12750643 
   10100   -945.85988    47.579688   -898.28019    1704.1319    5774.1783    2.1889264    19.160615   0.11825333 
   10200   -939.73876    43.832592   -895.90617    1569.9245    2718.3241    2.1757289    19.642481   0.16536033 
   10300   -939.95913    49.587781   -890.37135    1776.0545   -11770.302    2.1338304    28.785092    0.1656306 
   10400   -943.16715    43.998565   -899.16858    1575.8691    2012.4099    2.1757345    31.913736   0.15926547 
   10500   -944.18157    48.167306   -896.01427    1725.1782    10360.268    2.1991565    33.456436   0.16378182 
   10600   -940.85806    50.138798   -890.71926    1795.7899     -3442.61    2.1587706    35.840541   0.16058779 
   10700   -942.16172    47.395818    -894.7659    1697.5463    -13376.14    2.1358856    38.957264   0.15466426 
   10800   -942.28071    44.629811    -897.6509     1598.478    7152.1229    2.1857942     32.60509   0.16813842 
   10900   -943.38603    51.104515   -892.28151    1830.3784    13112.156    2.1990088    29.872556   0.15859978 
   11000   -942.79429    48.284173   -894.51011     1729.364   -11834.515    2.1394655    26.593023   0.15895722 
   11100   -943.79507    41.708738   -902.08633    1493.8558   -3419.5331    2.1673186    27.709787   0.16349462 
   11200   -942.95536    49.413197   -893.54216    1769.8015    7782.7543    2.1875833    28.668765   0.15198847 
   11300   -941.10045    46.552854    -894.5476    1667.3544    2982.0702    2.1705749     28.96365   0.15700392 
   11400    -944.5418    41.622811   -902.91899    1490.7782   -1416.3528    2.1707289    33.225287   0.14607512 
   11500   -942.43766    48.117159    -894.3205    1723.3821   -2291.3198    2.1681025    29.175437   0.16621479 
   11600   -943.06767    49.524352   -893.54331    1773.7827    3310.6349    2.1765721    31.581406   0.15564952 
   11700   -944.74879    44.459265   -900.28952    1592.3696    1138.6636     2.173061    31.637225   0.14578195 
   11800   -937.72918    43.234996   -894.49419    1548.5208    -950.1446    2.1558555    29.600995   0.14861729 
   11900   -936.42886    44.839402   -891.58946    1605.9848    4602.0608    2.1690925    22.222973   0.15328305 
   12000   -942.63546     45.38055   -897.25491    1625.3667     4414.284    2.1739776    19.599633   0.15271079 
   12100     -943.911    45.803063   -898.10794    1640.4996   -5785.8907    2.1584264    18.781501   0.13469046 
   12200   -938.15521    48.967926   -889.18728    1753.8535   -3407.3292    2.1425265     30.24778    0.1645733 
   12300    -945.0335    49.336863   -895.69664    1767.0675    7582.9576     2.188488     36.49707   0.15793182 
   12400   -945.42453    48.287391   -897.13714    1729.4792    3887.2698    2.1794989    32.109007   0.12760324 
   12500   -937.38988    48.539595   -888.85029    1738.5123   -12693.438    2.1264155     34.75116   0.15495278 
   12600   -943.45857    49.895819   -893.56275    1787.0873   -223.32544    2.1680951    37.336642   0.13804111 
   12700   -944.08357    48.045737   -896.03783     1720.824    10846.394    2.2020644    30.920136   0.16608888 
   12800   -941.93602    45.994469   -895.94156    1647.3551   -6285.3737    2.1533396    33.683575   0.17716968 
   12900   -938.38888    50.164447   -888.22443    1796.7086   -10360.054    2.1287741    33.276312   0.17262748 
   13000   -941.50934    42.623164   -898.88618    1526.6072    15184.661    2.2045582    34.607546   0.15729288 
   13100    -943.1449    46.751722   -896.39318    1674.4771     2032.123    2.1709806    32.050382   0.15499647 
   13200   -938.38462    44.568195   -893.81643    1596.2711   -2763.2528    2.1470033    29.133776   0.15539899 
   13300   -946.06211    43.322269   -902.73984    1551.6466   -438.21635    2.1799902    35.344366   0.15422601 
   13400   -943.01081    45.263981   -897.74683    1621.1916    2136.7306     2.179914    24.916987   0.16679902 
   13500   -942.29256    48.402794   -893.88977    1733.6126   -3294.8619    2.1623179    33.738364   0.15298891 
   13600   -944.71134     46.00069   -898.71065    1647.5779   -5050.6539     2.163858    34.443021   0.15448977 
   13700   -946.54909    45.123166   -901.42593    1616.1482    3551.5805    2.1821876    30.235188   0.15143496 
   13800   -941.19944    49.162679   -892.03676    1760.8289   -319.04002    2.1664937      27.0388   0.18538956 
   13900   -942.59273    46.718672   -895.87406    1673.2934    -2430.246    2.1645587    28.151287   0.17011278 
   14000    -946.3001    45.602897    -900.6972    1633.3304   -1645.6992    2.1785631    30.919989   0.17082562 
   14100   -941.28873     49.38064   -891.90809    1768.6354    3435.1817    2.1774448    32.883138   0.17902448 
   14200   -937.43139    44.633856   -892.79753    1598.6229    3636.1451    2.1727441    31.224875    0.1721302 
   14300   -947.07856    48.441484   -898.63708    1734.9983   -5372.6547    2.1601412    27.828475   0.14087957 
   14400   -940.04995    46.242634   -893.80731    1656.2435    2559.4808    2.1722597    29.944545   0.17164754 
   14500   -938.62868     50.79713   -887.83155     1819.369    4096.8146    2.1712545    31.479307   0.17210786 
   14600   -944.11742    47.621649   -896.49577    1705.6348   -3696.3673    2.1612521    48.167004   0.13159173 
   14700   -941.75288    46.223036   -895.52984    1655.5415    -3241.786    2.1582919    51.100106   0.15596803 
   14800   -937.19832    49.985766   -887.21256    1790.3089     7004.226    2.1772298    51.417608   0.14259721 
   14900   -943.14922    48.094075   -895.05515    1722.5553    1414.4276    2.1802139    58.745762   0.15259134 
   15000   -941.55798    43.936396   -897.62159    1573.6424   -11587.073    2.1376122    50.984282   0.14550313 
   15100   -941.65877    49.943414   -891.71536     1788.792    1924.5275    2.1662407     51.84108    0.1349766 
   15200    -942.9634    44.240757   -898.72265    1584.5435    13087.375    2.2037521    54.483116   0.13368895 
   15300   -945.94929    45.386075   -900.56322    1625.5646   -6035.1354    2.1607728      57.0614   0.13367745 
   15400   -943.45057    47.977094   -895.47348    1718.3655   -6281.3695     2.155507    56.865763   0.13995273 
   15500   -943.72504     49.86437   -893.86067    1785.9609    6506.1078    2.1867709    56.555521   0.15538321 
   15600   -950.72545    47.183806   -903.54164    1689.9528    3243.1991    2.1949566    57.207142   0.13331324 
   15700   -944.85855    47.707359   -897.15119    1708.7046   -7042.3905     2.155477    55.411051    0.1259453 
   15800   -941.29566    46.934831   -894.36083    1681.0354    2036.7312     2.169939    53.587796   0.12722796 
   15900   -948.23136    46.859743   -901.37162    1678.3461    3094.4274    2.1923717     56.86214   0.12729164 
   16000   -945.92128     46.20756   -899.71372    1654.9872   -1766.8812     2.176037    58.924401   0.13973209 
   16100   -945.07786    50.989861     -894.088    1826.2719   -5705.5813    2.1611669    57.298995   0.13801599 
   16200   -945.10672    47.211136   -897.89558    1690.9317   -535.71259    2.1770678    54.871103   0.13494246 
   16300    -947.9776    46.293217   -901.68438    1658.0552    1765.8175     2.186957    54.141941   0.15047662 
   16400   -946.50479    55.503144   -891.00165    1987.9213   -7087.9286    2.1543661    52.848318   0.14020267 
   16500   -944.66676    49.597756     -895.069    1776.4117    1812.4905    2.1741652    55.996266   0.14732859 
   16600   -942.71082    43.517162   -899.19366    1558.6269    4633.1456    2.1791663    54.904502   0.13777803 
   16700   -938.92965    46.653948    -892.2757    1670.9752    1267.7434    2.1625667    58.622827   0.12071865 
   16800   -942.18396    49.973986   -892.20998    1789.8869    -258.2442    2.1649948     52.58695   0.11789244 
   16900    -948.3709    49.807236   -898.56366    1783.9146   -4148.1192     2.168696    54.409162   0.11199375 
   17000   -941.42008    46.655348   -894.76474    1671.0254    3945.1333    2.1775301    55.007657    0.1266585 
   17100    -939.0099    50.563293   -888.44661    1810.9938     1930.292    2.1574911    56.998942   0.15332541 
   17200    -947.1796    48.430555   -898.74904    1734.6069   -911.59745     2.170283    56.722482   0.12876139 
   17300   -947.01035    50.247202   -896.76315    1799.6726    395.53198    2.1765218    56.205174    0.1343605 
   17400   -940.57359    48.268021   -892.30556    1728.7855    290.42145    2.1637033    55.082372   0.15250261 
   17500   -938.57008    48.336492   -890.23359    1731.2379   -5351.4932      2.14795    57.327316   0.14068891 
   17600   -943.43869    43.819685   -899.61901    1569.4622    8910.8664    2.1894706    54.004028   0.13866635 
   17700    -945.4688    49.009852   -896.45895    1755.3551     2931.885    2.1819135    55.653537   0.13116436 
   17800     -939.819    44.160822   -895.65818    1581.6805   -8581.2685    2.1479387    59.511026   0.13537135 
   17900   -946.46896    44.033211   -902.43575    1577.1099    -5607.245    2.1698634    57.539219   0.14701518 
   18000   -946.56258    44.501627   -902.06095    1593.8869    11757.948    2.2098377     53.44273   0.13387338 
   18100   -943.82091    48.122581   -895.69833    1723.5763    2350.5593    2.1765448    53.743392   0.13911847 
   18200   -943.15083    46.838163   -896.31267    1677.5731   -10926.814    2.1431759    57.110824    0.1444848 
   18300   -947.32443    43.785481   -903.53895    1568.2372    3446.5588    2.1873608       54.312   0.12414319 
   18400   -944.57806    43.877731   -900.70033    1571.5412     12627.55    2.2038966     53.21548   0.14029997 
   18500    -943.8091    48.139351   -895.66975     1724.177   -4947.1996    2.1593241    56.177986   0.14127355 
   18600   -944.89313    47.984721   -896.90841    1718.6387   -7360.6756    2.1534982    54.325823   0.11905564 
   18700   -951.39325    47.212004   -904.18125    1690.9628    3658.6254    2.1963801     54.99792   0.13538666 
   18800   -946.18793    48.381044   -897.80688    1732.8336    4667.4773    2.1873743    58.343219   0.12961662 
   18900   -943.59876    48.074464    -895.5243    1721.8529   -3378.5667    2.1595261    52.301134   0.10932695 
   19000   -944.32441    46.671997   -897.65242    1671.6217   -2081.1421    2.1657649    56.574283   0.11972416 
   19100   -950.18384    48.359111   -901.82473     1732.048    919.00016    2.1861512    57.485277   0.12166191 
   19200   -953.82699    44.264057   -909.56293     1585.378   -1549.6146     2.191909     52.22439   0.11718409 
   19300   -950.10329    50.686117   -899.41717    1815.3929   -9171.6838    2.1603042    55.709868   0.13856386 
   19400   -944.76095    47.338868   -897.42208    1695.5066    5259.6194    2.1810923    51.982566    0.1208056 
   19500   -944.26534    50.412975   -893.85236    1805.6099    73.245935    2.1694272    66.723287   0.12742333 
   19600   -940.18079    49.322193    -890.8586    1766.5421   -2018.2298    2.1523722    84.808558   0.13543352 
   19700   -947.75483    46.637069   -901.11777    1670.3707    2472.4579    2.1849415    73.399366   0.11477641 
   19800   -946.67062    49.826517    -896.8441    1784.6051   -612.57329    2.1713151    76.221399   0.13371464 
   19900   -943.46379    50.007288    -893.4565    1791.0797    -3896.506    2.1567971    81.289392   0.13791622 
   20000     -949.735    46.855754   -902.87925    1678.2032    418.21476    2.1845588    81.908806    0.1122123 
   20100    -941.6698    43.696374   -897.97342    1565.0456    3208.2046    2.1757537    80.367086   0.13953477 
   20200   -943.61185    49.231036   -894.38082    1763.2772   -1711.0356    2.1635317    79.180507   0.14370227 
   20300   -945.34407      44.6835   -900.66057    1600.4009    2461.6576    2.1801219    77.773546   0.13030746 
   20400   -945.92966    45.104309   -900.82535    1615.4728    3635.6093    2.1832799    78.322104   0.14241548 
   20500    -938.1747    44.225231   -893.94947    1583.9874    93.123076    2.1613712    74.487171   0.12401311 
   20600   -940.75602    42.395107   -898.36092     1518.439   -287.37864    2.1692711     76.45335   0.13198993 
   20700   -945.68979    43.798359   -901.89143    1568.6984    4977.1587    2.1907131    79.120048   0.14290195 
   20800   -940.72187      48.6467   -892.07517    1742.3484   -1257.7398    2.1620074    81.608441   0.13466941 
   20900   -942.23389    45.134336   -897.09955    1616.5482   -4601.2485    2.1630174    81.619468   0.13513491 
   21000   -944.18598    44.390737   -899.79525    1589.9152    2172.7151    2.1800352    80.902606   0.13434296 
   21100   -938.08328     48.64383   -889.43945    1742.2456    2044.1282    2.1612364    79.691072   0.13164199 
   21200   -942.35896     47.22563   -895.13333    1691.4508   -2325.5377    2.1624081    81.128244   0.13701208 
   21300   -941.85803    42.155368   -899.70266    1509.8524    690.58937    2.1677936    83.113401   0.12069324 
   21400    -939.4811    47.352798   -892.12831    1696.0055    6452.4623    2.1777376    80.010405   0.13316629 
   21500   -937.55199    43.510864   -894.04113    1558.4014    2525.9462    2.1690803    77.182345   0.13487349 
   21600   -940.95302    40.455069   -900.49795    1448.9539    -4225.462     2.156469    84.251631    0.1204138 
   21700   -939.68917    45.462715   -894.22646    1628.3096    5496.3879    2.1741347     78.12684   0.13148343 
   21800   -942.22578    48.785878    -893.4399    1747.3332    8167.2421    2.1835496    82.645523   0.13978263 
   21900   -948.06267     45.60105   -902.46162    1633.2643   -4474.5192    2.1658766    80.615235   0.11918894 
   22000   -942.41339     45.36146   -897.05193     1624.683   -4248.9558     2.154064     83.24794    0.1218854 
   22100   -945.25546     52.65572   -892.59974    1885.9369    4735.0498    2.1848336    86.263636   0.13584158 
   22200   -944.14451    42.650203    -901.4943    1527.5756    7786.1807    2.1909757    80.764445   0.11959474 
   22300   -945.99679    48.003261   -897.99353    1719.3027   -12236.202    2.1397932    85.530325   0.12143924 
   22400   -943.73342    49.606043   -894.12738    1776.7086   -452.63108    2.1673162    80.528683   0.13458607 
   22500    -944.8601    47.698682   -897.16142    1708.3938     13237.09    2.2059521    77.082557   0.12763245 
   22600   -947.92098    44.563056   -903.35792     1596.087   -4448.9555    2.1695306     77.41804   0.13211986 
   22700   -941.20089      48.2874   -892.91349    1729.4795     -14024.4    2.1321057    81.491022   0.13368648 
   22800   -946.10236    50.993434   -895.10893    1826.3999    8449.6896     2.195322    78.120729   0.13803441 
   22900   -946.96979    47.537671   -899.43212     1702.627    3933.6367    2.1898342    83.875192   0.13372876 
   23000   -941.13766    49.530277   -891.60739    1773.9949   -5654.3275    2.1478315    78.351329   0.13095049 
   23100   -941.67742     47.82909   -893.84833    1713.0645   -3056.5142    2.1593909    77.761066   0.13418417 
   23200   -946.76192    47.582968   -899.17896    1704.2494    3788.9301    2.1832035     78.26574   0.11944712 
   23300   -941.46853     47.65449   -893.81404     1706.811      2592.17    2.1707962    80.212675   0.12823575 
   23400    -941.3658    48.975478   -892.39033     1754.124   -5583.3868    2.1484219    82.183652   0.13243736 
   23500    -948.2512    47.211927   -901.03927      1690.96    2412.9569    2.1814759    82.602025   0.12279561 
   23600   -943.69633    48.640208   -895.05612    1742.1159    3780.8998    2.1797041    77.982724   0.13734877 
   23700   -940.91294     46.29638   -894.61656    1658.1685   -2635.4798    2.1549653    82.657353   0.13503892 
   23800   -946.29153    42.623425    -903.6681    1526.6165    619.43785    2.1755684    74.644743   0.11971382 
   23900   -945.28709    49.051735   -896.23536    1756.8553    2916.9883    2.1805592    76.389484   0.14189188 
   24000    -941.8827    47.376145   -894.50656    1696.8417    528.11299     2.167844    75.925456   0.13558426 
   24100   -947.55576    44.433377   -903.12238    1591.4424   -8636.0371    2.1570556    79.623125   0.12692651 
   24200   -943.74465    45.983979   -897.76067    1646.9794    2122.5131    2.1716663    80.803793   0.12541461 
   24300   -944.51341    52.322422   -892.19099    1873.9994    9901.4607    2.1922102    77.676535   0.13079869 
   24400   -944.14887    44.548206   -899.60066    1595.5552   -6509.1499      2.15195    78.779112   0.13332201 
   24500   -944.38115    47.696705   -896.68444     1708.323   -11479.375    2.1420637    87.029916   0.13630605 
   24600   -939.05352    49.676975   -889.37654    1779.2491    10957.489     2.184003    81.419435   0.14703824 
   24700   -945.91244    49.651424   -896.26101    1778.3339    4299.7961    2.1812769    78.906566    0.1320241 
   24800   -945.43147    45.771927   -899.65954    1639.3844    -10298.43    2.1471625    78.070447   0.12403528 
   24900   -939.27234    48.306611   -890.96573    1730.1676    109.61953    2.1613611    78.508071   0.15438487 
   25000   -945.38361    51.044992   -894.33862    1828.2465     6082.443    2.1852536    76.829368    0.1360162 
   25100   -944.23174    44.927682   -899.30406    1609.1466   -975.28457    2.1665119    81.655671   0.11871515 
   25200   -942.81319    48.749127   -894.06407    1746.0169   -4066.9744    2.1574392    87.042411   0.12804246 
   25300   -940.62032    49.054593   -891.56573    1756.9576    850.66194    2.1667149    86.390637   0.14011611 
   25400   -946.56298     45.72869   -900.83429    1637.8358    3755.9492    2.1867783    92.325568   0.12934336 
   25500   -947.90444    51.615818   -896.28862    1848.6914    -3990.213    2.1646371      84.7587   0.12893676 
   25600   -943.14653    49.666215   -893.48031    1778.8637   -3623.4855    2.1581164    78.988993   0.13741977 
   25700   -945.35569    42.216207   -903.13949    1512.0314     7299.297    2.1947385    73.852949   0.14371577 
   25800   -945.04972    49.165096   -895.88463    1760.9154   -4398.5359    2.1615793    79.333655   0.14852142 
   25900   -943.26013    48.058468   -895.20166      1721.28   -4384.1878    2.1597258    78.821822   0.15408249 
   26000   -945.77131    44.529804    -901.2415    1594.8961    5589.0781    2.1894294    81.546712   0.13823101 
   26100   -945.90457    45.997486   -899.90709    1647.4631    4388.6564    2.1862305    86.799871   0.13128042 
   26200   -939.48774    45.730252   -893.75749    1637.8918   -7820.0131    2.1438106    88.723439   0.12777479 
   26300   -948.41932    49.735088   -898.68424    1781.3305   -8290.5401    2.1565613    84.143204   0.11712536 
   26400   -947.09993    49.825509   -897.27442     1784.569     19286.67    2.2205431    72.855186   0.13992361 
   26500   -936.16826    48.133127   -888.03513    1723.9541   -855.53737    2.1514298    77.957414    0.1307977 
   26600   -940.35914    44.233293   -896.12584    1584.2761   -13579.397    2.1261465    78.123692    0.1215276 
   26700   -943.94619    46.513209   -897.43298    1665.9345    5779.2552    2.1834065    83.369953   0.12674264 
   26800   -942.63604    47.450661   -895.18538    1699.5106    10916.718    2.1917835    80.547631   0.13193902 
   26900   -937.94831    49.394688   -888.55362    1769.1386   -8707.0882    2.1297229    85.080407   0.16127571 
   27000   -943.66301    44.479575   -899.18343    1593.0971    1083.7686    2.1699253    78.554971   0.13349522 
   27100   -943.72839    46.904182    -896.8242    1679.9377    7494.3244    2.1828336    76.431516    0.1122786 
   27200   -944.10147    51.387599   -892.71387    1840.5174   -3121.7287    2.1587097    79.885393   0.12157254 
   27300   -940.46633    51.189396   -889.27694    1833.4185   -6783.5396    2.1438867     78.11259   0.12403634 
   27400   -947.44008       47.908   -899.53208    1715.8908    7027.7936    2.1917641    78.256964   0.11807702 
   27500   -945.50333    48.934628    -896.5687    1752.6609    4015.1732    2.1806433    79.708043   0.13226149 
   27600   -944.78895    49.323733   -895.46522    1766.5972   -10593.772    2.1432895    80.818053   0.13015809 
   27700   -948.70662    44.723191   -903.98343    1601.8225   -1900.8436    2.1720593    78.461405   0.11214717 
   27800   -946.96314    45.837564   -901.12558    1641.7353    9377.7031      2.19597    82.367238   0.12651288 
   27900   -939.31642     43.74049   -895.57593    1566.6257    3815.9645    2.1656026    82.632043   0.12647861 
   28000   -943.57142    47.066804   -896.50461    1685.7622   -8037.0877    2.1472566    80.967592   0.12365332 
   28100   -948.25836    43.197624   -905.06074    1547.1822    4916.9093    2.1893289    74.278574   0.11709227 
   28200   -944.25839    46.776627   -897.48176    1675.3691     5537.878    2.1832742    79.035285   0.11775622 
   28300   -943.10914    47.509466   -895.59967    1701.6168   -1947.4233    2.1599053    78.343766   0.11611537 
   28400   -946.90572    48.169852   -898.73587    1725.2694   -6006.5349     2.158029    84.271511   0.11494254 
   28500   -947.66169    42.730462   -904.93122    1530.4502    9982.3698    2.2030752    82.248733   0.13590315 
   28600   -944.54871    49.847897   -894.70081    1785.3709   -908.23032    2.1708494    78.845371   0.12941809 
   28700   -940.54105    44.656678   -895.88437    1599.4403   -15479.018    2.1279918    89.451924   0.13418375 
   28800   -941.98299    44.634852   -897.34814    1598.6585    5377.7272    2.1810004    76.888981   0.13311625 
   28900   -945.24875    44.298813   -900.94994    1586.6228    20650.664    2.2233017    79.594259    0.1178855 
   29000   -940.56329    50.120331   -890.44296    1795.1285   -11921.354    2.1295296    78.273392   0.12348224 
   29100   -942.87036    46.634434   -896.23592    1670.2763   -6623.2058    2.1468209    82.863051   0.13393666 
   29200   -945.94939    48.527579   -897.42181    1738.0819    9355.2547    2.1947268    75.882546   0.11774531 
   29300   -946.88617    51.243176     -895.643    1835.3447    1740.1706    2.1744377    79.988668   0.12188012 
   29400    -937.6009     48.13914   -889.46176    1724.1694   -12700.314    2.1236935    82.127226   0.12515312 
   29500   -947.88038    49.405639   -898.47474    1769.5308    1260.1946    2.1750728    82.525463   0.11100997 
   29600   -942.51495    46.114493   -896.40045    1651.6539    10972.268    2.1926293    79.892021   0.12837692 
   29700   -940.16296    49.290334   -890.87262     1765.401   -4570.7835     2.148124    81.084901    0.1339418 
   29800   -943.14957    47.861455   -895.28812    1714.2238   -9208.9637    2.1409137    77.921329   0.12120449 
   29900   -946.15141    47.275216   -898.87619    1693.2268    5869.3706     2.189198    76.234282   0.12189435 
   30000   -944.82294    50.367228   -894.45572    1803.9715    6197.2619    2.1849002    75.659493   0.12628485 
   30100    -943.2279    47.964471   -895.26343    1717.9134   -7937.2136    2.1443126    81.232315   0.13210454 
   30200   -946.78879    43.174314   -903.61447    1546.3473    1582.5759    2.1786715    79.434018   0.12819248 
   30300   -945.12472    49.469256   -895.65546    1771.8093    3598.2091    2.1815451    74.234746   0.11763285 
   30400   -943.43371    47.937612   -895.49609    1716.9514   -1827.3439    2.1642902    79.696668   0.11585101 
   30500    -952.2495    48.585916   -903.66358    1740.1713   -7480.3925    2.1665086    77.418717   0.11199089 
   30600   -946.23915    48.299802   -897.93935    1729.9237    1403.1786    2.1795978     80.91679   0.12690057 
   30700   -943.00898    49.048611   -893.96037    1756.7434    3756.7938    2.1770568    79.060592   0.14304152 
   30800   -946.23405    46.002803   -900.23124    1647.6536   -4362.3797     2.160819    77.999205   0.13421154 
   30900   -942.95896    43.669606   -899.28936    1564.0869    1473.0477     2.170757    77.324863   0.11692495 
   31000   -942.52009    50.525089     -891.995    1809.6255    330.38041    2.1662389     81.86639   0.12359845 
   31100     -947.249    49.283305   -897.96569    1765.1493   -5398.8334    2.1654761    81.933728   0.12337846 
   31200   -944.81204    45.324419   -899.48763    1623.3563   -1009.0186     2.172083    83.997835   0.12852666 
   31300   -939.44308    50.185583    -889.2575    1797.4656    -679.9921    2.1564338     83.95371   0.12482105 
   31400   -944.11319    47.856658   -896.25653    1714.0519    1081.8022    2.1719944    84.226577   0.11730537 
   31500   -945.08913      46.1062   -898.98293    1651.3569    -1167.275    2.1676575    75.238077   0.12878988 
   31600   -938.49125    48.360285   -890.13097      1732.09     1745.805    2.1566953    81.701836   0.11974915 
   31700   -943.36221    47.601523   -895.76069    1704.9139    1960.9042    2.1719898    78.403087   0.12649729 
   31800    -946.3658    47.164161   -899.20163    1689.2492   -3538.1199    2.1651859    82.286373   0.12162408 
   31900   -943.77876    50.845242   -892.93352    1821.0922   -211.69369    2.1643836    86.693258    0.1194234 
   32000   -942.38721     48.41211    -893.9751    1733.9462    2326.1395    2.1670571     85.04192   0.11711254 
   32100   -946.65639    45.812752   -900.84364    1640.8466    1102.4903    2.1765441    79.608674   0.12053257 
   32200   -939.58359    44.326837   -895.25675    1587.6265    2722.6663    2.1702241    81.304142   0.11970107 
   32300   -945.72891    51.580218   -894.14869    1847.4163   -3936.0255    2.1654584    80.349681   0.12313642 
   32400   -950.97471    47.538275   -903.43644    1702.6486   -490.71513    2.1827306    76.673524   0.11371991 
   32500   -942.06169    45.815645   -896.24604    1640.9503   -76.053649    2.1661263    79.087437   0.12560438 
   32600   -943.22235    48.555942   -894.66641    1739.0978   -375.42256    2.1673458    79.634095   0.13721133 
   32700   -949.30627    46.476846   -902.82943    1664.6321    1764.2088    2.1876952    76.224751   0.11676468 
   32800   -945.58554    48.368457   -897.21709    1732.3827    -2246.736    2.1653062    77.518605   0.11963928 
   32900   -942.59917     47.91821   -894.68096    1716.2565    -1626.407    2.1656979    80.103139   0.12765117 
   33000   -944.41273    44.998383   -899.41435    1611.6789    3246.0262    2.1800535    76.298288   0.12572718 
   33100   -948.98397    46.586655   -902.39732     1668.565    333.11611     2.181265    80.227397   0.11002744 
   33200   -940.28919    47.790535   -892.49865    1711.6837   -5860.6737    2.1465312    79.589147   0.12469272 
   33300   -940.69075     44.24975     -896.441    1584.8656    5714.5594    2.1765885    78.687867   0.12500458 
   33400   -947.47536    48.216465    -899.2589    1726.9389    4744.7149    2.1906658    75.576807   0.13319416 
   33500    -940.5401    51.585415   -888.95468    1847.6025   -7259.0053     2.142166    75.392966   0.14469899 
   33600   -942.83717    47.429502   -895.40767    1698.7528   -2622.7398    2.1609998     82.07482   0.14579107 
   33700   -947.85137     50.18487   -897.66651      1797.44    5491.2667    2.1912888    75.469028   0.12959369 
   33800   -944.11411    49.668041   -894.44607    1778.9291    348.22681    2.1672763    79.854583   0.12785763 
   33900   -938.14797    48.139858   -890.00811    1724.1951   -10844.742     2.129221    80.327007    0.1297135 
   34000   -943.63102    44.120293   -899.51073    1580.2289     6150.199    2.1880535    81.833176   0.12991331 
   34100   -947.20638    51.644705   -895.56167     1849.726    7677.2742    2.1923643    85.665261   0.11880097 
   34200    -945.0724    51.952507   -893.11989    1860.7504   -11718.047    2.1386929    82.029939   0.11902733 
   34300   -947.77492    44.461611   -903.31331    1592.4537   -4455.2919    2.1681744    85.276909   0.12407657 
   34400    -946.9088    47.929257   -898.97954    1716.6522    6271.4529    2.1933074    78.897989   0.13516316 
   34500    -942.5386    48.256167   -894.28244    1728.3609    83.266903    2.1705368    82.439562   0.14137498 
   34600   -943.24613     45.77451   -897.47162    1639.4769   -7922.6685    2.1491194    78.010857   0.13385876 
   34700   -950.31569    47.555586   -902.76011    1703.2686    927.33393    2.1836078    82.719974   0.12697482 
   34800    -940.1999    46.546116   -893.65378    1667.1131    6592.3245    2.1766521     77.98725   0.11763235 
   34900   -946.22312    49.310078   -896.91304    1766.1082   -3911.5657    2.1623399    78.259526   0.11515207 
   35000   -947.50411    44.265545   -903.23857    1585.4313   -2682.3714    2.1745378    77.811217   0.12746012 
   35100   -944.09709    50.086622   -894.01046    1793.9212    1654.1271     2.171715    85.732244   0.12227935 
   35200    -944.7258     50.21927   -894.50653    1798.6721    1674.2271    2.1750877    76.164271   0.11983559 
   35300   -946.47676    45.806064   -900.67069    1640.6071    -3313.446    2.1684551    81.021589   0.12665955 
   35400   -943.47933    48.561921   -894.91741    1739.3119    726.29107    2.1697062    77.313049   0.13374734 
   35500    -943.5707     50.96693   -892.60377    1825.4506    407.19947    2.1708634    79.597255   0.14069444 
   35600    -945.8642    46.540307   -899.32389     1666.905   -2812.7807    2.1687049    80.236815   0.14268756 
   35700   -944.63046    49.086916   -895.54354    1758.1153   -3376.1697    2.1623682    85.873419    0.1308707 
   35800   -938.18735    48.223255    -889.9641    1727.1821    3708.3134    2.1664519    82.641128   0.13519852 
   35900   -941.89304    43.471649   -898.42139    1556.9968    4751.1893    2.1811507    75.209182   0.12542181 
   36000   -943.02796    45.919953     -897.108    1644.6862   -3570.3603    2.1629751    82.912041   0.13075587 
   36100   -941.08373    51.083818   -889.99992    1829.6371   -5467.4531    2.1540644    78.700029   0.14794635 
   36200   -944.40184     44.77507   -899.62677    1603.6806    7996.9678    2.1967141    80.434067   0.14339865 
   36300   -943.50819    45.901038   -897.60715    1644.0087   -2631.1777    2.1683436    84.170696    0.1418083 
   36400   -942.08092    49.405678   -892.67525    1769.5322   -8548.0409      2.14423    81.540284   0.13489365 
   36500   -945.99487    44.117838   -901.87704    1580.1409    6509.3137    2.1953981     68.69999   0.12541513 
   36600   -943.47205    44.740094   -898.73196    1602.4279    7063.1522    2.1905757    77.415861   0.14979817 
   36700   -944.15853    49.504532     -894.654    1773.0728   -9157.7696    2.1452044    75.300354   0.14019593 
   36800   -943.28818    48.590114   -894.69807    1740.3217    -1432.147    2.1625673    84.287231   0.13373997 
   36900   -948.03934     46.36499   -901.67435    1660.6258    14697.762    2.2151223    81.036449   0.13467834 
   37000   -940.24774    46.492292   -893.75545    1665.1853   -292.33421    2.1584432    79.117987   0.13362299 
   37100   -943.93184     48.21026   -895.72158    1726.7167   -11252.292    2.1379826    80.270704   0.12220981 
   37200   -945.05409    44.519942   -900.53415    1594.5429    8898.9665     2.192624    79.060367   0.13063897 
   37300   -942.68151    44.490332   -898.19118    1593.4824     10524.97    2.1980108    83.834815   0.13664131 
   37400   -940.05441    46.737065   -893.31734    1673.9522   -8459.0398    2.1417127    84.968529   0.13595401 
   37500   -944.44336    45.376779   -899.06658    1625.2317    -4617.407    2.1640207    85.811989   0.12690192 
   37600    -943.1233    45.045246   -898.07806    1613.3573    8298.9102    2.1908122    78.421104   0.13129779 
   37700   -941.74752    51.190566   -890.55695    1833.4604   -3763.3522    2.1554499    82.917763   0.14864636 
   37800   -945.45529    46.188032   -899.26726    1654.2878   -4378.2879    2.1642621    78.334709   0.13653271 
   37900    -946.9124    49.383541   -897.52886    1768.7394    1626.1196    2.1758246    77.084156   0.10772732 
   38000   -938.06515     48.44774   -889.61741    1735.2224    4226.2254    2.1638593    80.737784   0.14015678 
   38100   -945.86278    47.204491   -898.65829    1690.6937   -1367.1954    2.1673396    87.790601    0.1196455 
   38200    -944.2901    46.235541   -898.05456    1655.9894   -2016.2366    2.1656764    79.633653   0.12940216 
   38300   -941.16697    50.259437   -890.90753    1800.1108    4319.7657    2.1716439    87.467767    0.1419993 
   38400   -948.08891    48.478456   -899.61046    1736.3225    934.09296    2.1809579    81.107203   0.11332702 
   38500   -945.82166    46.490699   -899.33097    1665.1282   -7683.4324    2.1556436    80.825538   0.11432729 
   38600   -943.86669    50.602744   -893.26395    1812.4068   -894.91525    2.1662677    79.490334   0.13980163 
   38700   -947.58201    48.376885   -899.20512    1732.6846    7506.9953    2.2004305    78.291204   0.12675896 
   38800   -946.02705    44.159734   -901.86732    1581.6415   -6370.6332    2.1605894    79.326227   0.13307609 
   38900   -942.74044    47.535928   -895.20451    1702.5646   -11109.034    2.1453936    81.166244   0.12114741 
   39000   -938.15352    42.588328   -895.56519    1525.3595    13349.203    2.1994486    82.073495   0.13059576 
   39100   -949.18293    46.702873   -902.48005    1672.7275     8430.047    2.2015234    79.142258   0.13067939 
   39200   -937.71179    44.894787     -892.817    1607.9685   -12112.492    2.1299268    76.876143   0.14769359 
   39300   -943.86287     48.67542   -895.18745     1743.377   -431.68349    2.1702762    80.451889    0.1366715 
   39400   -946.70135    48.414137   -898.28722    1734.0188    11865.084    2.2061538    72.049969   0.12755004 
   39500   -937.44031    47.041098   -890.39921    1684.8415   -521.89796    2.1569544    80.072174   0.12178575 
   39600   -944.48076    50.857173   -893.62358    1821.5195   -7101.2766    2.1505192    81.122563   0.12803688 
   39700   -945.28748    46.740998   -898.54649     1674.093    4089.6188    2.1826711    76.216481   0.11042779 
   39800   -942.68044    47.950909   -894.72953    1717.4277    4349.1844    2.1833938    75.648382   0.12618296 
   39900   -940.49109    50.374465   -890.11662    1804.2307   -5359.6339    2.1469911    87.674488   0.13766575 
   40000   -947.19005    47.019566   -900.17049    1684.0703   -1032.1445    2.1751398    80.320421   0.12520258 
   40100   -945.60306    49.411068   -896.19199    1769.7252     3944.096    2.1839364    81.919588   0.12423627 
   40200   -943.25816    51.007053   -892.25111    1826.8876   -3311.3758    2.1575685    79.354833   0.13336876 
   40300    -945.5212    43.829482   -901.69172    1569.8131   -2274.8706    2.1690862      81.9081   0.14184813 
   40400   -945.83839     46.66821   -899.17018     1671.486    1512.4102    2.1745998    75.239116   0.11724002 
   40500    -940.2452    46.388536   -893.85666    1661.4691    4465.8676    2.1752825    79.770086    0.1463078 
   40600   -940.00773    41.369097   -898.63863     1481.691   -1820.8522    2.1654718    76.952112   0.12389154 
   40700   -947.42623    44.842748   -902.58349    1606.1046   -3624.9236    2.1709724    83.560446   0.10529009 
   40800   -939.98769    45.752188   -894.23551    1638.6775    7719.7582    2.1832289     83.00441   0.12556095 
   40900   -940.11462    43.836378   -896.27824    1570.0601    3496.9176    2.1754349    83.752724   0.13577348 
   41000   -947.16965    42.888429   -904.28122     1536.108     -11577.7    2.1487263    83.155844   0.11698319 
   41100   -947.47215     50.34064   -897.13151    1803.0192   -867.94055    2.1727212     82.18386   0.12358701 
   41200   -942.56045    49.861176   -892.69927    1785.8465    15691.032    2.2000599    75.420677   0.12821731 
   41300   -946.05823     45.78596   -900.27227    1639.8871   -4742.7405    2.1594674    81.614558   0.12597774 
   41400   -941.96569    46.229747   -895.73594    1655.7819   -9919.0642    2.1440791    76.717912   0.12753059 
   41500   -944.62193    53.311786   -891.31014    1909.4348    4394.5983    2.1804988    80.253339   0.11869407 
   41600   -945.06657    47.471567     -897.595    1700.2594    4175.5191    2.1849829    80.552922   0.12724952 
   41700   -946.62463    47.831634   -898.79299    1713.1557    -8352.827    2.1534427    81.224403   0.11041823 
   41800   -940.75534    51.158471   -889.59687    1832.3109   -4546.7469    2.1503094    79.855317   0.12304511 
   41900   -944.71798     47.38866   -897.32932      1697.29    9236.2033    2.1957563    78.648488   0.14112025 
   42000   -946.40334    47.529111   -898.87423    1702.3204   -2225.7232     2.167915    74.958845   0.12648366 
   42100   -942.05233    49.794669   -892.25766    1783.4645    -8386.987     2.143195    79.064301   0.14759458 
   42200   -943.54234    45.315168   -898.22717     1623.025    2484.5637    2.1770211    77.914936   0.14281342 
   42300   -947.15461    47.167248   -899.98736    1689.3598    5551.1852    2.1886008    81.882518   0.12662425 
   42400   -944.12672    50.083762   -894.04296    1793.8187   -2812.3178    2.1633209    77.751023   0.13273365 
   42500   -944.85421    49.234121   -895.62009    1763.3876   -4977.4374    2.1564056    79.359039   0.12584129 
   42600   -950.72937    48.743007   -901.98636    1745.7977    1607.8416    2.1921583    78.843465   0.12255046 
   42700   -945.75451    52.425397   -893.32912    1877.6876    762.27867    2.1771764    79.855315    0.1248624 
   42800   -945.12351    48.760875   -896.36263    1746.4377   -3654.1183    2.1640303    80.944077   0.11520907 
   42900   -946.75002    44.034958   -902.71506    1577.1725   -2203.1456    2.1779175    81.420152   0.12227381 
   43000   -940.43152    47.125896   -893.30562    1687.8787    2455.4022    2.1707536    76.259169   0.13849205 
   43100   -942.36502    47.498363   -894.86665    1701.2191    1429.7117    2.1731573    83.458892   0.14107139 
   43200   -946.88647    45.471053   -901.41541    1628.6082   -2122.0544    2.1749041    79.600263   0.15078934 
   43300   -940.15837    46.775837   -893.38253    1675.3409    314.45231    2.1689135    85.632649   0.13534331 
   43400   -941.54764     47.81694    -893.7307    1712.6294    1032.3437    2.1749997    81.704483   0.13205327 
   43500   -944.28285    44.004464   -900.27839    1576.0803   -143.12181    2.1765425    79.609458   0.13078107 
   43600   -938.75855    45.398563   -893.35999    1626.0119    1152.3486    2.1646209    79.734996   0.13657088 
   43700   -942.49926    49.738218   -892.76104    1781.4426    688.25415    2.1688727     84.99954   0.13270404 
   43800   -944.77142    44.880135   -899.89129    1607.4437    1374.2125    2.1812765    78.682576   0.13876385 
   43900   -943.66214     49.24101   -894.42113    1763.6344   -1298.3402    2.1677837    79.252985   0.13538995 
   44000   -938.85867    46.677307   -892.18137    1671.8119   -1230.5052    2.1580161    82.551399   0.14270659 
   44100   -949.05629    48.242407   -900.81388    1727.8681   -371.13745      2.17838    79.689737    0.1221718 
   44200   -943.44283    48.577118   -894.86571    1739.8562    4676.6305    2.1783086    81.130688   0.12731523 
   44300   -943.85736    50.688915   -893.16845    1815.4931   -5237.1414    2.1562118    80.720936   0.12546098 
   44400   -949.07689    46.451485    -902.6254    1663.7237   -2845.2961    2.1751391    79.176774   0.11467889 
   44500   -944.95612    48.672801   -896.28331    1743.2832    3792.3652    2.1807642    81.646692   0.12465847 
   44600   -944.51033    50.873756   -893.63657    1822.1135   -414.48767    2.1731464    82.415358   0.12727085 
   44700   -946.70948    43.881672   -902.82781    1571.6823   -2607.1904    2.1698095    82.656373   0.12391863 
   44800    -944.2114    46.321403      -897.89    1659.0647   -4082.5914    2.1644489    82.479935   0.13556818 
   44900   -940.54674    47.672365   -892.87438    1707.4512    8685.0487    2.1881568    81.747743   0.14687068 
   45000   -948.03598    47.862139   -900.17384    1714.2482   -1075.3211    2.1778918    80.105005   0.12912413 
   45100    -941.6955     44.51443   -897.18107    1594.3455   -6507.1862    2.1489151    80.344791   0.13389136 
   45200   -941.43553     49.46923    -891.9663    1771.8084    2791.4119    2.1721003    75.258918   0.12629302 
   45300   -945.58874    48.725891   -896.86285    1745.1847    7532.8407    2.1921899    76.455697   0.12384766 
   45400   -944.90876    44.450478   -900.45829    1592.0549   -6204.1193    2.1613433    74.537162   0.13312496 
   45500   -940.88615    50.573165   -890.31298    1811.3474   -9336.4117    2.1402283    79.003603   0.13986597 
   45600   -945.31957    50.081308   -895.23826    1793.7308    12035.239    2.2062707    73.633191   0.14551519 
   45700   -946.73359    48.235182   -898.49841    1727.6093    853.82382    2.1810724    82.331859   0.12958395 
   45800    -943.7221    50.441156   -893.28094    1806.6193   -12766.906    2.1377227    82.741182   0.13994315 
   45900   -940.18672    50.650905   -889.53581    1814.1317   -231.39263    2.1616886     79.15525   0.13443656 
   46000   -947.56765    49.381507   -898.18614    1768.6665    8149.8244    2.1991732    77.113943   0.14272305 
   46100   -945.41701    48.906516   -896.51049     1751.654   -2967.7882    2.1654612    78.404441   0.13460918 
   46200   -939.82833    49.148304   -890.68002     1760.314   -5838.4798    2.1488306    79.731291   0.13423095 
   46300   -944.85658    43.707977   -901.14861    1565.4612    5938.3346    2.1929332    75.853183   0.13939858 
   46400   -945.73736    47.778282   -897.95907    1711.2448   -674.61498    2.1724771    81.229723   0.12690002 
   46500   -942.69343    48.784941   -893.90849    1747.2997   -2805.2351    2.1601826    88.813121   0.13361784 
   46600   -945.47481    44.550199   -900.92461    1595.6265    1604.1177    2.1830565    82.517111   0.13128358 
   46700   -947.96909    47.191977   -900.77711    1690.2455    1322.9372    2.1839907     85.72681   0.13514827 
   46800   -943.70576    49.096691   -894.60906    1758.4654    -2301.795    2.1655811    79.994852   0.13035776 
   46900   -944.34195    46.648519   -897.69344    1670.7808   -3874.7443    2.1638447     78.61094   0.13330437 
   47000   -950.69817    47.324633   -903.37354    1694.9967    2356.2109    2.1928352    75.817094   0.13014848 
   47100   -942.52226    48.913215   -893.60905     1751.894    2458.0571    2.1725506    85.544961   0.13688933 
   47200   -947.01741    50.496137   -896.52127    1808.5885    -7909.102    2.1564352     82.20932   0.13067673 
   47300   -949.51186    47.612261    -901.8996    1705.2985   -4368.3603    2.1717176    80.077486    0.1239548 
   47400   -944.15457    46.823076    -897.3315    1677.0328    12047.428    2.1986692    77.247183   0.13293316 
   47500   -942.82514    49.503475   -893.32167     1773.035   -948.59737    2.1602098    82.446118   0.12292241 
   47600   -944.02002    45.067135   -898.95288    1614.1413   -13280.617    2.1358706    86.746479   0.11550826 
   47700   -947.03173    51.022391   -896.00934     1827.437    5513.9349    2.1866367    80.628046    0.1226142 
   47800   -939.95706    52.715756    -887.2413    1888.0872     7197.461    2.1752383    74.448553   0.13326504 
   47900   -945.60735     48.76896   -896.83839    1746.7273   -8100.8622    2.1547368    78.669344   0.14140821 
   48000    -943.4961    45.569188   -897.92691    1632.1231   -3848.0332    2.1609863    82.379117   0.14830022 
   48100   -940.19292     48.47043   -891.72249     1736.035    7701.7486    2.1816445    85.805629   0.13631259 
   48200   -940.59605    49.338943   -891.25711     1767.142    878.87635     2.161473    90.335237   0.13578895 
   48300   -947.81504    48.838236    -898.9768    1749.2085    -6547.975    2.1612616    79.801079   0.11834893 
   48400   -944.02674    48.471328   -895.55541    1736.0672    2818.7894    2.1783058    80.851762   0.13257132 
   48500   -940.46751     48.76255   -891.70496    1746.4977    3316.8746    2.1730412    76.223021   0.15409931 
   48600   -939.81457    56.210368    -883.6042    2013.2515   -4543.8048    2.1465463    80.739343    0.1298286 
   48700     -940.486    49.509736   -890.97626    1773.2592   -2164.7393    2.1590895    81.528551   0.12378453 
   48800   -938.81366    44.434188   -894.37947    1591.4715    1387.4678    2.1668085    77.360122   0.16026771 
   48900   -940.87836    44.642914   -896.23545    1598.9473    4467.0744    2.1804756    75.636386   0.14855053 
   49000   -946.60628    47.917963   -898.68831    1716.2477   -562.52575    2.1754219    82.093102   0.13579677 
   49100   -940.31066    47.240379   -893.07028     1691.979     2114.457      2.16515    83.403429   0.13999611 
   49200   -940.24957    49.640404   -890.60916    1777.9392    580.24112    2.1603131     77.79389   0.12032062 
   49300   -942.78807    46.276808   -896.51127    1657.4674    939.83649    2.1699732    76.993178   0.12912454 
   49400    -940.2518    41.937252   -898.31455    1502.0403    3477.5045    2.1761789    77.187735   0.13010142 
   49500   -938.85259    49.903769   -888.94882     1787.372    113.60718    2.1627064    81.847329   0.14313087 
   49600   -941.03988    47.341305   -893.69858    1695.5939    1235.4964    2.1680829    73.807098   0.13807879 
   49700   -944.64965     46.23262   -898.41703    1655.8848   -3029.3861    2.1668658    79.408188   0.14088975 
   49800   -943.68322    49.394629    -894.2886    1769.1365    662.45894    2.1755588    82.856733   0.14350943 
   49900   -938.01712     49.61283   -888.40429    1776.9516   -1221.6868    2.1587968    86.100964   0.15154647 
   50000   -943.26926    44.350592   -898.91866    1588.4774   -615.10754    2.1696897    85.164005   0.14319856 
   50100    -947.0428    50.112852   -896.92995    1794.8606    184.31601    2.1743484     81.91981   0.14130473 
   50200   -940.35914    47.653025   -892.70612    1706.7585    2565.7986    2.1671996    79.987363   0.13558274 
   50300   -938.43863    49.335252   -889.10338    1767.0098   -4975.6395    2.1442229    80.334282   0.13644603 
   50400    -943.6636     43.90633   -899.75727    1572.5655    6264.3499    2.1884499    81.456019   0.12686861 
   50500   -945.29975     48.51002   -896.78973     1737.453    7800.3264    2.1893448    76.639406   0.12314104 
   50600   -946.79641    51.024838   -895.77157    1827.5246   -9269.3862    2.1486839    86.129359    0.1387012 
   50700   -939.83051    50.128918    -889.7016     1795.436   -3095.5217    2.1499018    86.231927   0.14546394 
   50800   -937.15493     50.71797   -886.43695    1816.5338    6969.6279    2.1712893    82.939298   0.14068103 
   50900   -945.34562    50.950456   -894.39516    1824.8605   -2455.0352    2.1637644    85.826558   0.13330228 
   51000   -946.39855    49.238029   -897.16052    1763.5276   -5828.9432    2.1584975     82.69764   0.13821468 
   51100   -944.71556    47.210056   -897.50551     1690.893      2882.63    2.1801734    76.507191   0.13069179 
   51200   -939.93691    52.090705   -887.84621    1865.7001    4912.5534     2.169567    80.245428    0.1233254 
   51300   -941.89701    50.503932   -891.39308    1808.8677   -4693.6178    2.1526205    83.446371   0.13085741 
   51400   -943.89779    46.478142   -897.41965    1664.6785   -6566.6727    2.1570066    84.639195   0.13631658 
   51500   -946.78925     50.31632   -896.47293    1802.1481    7747.9223    2.1967935    80.219827   0.13120019 
   51600   -939.17247     51.05747     -888.115    1828.6934    4472.2731    2.1728824    88.173783   0.15452486 
   51700   -944.20928    51.862031   -892.34725    1857.5099   -15080.288    2.1311318    82.130573   0.13430434 
   51800   -946.82682    48.617235   -898.20958     1741.293   -4454.0523    2.1653886    82.179198   0.13567092 
   51900    -943.4724    48.585401   -894.88699    1740.1529    13482.643    2.2075594    76.589137    0.1494214 
   52000   -941.60913    51.904749   -889.70438    1859.0399   -4809.1961    2.1494615    81.355413   0.12088503 
   52100   -941.51519    44.441211   -897.07398     1591.723   -10927.138    2.1402087    81.888068   0.11660663 
   52200   -944.41388    46.116019   -898.29787    1651.7085    3318.9998    2.1793999    78.742328   0.12551174 
   52300   -941.52106    46.467731   -895.05333    1664.3056    6966.9139    2.1829066    78.023013   0.13156481 
   52400   -940.57414    46.339108   -894.23503    1659.6988   -2925.0138    2.1552629    83.079309   0.13859675 
   52500   -948.53309    44.349768   -904.18332    1588.4479     1149.725    2.1836482    79.540198   0.12068134 
   52600   -943.62679    45.858038   -897.76876    1642.4686     1826.107    2.1761864    78.891048   0.13417125 
   52700   -946.88229    51.855251   -895.02704     1857.267   -2963.8519    2.1646952    77.529435    0.1231018 
   52800   -943.82496      43.7913   -900.03366    1568.4456     512.2128    2.1716746    83.751147   0.12625329 
   52900   -946.70971    44.026766   -902.68295    1576.8791    2578.2633    2.1829141    80.966274   0.12606386 
   53000   -944.59749    49.438749   -895.15874    1770.7167   -632.30948    2.1669484    84.391471   0.11688223 
   53100    -944.3564    47.339273   -897.01713    1695.5211   -3503.4367    2.1613782    84.367025   0.11616274 
   53200   -946.03819    41.585203   -904.45299    1489.4312    3947.4986    2.1863465    76.142942   0.13185763 
   53300   -942.29825    46.020523   -896.27772    1648.2882    4271.9133    2.1786137     77.76366   0.14442734 
   53400   -943.06343    47.754402   -895.30903    1710.3895   -519.09538    2.1656473    84.152518   0.14140372 
   53500   -944.72235    45.575289   -899.14706    1632.3416   -5900.9191    2.1586413    78.654301   0.12744046 
   53600    -946.1883    45.801011   -900.38729    1640.4261    5897.5039    2.1917588    84.267364   0.12935971 
   53700   -938.48326    47.626529   -890.85674    1705.8096    986.50268    2.1645772    81.777303   0.14693606 
   53800   -943.16035    46.910126   -896.25022    1680.1506   -8231.2037    2.1477457     78.84894   0.12250099 
   53900   -944.80453    46.477738   -898.32679     1664.664    3525.3167    2.1811089    84.456448   0.13624315 
   54000   -945.30293    46.480657   -898.82227    1664.7686    9327.2543    2.1994249    83.448792   0.12948519 
   54100   -939.11533    49.848466   -889.26687    1785.3913   -9485.2604    2.1339343    80.006465   0.13300117 
   54200   -939.81965    42.952875   -896.86677    1538.4162   -3310.5899    2.1582184    79.506725   0.12918857 
   54300   -946.13273    49.251956   -896.88077    1764.0264    10544.219    2.2004506    73.154581   0.13751053 
   54400   -940.33604    47.499683   -892.83636    1701.2664    2820.9959    2.1676722    74.714618   0.14040982 
   54500   -939.16163    48.987049   -890.17458    1754.5384   -10336.079    2.1314556    79.199423   0.14562673 
   54600   -946.81579    48.593089    -898.2227    1740.4282    1969.5424     2.179736    82.864255   0.12301168 
   54700   -943.73845    47.867731   -895.87072    1714.4485    7359.8688    2.1894174    81.129674   0.13832828 
   54800   -940.89791    51.018552   -889.87936    1827.2995   -6267.9268    2.1483641    81.869143   0.12436735 
   54900    -946.8648    47.261719   -899.60308    1692.7434   -4153.3494    2.1680222     80.54941   0.13177533 
   55000   -944.26102    45.971281   -898.28974    1646.5246    2159.5515    2.1773079    78.427156   0.13380787 
   55100   -942.76085    48.639846   -894.12101    1742.1029    2633.6743     2.172358    80.656777   0.12825378 
   55200   -941.86401    46.342736   -895.52128    1659.8287   -1760.0954    2.1608317     80.49747   0.13978501 
   55300   -950.29912    47.806953   -902.49217    1712.2717     516.8029    2.1845383    78.712774   0.12215073 
   55400   -945.92948    50.376249   -895.55323    1804.2945    2570.0199    2.1743223    83.004491   0.13194568 
   55500   -939.59365    44.480221   -895.11343    1593.1202   -174.93052    2.1601392    78.002604   0.14348775 
   55600   -948.63148    44.208502   -904.42298    1583.3882   -411.85555    2.1790795    77.420471   0.12676775 
   55700    -944.9122    47.465151   -897.44705    1700.0296    1244.9245    2.1742449    76.756699   0.12038912 
   55800   -945.55745    50.658893   -894.89855    1814.4178    -308.8464    2.1714776    80.802657   0.13373455 
   55900    -947.1592    46.333627   -900.82558    1659.5025   -6903.2908    2.1611717    87.169885   0.10941116 
   56000   -943.57341    41.376417   -902.19699    1481.9532   -25.249258    2.1730097    79.666481   0.14180687 
   56100   -940.43497      47.1822   -893.25277    1689.8953    9373.3545     2.186923    73.822087   0.13901364 
   56200   -943.94941    47.552056   -896.39735    1703.1422   -4138.8477    2.1584705    83.790538   0.13626701 
   56300   -944.46791     44.38456   -900.08335     1589.694   -6382.1545    2.1545151    81.085608   0.12383871 
   56400   -948.55739    47.116009   -901.44138    1687.5246    7579.2501    2.1957949    79.436067   0.12299458 
   56500   -938.61765    45.994962   -892.62269    1647.3727    3338.0914    2.1680295    80.703232   0.14077127 
   56600   -948.92211    52.136162   -896.78595    1867.3282   -12206.641     2.145161    79.842772   0.11743983 
   56700   -945.24567    47.378939   -897.86673    1696.9418    2168.7233    2.1786629    77.674893   0.12001177 
   56800   -943.32015    46.117372   -897.20278     1651.757    9935.0435     2.194852     81.92736   0.13808472 
   56900   -940.38098    51.884951   -888.49602    1858.3308       -12845    2.1262799    79.408658    0.1275684 
   57000   -941.80427    45.836909   -895.96736    1641.7118   -2372.2208     2.155858    79.562139   0.12356679 
   57100    -944.2444    47.513738   -896.73066    1701.7698    10102.739    2.1953923    73.302432   0.14042215 
   57200    -944.5068    46.058451   -898.44835    1649.6467   -182.49178    2.1747254    79.442124   0.12754037 
   57300   -937.07275    49.927725   -887.14503      1788.23   -8670.8423    2.1322724    78.818843    0.1359452 
   57400   -947.41179    53.129124   -894.28267    1902.8926    2537.0012     2.178964    83.535791   0.12301351 
   57500   -944.87808     47.50656   -897.37152    1701.5127    2868.6536    2.1787434    75.705394   0.12580766 
   57600   -940.21923     44.50449   -895.71474    1593.9894   -2168.2009     2.157337    77.863248   0.12818517 
   57700   -939.39233    51.479765   -887.91256    1843.8185    -3905.382    2.1472883    76.798396    0.1461806 
   57800   -943.72954    46.388531   -897.34101     1661.469    6267.3577    2.1907647    79.212634   0.14473297 
   57900    -943.2606    45.826681   -897.43392    1641.3455   -473.11492    2.1716444    85.096983   0.12973247 
   58000   -940.26443    49.577479   -890.68695    1775.6855   -5299.6231    2.1477965    84.505855   0.14451901 
   58100   -942.51054    46.184391   -896.32615    1654.1574    655.40144    2.1722224     79.93997   0.12950142 
   58200   -943.27656    44.323481   -898.95308    1587.5063    4051.6197    2.1802069    78.402972   0.14243109 
   58300    -942.4351    46.591652   -895.84345     1668.744   -637.50365    2.1679906    78.598262   0.14516579 
   58400   -940.66628    47.907538   -892.75874    1715.8743   -1776.7033    2.1588163    77.806561   0.13770277 
   58500   -951.27755    47.983171   -903.29438    1718.5832    4898.2629    2.1955904    76.136568   0.12913335 
   58600   -943.44522    44.410331   -899.03489     1590.617   -2783.7663    2.1643785    82.864654   0.14589664 
   58700   -944.35365    48.548325   -895.80532     1738.825   -7531.7694    2.1524375    73.379353   0.14397472 
   58800   -942.79157     49.33196   -893.45961    1766.8919    10058.494    2.1877947    82.532845   0.14123665 
   58900   -950.10376    46.250452   -903.85331    1656.5235    7484.4063    2.2000325    77.660367   0.11909387 
   59000    -944.9632    46.675725   -898.28748    1671.7552   -12708.041    2.1349255    77.687329   0.12054544 
   59100   -943.58616    48.220255    -895.3659    1727.0747   -1999.7954    2.1682319    78.752522    0.1492203 
   59200   -946.87557    49.459367    -897.4162    1771.4552    11362.614    2.2030602    78.235206   0.13918276 
   59300   -948.10946    42.462619   -905.64684     1520.857   -2775.1357    2.1720028    80.205942   0.13377844 
   59400   -939.25813    42.824752   -896.43338    1533.8273   -7426.5012    2.1389066     79.20341   0.13868486 
   59500   -945.48111    50.879715   -894.60139    1822.3269    8104.0833     2.191151    76.921161   0.12853928 
   59600    -946.7838    46.429092   -900.35471    1662.9217    3672.0813     2.188407    75.039866   0.13637543 
   59700   -941.62678    46.764134   -894.86264    1674.9217   -8204.8035    2.1473955     81.53421   0.13904889 
   59800   -942.17515    49.674959   -892.50019    1779.1769   -1356.1858      2.16157    84.683358   0.13578401 
   59900   -942.06932    45.151631   -896.91769    1617.1677    5507.6866    2.1806071    82.595191   0.13508519 
   60000   -944.19232    44.685421   -899.50689    1600.4697    1352.7925    2.1699626    82.529157   0.13033947 
   60100   -939.97389    50.996128   -888.97777    1826.4964   -4778.5614    2.1428232    83.041736   0.13937462 
   60200   -942.54058    47.150105   -895.39048    1688.7458     6310.495    2.1836701    75.622461    0.1440151 
   60300   -944.13126    45.929872   -898.20139    1645.0415    4534.4981    2.1795649    83.635726   0.13084409 
   60400   -942.28009    49.476975   -892.80312    1772.0858   -7344.7024    2.1474834      77.0187   0.14015151 
   60500   -941.22863    50.520296   -890.70833    1809.4538   -2598.2296    2.1564554        80.51   0.13326615 
   60600   -945.74502    47.584303   -898.16072    1704.2972     10064.42    2.1980118    80.761015   0.13139412 
   60700   -943.77187    48.016827   -895.75504    1719.7886   -990.33123      2.16641    79.039364   0.13648916 
   60800   -940.25647    48.251109   -892.00536    1728.1798   -15504.657     2.117673    83.708875   0.13564098 
   60900   -950.51652    47.400198   -903.11633    1697.7032    9405.7738    2.2053676    82.280342   0.13357026 
   61000   -942.95243    45.482996   -897.46944     1629.036    13430.634    2.2002621    76.955909   0.13305491 
   61100   -943.37706    47.860575   -895.51649    1714.1922   -12684.429    2.1341824    77.361162   0.12177198 
   61200     -945.587    50.799543   -894.78746    1819.4554   -6509.9459    2.1530081    78.016743   0.12288782 
   61300    -947.3621    44.440035   -902.92207    1591.6809     13322.24    2.2109245    73.643557   0.14859478 
   61400   -943.28054    48.579529   -894.70102    1739.9426   -1386.0124    2.1604861    80.726951   0.13550584 
   61500   -943.11336    47.382862   -895.73049    1697.0823   -6780.9528    2.1494408    79.523024   0.12480301 
   61600   -948.12931    46.619395   -901.50991    1669.7376    3388.9828    2.1847921    78.571021   0.12346937 
   61700   -945.66276    47.221997   -898.44076    1691.3207    6026.4501    2.1863285    74.035863   0.12969825 
   61800   -940.80175    47.256947    -893.5448    1692.5725   -5059.5032    2.1500414    81.663588   0.14182504 
   61900   -941.96996    43.588888   -898.38107    1561.1959   -2224.5025    2.1547174     79.35859   0.13845621 
   62000   -944.25271    45.961301    -898.2914    1646.1671    9459.0643    2.1913079    77.155285   0.12682818 
   62100   -940.30115    51.358583   -888.94257    1839.4782   -1422.3422    2.1551254    80.405284   0.13750515 
   62200   -948.42913    51.346918   -897.08221    1839.0604   -9677.0603    2.1503406    84.111353   0.12697766 
   62300   -943.35614    45.617422   -897.73872    1633.8506    2784.2636    2.1752726    81.993041   0.14261014 
   62400   -939.25346    49.768012   -889.48544    1782.5097    6440.4817    2.1769143    79.384576   0.15154673 
   62500   -946.08988    52.162061   -893.92782    1868.2559   -6608.5551    2.1519511    79.475279   0.12001275 
   62600   -944.52369    45.038358   -899.48533    1613.1106   -7656.2918     2.150526    78.543891   0.12160519 
   62700   -941.44019    48.113588    -893.3266    1723.2543    13986.849    2.1985913    81.955793   0.13096331 
   62800   -940.54923    48.067701   -892.48153    1721.6107    9500.1852    2.1831481    81.494188   0.13926968 
   62900   -947.89678    46.120752   -901.77603    1651.8781   -17117.671    2.1327692    84.590042   0.11467754 
   63000    -945.5097    46.845584   -898.66411    1677.8389    148.60339    2.1713388     79.19125   0.11826916 
   63100   -941.39315    48.291907   -893.10124     1729.641    14455.569    2.2006509    76.225202   0.13314141 
   63200   -948.81665    49.876582   -898.94007    1786.3983    -7104.394     2.160659      77.3198   0.12887915 
   63300   -949.02211    45.623918    -903.3982    1634.0833   -6462.0495    2.1638621    79.220308   0.11988688 
   63400   -940.73864    46.408167   -894.33047    1662.1722    5383.7067    2.1733223    79.237129    0.1297301 
   63500   -942.77868    46.491618   -896.28706    1665.1611     2812.444      2.17625    80.724152   0.14110691 
   63600   -949.79184    46.446213   -903.34563    1663.5349   -7222.5124    2.1677119    82.405518   0.12531319 
   63700   -947.65062    51.032132   -896.61849    1827.7859   -2844.3346    2.1702697    81.835296    0.1252676 
   63800   -946.85995    52.832126   -894.02782    1892.2551    3043.4149     2.180734    80.790743   0.11676391 
   63900   -945.24117    46.350478   -898.89069     1660.106   -3131.6952    2.1659429    79.271393   0.11979591 
   64000   -941.61602    44.791587   -896.82443    1604.2722   -1452.2919    2.1618105    77.671109   0.12187325 
   64100   -940.93529    50.852685   -890.08261    1821.3588     3034.669    2.1679151    77.848838   0.13012229 
   64200   -941.77905    44.802191   -896.97686     1604.652    2267.6537    2.1748484    80.774901    0.1316802 
   64300   -942.40301    43.429368   -898.97364    1555.4825   -2238.6486    2.1621819    79.854935   0.12083517 
   64400   -941.06974    51.477127   -889.59261     1843.724   -1785.9912    2.1554059    82.437118   0.13721106 
   64500   -940.49842    45.159962   -895.33846    1617.4661    12555.071    2.1948864    73.860148   0.13190017 
   64600   -943.15418    44.410134   -898.74405    1590.6099   -4161.6578    2.1570797    79.184695   0.12122268 
   64700   -940.89459    46.061053   -894.83353    1649.7399   -9529.0261    2.1429829    84.240699   0.13210555 
   64800   -942.28989    54.200815   -888.08907    1941.2766    11711.785    2.1891192    85.074563   0.11896555 
   64900   -945.96464    47.423756   -898.54088     1698.547    4904.9933     2.190662    79.725313   0.13013471 
   65000   -940.26971    42.091992   -898.17772    1507.5825    -12202.59    2.1322402    77.376031    0.1313199 
   65100   -939.86184    46.575891   -893.28594    1668.1795    3039.8887    2.1652368    77.525835   0.12102306 
   65200   -945.58281    44.215937   -901.36688    1583.6545    11338.869    2.2032117    80.481367   0.12719292 
   65300   -944.35651    43.946983   -900.40953    1574.0215   -1800.1625    2.1662944    83.891041    0.1276821 
   65400   -943.94957    48.635497   -895.31407    1741.9471   -6537.3464    2.1520834    82.167136    0.1304643 
   65500   -943.13277    46.120065    -897.0127    1651.8535    5959.7989    2.1825415    85.486824   0.12986997 
   65600   -946.83462     42.77259   -904.06203     1531.959    6099.8681    2.1908482    81.667333   0.11002336 
   65700   -944.28487    49.891242   -894.39363    1786.9234    -7798.061    2.1467818    78.770292   0.11946432 
   65800   -945.27373    49.246494   -896.02723    1763.8308   -1030.0656    2.1680605    79.093102   0.13097622 
   65900   -945.68739    45.251157   -900.43623    1620.7323    9444.5091    2.1949287    81.082252   0.12179297 
   66000   -939.16699    47.406501   -891.76049    1697.9289    27.964969    2.1599937    87.418655   0.14405425 
   66100   -944.03898    50.546964   -893.49202    1810.4089   -3385.3878    2.1571811    80.576763   0.12190193 
   66200   -946.52806    47.947721   -898.58034    1717.3135    390.24708    2.1786942    80.615754   0.12972155 
   66300   -946.03852    49.062568   -896.97595    1757.2432    5153.8688     2.185766    87.148097   0.12233621 
   66400    -939.1473    49.335599    -889.8117    1767.0223    -7918.065    2.1406121    87.766506   0.13114376 
   66500   -943.12071    43.853513    -899.2672    1570.6738   -3444.5981    2.1632506    80.987819   0.12943773 
   66600   -946.56067    50.411056   -896.14962    1805.5412    11755.905    2.2090251    82.089285    0.1336811 
   66700   -939.53552    47.797667   -891.73786    1711.9391    2083.6216    2.1671991    80.291244   0.13941114 
   66800   -935.75988    43.316118   -892.44376    1551.4263   -16251.291    2.1206058    74.854936   0.14823099 
   66900   -942.00428    42.599875   -899.40441     1525.773    9013.0876    2.1912012    78.320736   0.12948857 
   67000   -947.73288    53.652694   -894.08018    1921.6449    11674.633    2.2012055    81.269077   0.11718188 
   67100   -941.57688    47.002943   -894.57394     1683.475   -7918.7418    2.1481721    81.732477   0.11964077 
   67200   -949.63357    45.855634   -903.77794    1642.3825   -7091.9273    2.1706821    82.677836   0.12453964 
   67300   -943.76188    47.525887     -896.236    1702.2049    5915.9596    2.1861559    85.056768   0.13060575 
   67400   -940.58606    46.250805   -894.33526    1656.5361    4469.4063    2.1743133    81.275034   0.12519964 
   67500   -945.62743    42.979851   -902.64757    1539.3824   -7152.6138    2.1590042    80.590981   0.12538516 
   67600   -941.85994    43.350569   -898.50937    1552.6602      1820.49    2.1738437     78.88289     0.134777 
   67700   -941.70324    48.791072   -892.91217    1747.5193    6769.1175      2.18607    78.427432   0.15496235 
   67800   -948.46941    48.533434   -899.93597    1738.2916   -3919.5696    2.1700998    76.966996   0.11967035 
   67900   -945.75673    47.029089   -898.72764    1684.4114     -7112.73     2.161937    79.328844   0.11972889 
   68000   -937.71754    46.403673   -891.31387    1662.0113    5649.9199    2.1738105    80.544907   0.13310862 
   68100    -945.6962    48.280047   -897.41615    1729.2162     3293.291     2.185875    80.637684    0.1239264 
   68200   -945.29554    45.386705   -899.90884    1625.5872   -5078.4507    2.1667896    79.496426   0.14656521 
   68300   -938.48196     48.54235   -889.93961    1738.6109   -3586.9225    2.1527083    79.497931   0.14945816 
   68400   -944.11008    47.499097   -896.61098    1701.2454    12697.234    2.2051881    75.964583   0.12788205 
   68500   -947.01644    48.347908   -898.66853    1731.6467    79.845365    2.1793603    74.737289   0.13161491 
   68600   -944.43403    51.026277   -893.40775    1827.5762   -18760.518    2.1232671    82.276797   0.14069728 
   68700   -937.58461    47.572201    -890.0124    1703.8637    6703.5954    2.1791494     76.22534   0.15120143 
   68800   -949.24881    50.757861   -898.49095    1817.9625    16716.032    2.2227248     81.33842   0.13300823 
   68900   -942.36825    46.078289   -896.28996    1650.3572   -8382.8758    2.1496879    80.846142   0.12056471 
   69000   -944.13525    50.983235   -893.15202    1826.0346   -12103.823    2.1439763    85.570115   0.13514168 
   69100   -948.46974    46.766258   -901.70348    1674.9977     8803.555     2.204974    78.567211   0.11913141 
   69200   -944.94822    47.473508   -897.47471    1700.3289    2165.4071    2.1806225    84.114144   0.14372127 
   69300   -944.33111    50.002238   -894.32887    1790.8988   -8327.7295    2.1503832    84.144668   0.15428699 
   69400   -948.42216    50.577878   -897.84429    1811.5162   -210.85755    2.1746202    84.242651   0.11594885 
   69500    -947.8472    45.670999   -902.17621    1635.7695    7522.9806     2.201645    78.384597   0.12277913 
   69600   -941.18351    47.957779   -893.22573    1717.6737   -2240.6851    2.1588152    77.792383   0.13212914 
   69700    -943.3636     46.20748   -897.15612    1654.9844    -4811.885    2.1561597    81.758041   0.11820306 
   69800    -949.3076    48.943177   -900.36442    1752.9671    4625.3569    2.1936346    79.142843   0.12259705 
   69900   -940.70624    50.849355   -889.85689    1821.2395     3012.059    2.1694118    82.467067   0.13705292 
   70000   -940.65796    46.767412   -893.89055    1675.0391   -5093.9404    2.1509099    78.157787   0.13950557 
   70100   -946.63199     47.43495   -899.19704    1698.9479   -3645.1368    2.1670231    76.526918   0.12754613 
   70200   -947.82672    51.246187   -896.58053    1835.4526    6962.3838    2.1957913    84.753363   0.13084526 
   70300   -942.23097    51.938649   -890.29232     1860.254   -4690.5932    2.1520975    86.979146   0.12628826 
   70400   -942.69998    44.128663   -898.57132    1580.5287   -8907.2328    2.1457735    83.187857   0.13069349 
   70500   -943.81491    47.573993   -896.24091    1703.9279    9228.6915    2.1926394    80.518469   0.12647521 
   70600   -940.42227    51.195513   -889.22675    1833.6376    9506.8479    2.1850811    76.324131   0.12412217 
   70700   -941.91668    47.826391   -894.09028    1712.9679   -16808.961    2.1233368    81.577382   0.14202349 
   70800   -942.21751    42.552834   -899.66468    1524.0882   -3384.2637    2.1591877    76.617538   0.12551842 
   70900   -944.14484    50.752586   -893.39225    1817.7736    15168.711    2.2067265    78.832515   0.15003561 
[...]
  186800   -942.68696    47.478035   -895.20893     1700.491    715.32384    2.1713508    115.82079   0.12552105 
  186900   -943.40894    48.073426   -895.33551    1721.8158   -1729.6455    2.1626183    114.19588   0.12674379 
  187000   -947.81483     43.44483      -904.37    1556.0362    1006.7724    2.1864691     114.3328   0.12905731 
  187100   -947.57882    51.438127   -896.14069    1842.3272   -675.67051    2.1756398    110.20773   0.13790065 
  187200   -948.60414    53.321275   -895.28286    1909.7747   -3816.1478    2.1673875    116.67507    0.1370757 
  187300   -948.82197    46.256258   -902.56571    1656.7314   -1325.7424    2.1794085    109.07169   0.12883777 
  187400   -946.73933    47.587808   -899.15152    1704.4227    2793.8908    2.1805125    110.47153   0.13236156 
  187500   -943.45011    49.269918   -894.18019    1764.6698    1620.8496    2.1750104    114.99066   0.12865296 
  187600   -945.29052    46.578273   -898.71225    1668.2648   -4132.0266    2.1625754       115.11   0.12708306 
  187700   -951.79281    48.818751   -902.97406    1748.5106   -3564.5121    2.1791795    113.21983   0.12121643 
  187800   -941.40686    49.008263   -892.39859    1755.2982    2822.2261       2.1727    110.59717   0.12140651 
  187900   -942.28804    47.086238    -895.2018    1686.4583    1755.6415     2.171641    110.79926   0.14498711 
  188000   -944.07806    43.984201   -900.09386    1575.3546   -3508.5545    2.1635194    114.00219   0.14824317 
  188100   -942.12699    47.554454   -894.57253    1703.2281    2483.6943    2.1737088    111.00146   0.13451879 
  188200   -942.85541    51.189034   -891.66638    1833.4055    4641.1162    2.1753298    114.80179     0.133676 
  188300   -948.16407      49.4222   -898.74187     1770.124    -7851.662    2.1577666    110.04595   0.13874443 
  188400   -944.37658    48.173338   -896.20325    1725.3943   -4800.9981    2.1603514    114.39286   0.13784995 
  188500   -937.84321    49.884992   -887.95822    1786.6995    7560.6776    2.1713947    110.29437   0.13493041 
  188600   -945.69455    48.407892   -897.28666    1733.7952    3091.7451    2.1803854    104.11911   0.12460811 
  188700   -946.35724    48.271589   -898.08565    1728.9133   -9738.7262    2.1498686    110.35554   0.11903689 
  188800    -942.6138    51.900508   -890.71329     1858.888   -2977.1698    2.1590629    110.57945   0.14261389 
  188900   -945.51138    46.636796   -898.87458    1670.3609    12374.792    2.2081971    116.34988   0.14242851 
  189000    -947.4196    47.700726   -899.71887     1708.467   -8492.4735    2.1587326    114.79103   0.12891034 
  189100   -942.63853    47.466253   -895.17227     1700.069   -9763.4676     2.143672     115.6257   0.14134778 
  189200   -940.60496    47.735797   -892.86916    1709.7231    11144.753    2.1945561    113.28413   0.13216153 
  189300    -947.2093    44.456192   -902.75311    1592.2596    6598.9177    2.1985682    113.40185   0.12701286 
  189400   -943.38824    46.358145    -897.0301    1660.3806   -9771.5998    2.1422438    111.30806   0.12409676 
  189500   -943.11877    48.707043   -894.41173    1744.5096   -2037.0044    2.1637858    109.75837     0.112418 
  189600   -948.76597     47.52129   -901.24468    1702.0403     5913.379     2.193487    110.45465    0.1226133 
  189700   -947.89518    49.068583    -898.8266    1757.4587   -1806.9972    2.1728837    112.59922   0.12073852 
  189800   -946.25753    52.565283   -893.69225    1882.6978   -5044.6997    2.1514506    115.56633   0.11140599 
  189900   -943.70179    45.315418   -898.38637    1623.0339    3649.7765    2.1757328    113.38424   0.12788642 
  190000   -944.38995    43.950322   -900.43963    1574.1412    6589.5184    2.1876333    112.74174   0.12241201 
  190100   -943.46426    52.353379   -891.11088    1875.1082   -6765.9062    2.1496227    117.92602   0.11962322 
  190200    -946.6354     48.86497   -897.77043     1750.166   -2741.5182    2.1700254    113.85872   0.12509642 
  190300   -944.63526    46.350257     -898.285    1660.0981    5410.5597    2.1860207    118.05498   0.12346145 
  190400   -940.12904    50.784574   -889.34447    1818.9193   -3271.7131    2.1527623    120.97343   0.13816711 
  190500   -942.52085    45.078159    -897.4427    1614.5362   -3888.2479    2.1593607    117.70563   0.12368488 
  190600   -947.61675    49.295522   -898.32123    1765.5868    -205.8636    2.1763079    113.97829    0.1116016 
  190700   -940.39355    49.719376   -890.67417    1780.7677    6413.2506    2.1770625    110.05746   0.13787987 
  190800   -942.50971    46.474428   -896.03528    1664.5455   -5015.8149    2.1521359    111.78711   0.13327864 
  190900   -945.33997     44.92462   -900.41535     1609.037   -7224.3144    2.1540714    114.75304   0.12299801 
  191000   -940.47392    47.762077   -892.71185    1710.6644    13827.963    2.1956684    114.15748   0.12231767 
  191100   -940.19769    43.266718   -896.93097    1549.6569    7136.7872    2.1794865    112.00135   0.12374447 
  191200   -947.75825    43.828963   -903.92929    1569.7945   -12715.619    2.1501656    115.64582   0.12253976 
  191300   -944.43216    48.450155     -895.982    1735.3089    562.46322    2.1700519    120.08883   0.12699785 
  191400   -943.32968    49.358726   -893.97095    1767.8506    13117.675    2.1960398    116.15913   0.12795184 
  191500    -946.9209    44.199839   -902.72106    1583.0779   -2403.8268    2.1711354    117.52879   0.10713863 
  191600   -945.15094    48.841315   -896.30962    1749.3188   -8735.5429    2.1504088    110.40806    0.1156272 
  191700   -944.50331    51.230532   -893.27278    1834.8919    4882.9979    2.1807214    114.58219   0.12964884 
  191800   -947.75457    48.299511   -899.45506    1729.9133    2351.9505    2.1833877    114.65126   0.13472265 
  191900   -943.93446    46.983649   -896.95081    1682.7839   -3593.8075    2.1600305    114.42143   0.12194703 
  192000   -938.97804    47.523716   -891.45432    1702.1272   -1558.8338    2.1550893     119.8632   0.12319023 
  192100   -942.16742    44.223101   -897.94432    1583.9111    4590.3391    2.1834953    117.78851   0.12983964 
  192200   -944.82119    46.576195   -898.24499    1668.1904    2412.8962    2.1782242    112.92085   0.12282076 
  192300   -937.42283    47.965961   -889.45687    1717.9668   -3392.5367    2.1437293    120.97161   0.14403172 
  192400   -944.24788    45.623085   -898.62479    1634.0534    2024.1796     2.180023    109.54609    0.1362146 
  192500   -947.40752    49.540328   -897.86719    1774.3549   -997.51696    2.1804148    111.65779   0.12685865 
  192600   -939.54325     48.37945    -891.1638    1732.7765   -3197.9068     2.150647    116.76049   0.12658254 
  192700   -943.67146    45.139197   -898.53227    1616.7223   -1950.2693    2.1640373    112.08884    0.1325751 
  192800   -945.02803    45.704466   -899.32356    1636.9682    4861.4464    2.1862427    115.25943    0.1445214 
  192900   -944.84999    51.407601   -893.44239    1841.2338    3103.7461    2.1770621    116.94262   0.13578154 
  193000   -944.00573    47.325674   -896.68006     1695.034   -12600.849     2.138544    118.15669    0.1283786 
  193100   -946.28526     43.23176    -903.0535    1548.4049   -1010.5082    2.1712121    115.17916   0.11663303 
  193200   -945.20618    51.187939   -894.01824    1833.3663    13719.658    2.2086703    107.86562   0.13886915 
  193300    -941.5536    45.439438   -896.11417    1627.4759   -3006.3285    2.1614812    108.82039   0.15593595 
  193400   -945.64055    44.061753    -901.5788    1578.1322   -14157.454    2.1438815     117.0984   0.12516242 
  193500   -944.90219    45.498957   -899.40324    1629.6076    7534.3653     2.196174    116.66849   0.14689138 
  193600   -943.19733     50.47735   -892.71998    1807.9156     5799.172    2.1854503    106.81452   0.14882017 
  193700   -943.88982    45.375692   -898.51412    1625.1927   -8351.5827    2.1547992    115.89033   0.13491697 
  193800   -942.82838    45.090927   -897.73746    1614.9935   -1670.3647     2.167378    115.04615   0.15673353 
  193900   -938.31698    49.608253   -888.70872    1776.7877    4225.9462    2.1728955    117.21527   0.14784893 
  194000   -943.41382     47.20689   -896.20693    1690.7796    931.39701    2.1767605    113.55321   0.12348541 
  194100   -947.70614    48.974452   -898.73169    1754.0873   -4968.6566    2.1655184    106.84537   0.12119941 
  194200   -939.65137    49.596606   -890.05477    1776.3706   -320.13724    2.1615164    106.32334   0.13049788 
  194300   -941.84148    48.413464   -893.42801    1733.9947    4623.1566     2.184369    119.78379   0.14672266 
  194400   -943.87438    45.387767   -898.48661    1625.6252   -2595.3272    2.1670632    116.11634   0.14595223 
  194500   -944.00818    48.788375    -895.2198    1747.4227   -5049.6646    2.1602719    117.64004   0.15046031 
  194600   -940.26368    52.450157   -887.81352    1878.5744    4891.9395    2.1773481    116.38375   0.15917249 
  194700   -948.54924    50.315933    -898.2333    1802.1342    4431.8129    2.1937205    110.53342   0.13958917 
  194800   -942.46114    44.918328   -897.54281    1608.8116   -12664.942    2.1410252    122.71629   0.13592166 
  194900    -942.1978    48.957618   -893.24018    1753.4843   -3491.4196    2.1586965    112.32394   0.13261815 
  195000   -947.31845     46.16574   -901.15271    1653.4894    18231.381     2.225102    115.20468   0.13512243 
  195100   -948.01356    47.123182   -900.89037    1687.7815   -4017.3097    2.1687294    111.20984   0.13671261 
  195200   -942.62083    46.408751   -896.21208    1662.1932   -10420.452    2.1440239    110.08574   0.13778981 
  195300    -940.7031    46.565888   -894.13721    1667.8213    7225.8624    2.1860859    109.33217    0.1481391 
  195400   -950.34679    46.937223   -903.40957    1681.1211    5998.6382    2.1954059    113.47689    0.1342944 
  195500   -945.37184    48.681355   -896.69049    1743.5896   -8366.8759     2.151176    117.21267   0.12817869 
  195600   -943.43955    48.763637   -894.67592    1746.5367   -667.24763     2.168482    114.52573   0.14541822 
  195700   -947.30496    47.679997   -899.62496    1707.7246    3728.2505    2.1867314    112.30835   0.12641674 
  195800     -946.894    44.156794    -902.7372    1581.5362    1063.9198    2.1779816     115.2252   0.11736972 
  195900   -939.39794    46.545067   -892.85288    1667.0755   -4743.3431    2.1471947    109.97099   0.13470905 
  196000   -944.09206    47.590316   -896.50175    1704.5125    2686.8957    2.1795825    112.23215   0.12596096 
  196100   -944.18269    44.839887    -899.3428    1606.0021    8233.8996    2.1891283    111.06361   0.14364774 
  196200   -940.98458    51.891734   -889.09284    1858.5737   -7783.7853    2.1447414    114.81278   0.15510105 
  196300   -945.47869    49.888034   -895.59066    1786.8085   -2203.8506    2.1681301    115.01622   0.13567931 
  196400   -942.70094    44.680511   -898.02043    1600.2939     5981.825    2.1869963     110.5763    0.1373649 
  196500   -941.25963    48.537191   -892.72244    1738.4262    1117.9265    2.1675448    117.05668   0.12795536 
  196600   -941.58705    50.158316   -891.42874     1796.489   -8279.9988    2.1443773    113.59837   0.14234219 
  196700   -947.76996      48.1957   -899.57426    1726.1952    2525.4177    2.1855951    112.97648   0.12745101 
  196800   -941.91335    47.758427   -894.15492    1710.5336    17725.424     2.210472    113.32435   0.14176713 
  196900   -940.18863    45.178474   -895.01016    1618.1291   -14230.563    2.1298566    117.52612   0.12271061 
  197000   -948.31659    43.101684    -905.2149     1543.746   -10013.587    2.1581692    108.92492   0.13220958 
  197100   -945.90772    47.646316   -898.26141    1706.5183    16097.344    2.2121013    110.13302   0.13675539 
  197200   -943.16235    48.344149    -894.8182    1731.5121    432.55517    2.1750809    112.17107   0.14498277 
  197300   -940.16084    42.194698   -897.96614    1511.2611   -10247.505    2.1427466    121.12727   0.15096239 
  197400   -947.39776    44.213504   -903.18426    1583.5674    2750.8465      2.18673    110.41559   0.12758315 
  197500    -941.7586    48.365032   -893.39357      1732.26    4835.4961    2.1783868    114.85914    0.1173855 
  197600   -939.73178    43.447254   -896.28453    1556.1231   -1343.7137    2.1597762    124.03251   0.13911145 
  197700   -945.79849    44.425614   -901.37288    1591.1644   -2242.7307    2.1695245    113.00061   0.11056848 
  197800   -946.83615    47.109646   -899.72651    1687.2967    6866.3673    2.1923602    109.70289   0.12718035 
  197900   -943.16388    49.952852   -893.21103      1789.13   -94.645297    2.1650139    119.08825   0.13123125 
  198000   -943.51216    45.624636   -897.88752     1634.109   -8595.9733    2.1503314    110.92589   0.13159259 
  198100   -945.96581    48.745217   -897.22059    1745.8769    2659.5858     2.182442    112.85049   0.14848506 
  198200   -939.11369    52.131636   -886.98205    1867.1662    5815.7916    2.1708268    114.07512   0.14306375 
  198300   -938.44458    43.280987   -895.16359     1550.168    538.51814    2.1617098    116.52192   0.13412759 
  198400   -943.84554    45.437466   -898.40807    1627.4053    -6351.117    2.1553617    116.35195   0.12361078 
  198500   -942.52026    49.815787   -892.70448    1784.2208    10403.522    2.1893362     106.9684   0.12017787 
  198600   -939.36902    50.418541   -888.95048    1805.8093    5254.4628     2.168097    116.83144   0.12264508 
  198700   -944.32884    45.693579   -898.63526    1636.5783   -13450.719    2.1394174    118.36446   0.12415303 
  198800   -945.34132     47.93752    -897.4038    1716.9481      2771.69    2.1757023    119.49269   0.12258397 
  198900   -943.47267     52.09286   -891.37981    1865.7773    16702.188     2.209992    110.20204   0.13666453 
  199000   -941.58673    45.790228    -895.7965    1640.0399   -12198.454    2.1372349    113.43582   0.13770206 
  199100     -945.625    43.314335   -902.31067    1551.3624   -9890.2909    2.1522932    120.37289   0.11916649 
  199200   -940.77581    46.506119   -894.26969    1665.6805    13248.244     2.197179    111.65977   0.12999026 
  199300   -946.69678    51.097321   -895.59946    1830.1207    784.62731     2.177055    111.64077   0.11870425 
  199400   -946.38592    42.232437   -904.15349    1512.6127   -5966.3181    2.1610092    108.48411   0.11314906 
  199500   -940.48758    43.373833   -897.11374    1553.4934    1082.2215     2.171783    109.41479   0.13583331 
  199600   -941.15387    47.395374    -893.7585    1697.5304    8931.9439     2.188721    105.91915   0.12550524 
  199700   -944.72225    43.516051    -901.2062    1558.5871   -2971.8469    2.1689487    107.44595   0.12325518 
  199800   -941.76536    45.975918   -895.78945    1646.6907   -5644.6827    2.1527059    114.21611   0.13227802 
  199900   -941.38938    48.800336   -892.58904     1747.851    6604.9021    2.1797821    118.20008   0.13156588 
  200000   -944.19251    45.415443   -898.77707    1626.6165    2631.0438     2.176539    110.50677    0.1279268 
  200100   -943.16279    45.924098   -897.23869    1644.8347    -6303.476    2.1531342    112.10225   0.12915255 
  200200    -938.3401     48.28629   -890.05381    1729.4398   -1682.4692    2.1513962    110.91708   0.11615029 
  200300   -945.04007    47.093516   -897.94655     1686.719     7397.044    2.1895746    112.37954   0.11780577 
  200400   -943.50797    45.464618   -898.04335    1628.3777    475.97439    2.1698029    112.44964   0.11729206 
  200500   -940.93505     50.28751   -890.64754    1801.1162   -11129.871    2.1343449    109.96655   0.14234869 
  200600   -947.11516    46.889476   -900.22569     1679.411    8190.7986    2.1942436    111.47653   0.12652154 
  200700   -948.80001     50.57912   -898.22089    1811.5607    3687.7578    2.1894551    110.72687   0.13654458 
  200800   -945.96267    51.595586   -894.36709    1847.9668   -14801.448    2.1311477    112.27676   0.12213933 
  200900   -943.98464    52.251379   -891.73326    1871.4549   -4038.1597    2.1534044    112.87114   0.12363531 
  201000   -952.68125    52.509604   -900.17164    1880.7036    17168.396    2.2288633     110.3047    0.1395329 
  201100   -945.86922    50.512549   -895.35667    1809.1763   -6387.9444    2.1553665    113.10487    0.1318315 
  201200   -942.82363    48.082639   -894.74099    1722.1457   -12923.368    2.1352976    110.14355   0.11747849 
  201300   -947.41344    46.498594   -900.91485     1665.411    6765.8298    2.1880588    111.97685   0.11518069 
  201400   -945.45762    46.298021    -899.1596    1658.2272    7160.8144     2.190209    118.09049   0.12824105 
  201500   -941.81137    47.977196   -893.83417    1718.3692    -7055.375    2.1465642    118.39886   0.13691375 
  201600   -947.20251    47.544968   -899.65754    1702.8883    -5575.696    2.1607774    113.76753   0.14412077 
  201700   -945.50822    46.904091   -898.60413    1679.9345    7860.0123    2.1910705    113.79527   0.12314602 
  201800   -940.01832    49.300159   -890.71816    1765.7529   -150.64621    2.1579479    111.94643   0.11634846 
  201900   -943.99968    45.032915   -898.96676    1612.9157   -9121.0194    2.1523707     116.5326   0.12828711 
  202000   -944.08054    46.439894   -897.64065    1663.3086    3999.3065     2.179593    108.94875   0.12819322 
  202100   -942.25393    53.665092   -888.58884     1922.089    4900.5207    2.1736297    115.18219   0.13518177 
  202200   -945.54447    48.239746   -897.30473    1727.7728   -4756.6721    2.1615619    111.70712   0.13285112 
  202300   -946.61027    47.677776   -898.93249     1707.645   -6363.1163    2.1575239     113.8747   0.13420469 
  202400   -937.13952    46.638361   -890.50116    1670.4169    9252.4401    2.1797068    113.41281     0.159203 
  202500   -945.32681    48.133751   -897.19306    1723.9764    2858.9024    2.1813786    109.61345   0.14204805 
  202600   -944.34272    43.644968   -900.69775    1563.2045   -9892.6405    2.1436629    111.74341   0.12070935 
  202700    -941.8852    47.945128   -893.94008    1717.2206   -1410.7742    2.1631242    111.75877   0.12853525 
  202800   -944.91007    49.305139   -895.60493    1765.9313    15227.349    2.2093275    109.71654   0.12568875 
  202900   -944.71739    42.335827   -902.38156    1516.3158    -2718.136     2.163599    108.18406   0.10419917 
  203000   -941.61122    45.239426   -896.37179    1620.3122   -14779.573    2.1296402    115.23392   0.14372913 
  203100   -943.42614    51.418569   -892.00757    1841.6267    9042.5995    2.1894939    117.04597   0.13221451 
  203200   -948.96378    49.021275    -899.9425    1755.7643    4736.4929    2.1937305    105.89845   0.12872001 
Loop time of 141.467 on 1 procs for 200000 steps with 217 atoms

Performance: 366.447 ns/day, 0.065 hours/ns, 1413.762 timesteps/s
100.0% CPU use with 1 MPI tasks x no OpenMP threads

MPI task timing breakdown:
Section |  min time  |  avg time  |  max time  |%varavg| %total
---------------------------------------------------------------
Pair    | 135.98     | 135.98     | 135.98     |   0.0 | 96.12
Neigh   | 2.3687     | 2.3687     | 2.3687     |   0.0 |  1.67
Comm    | 0.91759    | 0.91759    | 0.91759    |   0.0 |  0.65
Output  | 0.072233   | 0.072233   | 0.072233   |   0.0 |  0.05
Modify  | 1.8314     | 1.8314     | 1.8314     |   0.0 |  1.29
Other   |            | 0.2965     |            |       |  0.21

Nlocal:    217 ave 217 max 217 min
Histogram: 1 0 0 0 0 0 0 0 0 0
Nghost:    953 ave 953 max 953 min
Histogram: 1 0 0 0 0 0 0 0 0 0
Neighs:    4210 ave 4210 max 4210 min
Histogram: 1 0 0 0 0 0 0 0 0 0
FullNghs:  8420 ave 8420 max 8420 min
Histogram: 1 0 0 0 0 0 0 0 0 0

Total # of neighbors = 8420
Ave neighs/atom = 38.8018
Neighbor list builds = 4000
Dangerous builds = 32
Total wall time: 0:02:23
