LAMMPS (3 Mar 2020)
Reading data file ...
  orthogonal box = (0 0 0) to (17.469 17.469 17.469)
  1 by 1 by 1 MPI processor grid
  reading atoms ...
  217 atoms
  read_data CPU = 0.00102617 secs
Reading potential file library.meam with DATE: 2012-06-29
Reading potential file LiSi.meam with DATE: 2020-11-07
1 atoms in group Li
216 atoms in group Si
Neighbor list info ...
  update every 1 steps, delay 10 steps, check yes
  max neighbors/atom: 2000, page size: 100000
  master list distance cutoff = 6
  ghost atom cutoff = 6
  binsize = 3, bins = 6 6 6
  2 neighbor lists, perpetual/occasional/extra = 2 0 0
  (1) pair meam/c, perpetual
      attributes: full, newton on
      pair build: full/bin/atomonly
      stencil: full/bin/3d
      bin: standard
  (2) pair meam/c, perpetual, half/full from (1)
      attributes: half, newton on
      pair build: halffull/newton
      stencil: none
      bin: none
Setting up Verlet run ...
  Unit style    : metal
  Current step  : 0
  Time step     : 0.003
Per MPI rank memory allocation (min/avg/max) = 8.895 | 8.895 | 8.895 Mbytes
Step Temp E_pair E_mol TotEng Press Volume 
       0         1600   -951.04357            0   -906.37126   -115280.58    5330.9442 
    3200    1551.4847   -944.03891            0   -900.72116    5776.1526    4608.3303 
Loop time of 2.40487 on 1 procs for 3200 steps with 217 atoms

Performance: 344.900 ns/day, 0.070 hours/ns, 1330.631 timesteps/s
100.0% CPU use with 1 MPI tasks x no OpenMP threads

MPI task timing breakdown:
Section |  min time  |  avg time  |  max time  |%varavg| %total
---------------------------------------------------------------
Pair    | 2.3229     | 2.3229     | 2.3229     |   0.0 | 96.59
Neigh   | 0.029778   | 0.029778   | 0.029778   |   0.0 |  1.24
Comm    | 0.014953   | 0.014953   | 0.014953   |   0.0 |  0.62
Output  | 2.4008e-05 | 2.4008e-05 | 2.4008e-05 |   0.0 |  0.00
Modify  | 0.031839   | 0.031839   | 0.031839   |   0.0 |  1.32
Other   |            | 0.005374   |            |       |  0.22

Nlocal:    217 ave 217 max 217 min
Histogram: 1 0 0 0 0 0 0 0 0 0
Nghost:    957 ave 957 max 957 min
Histogram: 1 0 0 0 0 0 0 0 0 0
Neighs:    4238 ave 4238 max 4238 min
Histogram: 1 0 0 0 0 0 0 0 0 0
FullNghs:  8476 ave 8476 max 8476 min
Histogram: 1 0 0 0 0 0 0 0 0 0

Total # of neighbors = 8476
Ave neighs/atom = 39.0599
Neighbor list builds = 49
Dangerous builds = 0
Setting up Verlet run ...
  Unit style    : metal
  Current step  : 3200
  Time step     : 0.003
Per MPI rank memory allocation (min/avg/max) = 9.664 | 9.664 | 9.664 Mbytes
Step PotEng KinEng TotEng Temp Press Density c_msdli[4] c_msdsi[4] 
    3200   -944.03891    43.317749   -900.72116    1551.4847    5776.1526    2.1884951            0 1.1944332e-31 
    3300   -951.73524    44.175544   -907.55969    1582.2078    128.80462    2.1884951    0.1984639   0.10641822 
    3400   -948.86273     41.56487   -907.29786    1488.7029    611.49006    2.1884951  0.052025151   0.12218017 
    3500   -946.00381       43.136   -902.86781    1544.9751    3190.7246    2.1884951   0.19440529   0.10438227 
    3600   -946.14208    44.924068   -901.21801    1609.0172    3494.7243    2.1884951   0.27758488   0.13482092 
    3700    -947.9475    41.859477   -906.08802    1499.2547    667.31816    2.1884951  0.081188821  0.092975753 
    3800    -949.4468    43.534614   -905.91218     1559.252   -615.83965    2.1884951    0.1721425   0.12487488 
    3900   -945.75272    45.812091   -899.94063     1640.823    3194.3512    2.1884951   0.15684964   0.12802748 
    4000   -947.48636    40.948392   -906.53797    1466.6229    699.39055    2.1884951   0.16284098   0.12172273 
    4100   -948.30535    47.165336   -901.14002    1689.2913    2654.9429    2.1884951   0.34598901   0.11481207 
    4200   -946.73674    46.646304   -900.09043    1670.7014    4175.0121    2.1884951   0.12997794   0.10433163 
    4300   -949.73138    43.296769   -906.43461    1550.7332    162.78112    2.1884951   0.22810315   0.09940481 
    4400    -949.5339    48.199798   -901.33411     1726.342    1325.5193    2.1884951   0.14743643   0.13079826 
    4500   -945.79732    53.312993   -892.48433    1909.4781    6752.8119    2.1884951   0.29747772   0.11387796 
    4600   -949.57471    47.175652   -902.39905    1689.6608    3234.1383    2.1884951   0.31054753   0.12118047 
    4700   -951.78787    45.607333   -906.18054    1633.4893   -204.17402    2.1884951   0.13099693   0.12851541 
    4800   -946.51357     49.47101   -897.04256    1771.8722    5018.9599    2.1884951   0.22374888   0.12344626 
    4900   -949.57545    47.198785   -902.37667    1690.4893    2116.1375    2.1884951  0.011232349   0.12883113 
    5000   -948.67936    44.600641   -904.07872    1597.4332     1671.832    2.1884951   0.34335845   0.12861584 
    5100   -947.16711    46.937223   -900.22989    1681.1211      3041.07    2.1884951   0.19197823    0.1329952 
    5200   -944.05685    45.182883   -898.87397     1618.287    4978.4592    2.1884951   0.28073205   0.10696177 
    5300   -950.33196    44.947976   -905.38399    1609.8735    1055.3258    2.1884951   0.18555956   0.11506452 
    5400   -946.94271    46.386073   -900.55664    1661.3809    4054.9375    2.1884951   0.10830917   0.12072157 
    5500   -943.88664    46.254297   -897.63234    1656.6612    7518.4093    2.1884951   0.59845472   0.13243259 
    5600      -950.72    45.645223   -905.07478    1634.8464   -208.84977    2.1884951    0.1789133   0.13542148 
    5700   -947.30233    46.085091   -901.21724    1650.6008     4406.846    2.1884951   0.18413376   0.13583686 
    5800   -947.32053    47.734807   -899.58572    1709.6877    4499.0606    2.1884951  0.085667951   0.13176769 
    5900   -951.56354    43.842138    -907.7214    1570.2664   -753.30585    2.1884951   0.11105824   0.12390684 
    6000   -949.83156    49.089011   -900.74255    1758.1904    4435.0287    2.1884951   0.26737846   0.13549305 
    6100   -944.37661    43.736036   -900.64058    1566.4662    6033.3583    2.1884951   0.55194201   0.13710169 
    6200   -949.65706    44.115994   -905.54107    1580.0749     1363.868    2.1884951   0.11595065   0.12280189 
    6300   -953.54603    47.657398   -905.88863    1706.9152   -923.98545    2.1884951   0.21756205   0.11924392 
    6400   -944.72295     45.75989   -898.96306    1638.9533    6079.9395    2.1884951  0.093021719   0.13390227 
    6500   -947.49367    40.245438   -907.24823    1441.4456    2677.8607    2.1884951  0.045886684   0.13955143 
    6600   -946.56287    41.397344   -905.16553    1482.7027    2819.3261    2.1884951   0.34337303   0.14554355 
    6700   -950.52112    48.505153   -902.01597    1737.2787    2069.3664    2.1884951  0.077369532   0.13346823 
    6800   -950.03277    41.867386   -908.16539    1499.5379    1232.7858    2.1884951  0.050159346   0.12505336 
    6900     -948.494    42.832508   -905.66149    1534.1051    1614.0376    2.1884951   0.21112658   0.13065411 
    7000   -947.10662    45.921171   -901.18545    1644.7298    3504.0051    2.1884951   0.11750901   0.12354352 
    7100   -949.08064    40.196394   -908.88425    1439.6891     2115.962    2.1884951   0.16898595   0.12811389 
    7200    -947.6622    39.722487   -907.93971    1422.7154     2924.481    2.1884951   0.15156492   0.12553605 
    7300    -948.5468    45.342127   -903.20467    1623.9906    3246.1823    2.1884951   0.23083846   0.12716623 
    7400   -947.68106    47.851202   -899.82986    1713.8565    5015.8535    2.1884951   0.12797403   0.12132484 
    7500   -950.61476    43.545209   -907.06956    1559.6315    1659.6347    2.1884951   0.34553594   0.11192527 
    7600   -944.45421     41.18674   -903.26747    1475.1596    5364.0433    2.1884951   0.15431349   0.13646882 
    7700    -947.1781    46.795042   -900.38306    1676.0287    3731.9796    2.1884951   0.43460279   0.13026955 
    7800   -950.87698    45.425992   -905.45099    1626.9943     1384.649    2.1884951   0.23842326   0.13132787 
    7900   -944.13601    42.303114    -901.8329    1515.1441    4947.7322    2.1884951  0.067688538    0.1508783 
    8000    -945.7654    46.559004   -899.20639    1667.5747    5255.8968    2.1884951   0.15560132   0.12713479 
    8100   -950.25448    44.014848   -906.23963    1576.4522    675.00827    2.1884951   0.36593413   0.13064237 
    8200   -949.89877    48.481342   -901.41743    1736.4259    2143.9343    2.1884951   0.12970452   0.12160719 
    8300   -944.24717    50.043516   -894.20366    1792.3773    8033.6624    2.1884951   0.20658928   0.12765825 
    8400   -942.18345    39.420214   -902.76323    1411.8891    5856.2375    2.1884951   0.23033603   0.14247263 
    8500   -951.42011    45.050333   -906.36978    1613.5395     258.4418    2.1884951  0.073388224   0.11588886 
    8600   -944.03665    46.740267   -897.29639    1674.0668    6755.3118    2.1884951    0.1293853   0.13664039 
    8700   -946.15463    43.264866   -902.88977    1549.5906    3029.6726    2.1884951   0.15053226   0.13055129 
    8800   -948.99148    44.956316   -904.03516    1610.1722     3401.521    2.1884951   0.12098396    0.1245705 
    8900   -945.33047    46.323416   -899.00705    1659.1368     6168.656    2.1884951   0.27683172   0.14827983 
    9000    -948.6148    48.454398    -900.1604    1735.4608    3766.6184    2.1884951  0.058731599   0.11616758 
    9100   -947.47773    42.484183   -904.99355    1521.6294    3213.8573    2.1884951   0.22540553   0.11928313 
    9200   -945.46356    45.717608   -899.74595    1637.4389     5135.158    2.1884951   0.25801405   0.14305649 
    9300    -948.7139    49.035873   -899.67802    1756.2872    1899.5884    2.1884951  0.029172537    0.1340726 
    9400   -948.96062    43.342881   -905.61774    1552.3848    2093.6706    2.1884951  0.029643663    0.1263131 
    9500   -946.43219    46.914527   -899.51767    1680.3082    5824.1897    2.1884951  0.049136524   0.13103383 
    9600    -949.2585    45.747099    -903.5114    1638.4952    1973.8194    2.1884951  0.022678057   0.13035474 
    9700    -950.6623    44.124662   -906.53764    1580.3854    1573.0117    2.1884951    1.4328068   0.13300257 
    9800   -949.79164    50.473581   -899.31806    1807.7806    2079.6739    2.1884951   0.47032564   0.13726143 
    9900   -946.94967    45.565421   -901.38425    1631.9881    5121.5334    2.1884951    9.9129836   0.14800463 
   10000   -946.85842    43.316511   -903.54191    1551.4403    6803.0261    2.1884951    6.2921606   0.14524243 
   10100   -944.71191    41.743999   -902.96792    1495.1187    4536.9395    2.1884951    7.7076843   0.15970194 
   10200   -944.90993    44.965879   -899.94405    1610.5147    4815.0984    2.1884951    10.576981   0.14770397 
   10300   -945.63182    45.325904   -900.30592    1623.4095    5893.2045    2.1884951     5.687926   0.15203102 
   10400   -951.06164    44.854727   -906.20691    1606.5337   -920.25404    2.1884951    7.6645978   0.16124972 
   10500   -946.14471    47.847541   -898.29716    1713.7254    6088.6143    2.1884951     12.36831   0.14794181 
   10600    -944.8347    47.664191   -897.17051    1707.1585    5981.9545    2.1884951    14.137896   0.13675504 
   10700   -946.42916    42.593895   -903.83526    1525.5589     4903.377    2.1884951    16.321392   0.12270635 
   10800    -945.9694    42.365317   -903.60408     1517.372    4884.2249    2.1884951     16.33087    0.1274956 
   10900   -945.13672    47.530267   -897.60645    1702.3618    5330.3053    2.1884951    16.919908   0.13993255 
   11000   -952.38809    48.066962   -904.32113    1721.5843    711.60905    2.1884951    17.873628   0.12530005 
   11100   -949.55255    46.839577   -902.71298    1677.6238    1747.3129    2.1884951     16.45951   0.11542791 
   11200   -946.58401    47.058047   -899.52597    1685.4486    5251.7686    2.1884951    20.127521   0.12145107 
   11300   -948.55679     41.64706   -906.90973    1491.6467    1528.7713    2.1884951    16.544352   0.13073533 
   11400   -945.30459     41.93461   -903.36998    1501.9456    4699.8313    2.1884951    19.301294   0.14351077 
   11500   -947.34654    47.398341    -899.9482    1697.6367    4827.5192    2.1884951    17.147466   0.13680369 
   11600   -948.52368    42.768148   -905.75553    1531.7999    1912.6755    2.1884951    15.155169   0.11779836 
   11700   -945.61814    44.449686   -901.16846    1592.0265    4578.7896    2.1884951     16.01299   0.12450167 
   11800   -946.43139    46.370009   -900.06139    1660.8055    4323.5833    2.1884951    17.738681   0.11982886 
   11900   -951.47261     45.45709   -906.01552    1628.1081    397.20163    2.1884951    18.706561   0.11011201 
   12000    -948.1795    46.176909   -902.00259    1653.8894    5046.0283    2.1884951    18.436582   0.12698699 
   12100   -942.02352    48.643548   -893.37997    1742.2355    8229.6789    2.1884951    17.660801   0.12190872 
   12200   -949.60374    47.807167   -901.79657    1712.2793    2092.9925    2.1884951    15.133032   0.11681242 
   12300    -951.7277    45.023575   -906.70412    1612.5812    583.59472    2.1884951    16.770543   0.13157733 
   12400   -943.98391    45.343929   -898.63998    1624.0551    6411.8442    2.1884951    17.003098   0.13939813 
   12500   -946.40593    44.109619   -902.29631    1579.8466    4713.0357    2.1884951    17.913744   0.14306516 
   12600   -948.72979     44.00112   -904.72867    1575.9605     1341.419    2.1884951    16.291961   0.13149758 
   12700   -946.26022    45.057294   -901.20293    1613.7889    4442.2218    2.1884951    18.445286   0.13426938 
   12800   -944.90869    48.418229   -896.49046    1734.1654    6957.0722    2.1884951    17.103769   0.14066929 
   12900   -950.14359    45.181292    -904.9623      1618.23     479.4858    2.1884951    19.329002   0.12343543 
   13000   -947.09238    44.788516   -902.30386    1604.1622    3116.2762    2.1884951    17.480604   0.11992503 
   13100   -943.44142     47.11312    -896.3283    1687.4211    6842.7215    2.1884951    15.471841   0.13241957 
   13200   -949.52286    43.381822   -906.14103    1553.7795    1993.7102    2.1884951    16.732127   0.11952817 
   13300   -946.38276     44.88983   -901.49293    1607.7909     3821.207    2.1884951    15.953065   0.13979294 
   13400    -946.3131    46.923024   -899.39008    1680.6125     4059.482    2.1884951    18.690738   0.15599421 
   13500   -950.47979    42.924325   -907.55546    1537.3936     1144.779    2.1884951    20.124819   0.12442936 
   13600   -946.95709    46.797045   -900.16004    1676.1004    4165.7274    2.1884951     17.96769   0.12804485 
   13700   -947.71911    45.366598   -902.35251     1624.867    4031.2583    2.1884951    17.477946   0.12953789 
   13800   -949.91986    46.101453    -903.8184    1651.1869    1828.2936    2.1884951    17.527528   0.12316976 
   13900   -948.43266     45.59961   -902.83305    1633.2127    2529.0142    2.1884951    16.940142   0.13819776 
   14000   -942.56211    42.482126   -900.07998    1521.5557     5891.875    2.1884951    15.758646   0.13254056 
   14100   -951.10461    44.051864   -907.05275     1577.778   -1237.9991    2.1884951    14.634861   0.11451402 
   14200     -946.579    43.278952   -903.30005    1550.0951    3683.0875    2.1884951    15.674585    0.1207181 
   14300   -949.49391    49.110875   -900.38303    1758.9734    943.83998    2.1884951    18.267782   0.13488649 
   14400   -951.17211    44.797274   -906.37483    1604.4759    -443.3142    2.1884951    20.364935   0.13357482 
   14500   -942.54242     44.64451   -897.89791    1599.0045    5432.7881    2.1884951    19.498875   0.15200853 
   14600   -947.03979    45.102362   -901.93743     1615.403    4342.6841    2.1884951    18.605723   0.12374275 
   14700   -949.12144    44.044743    -905.0767     1577.523     3335.489    2.1884951    16.727912   0.12215205 
   14800   -949.59142    51.898224   -897.69319    1858.8062    3789.9499    2.1884951    18.783848   0.13165005 
   14900   -945.67639    46.671869   -899.00453    1671.6171    6352.4354    2.1884951    18.118853   0.12922366 
   15000   -948.97891    44.826272   -904.15264    1605.5145    1849.7627    2.1884951    15.865307   0.12299363 
   15100   -951.10301    46.431408    -904.6716    1663.0047    538.60906    2.1884951    17.237306   0.12464891 
   15200    -947.8903    50.211024   -897.67928    1798.3768    2954.0129    2.1884951    18.466744   0.12730612 
   15300   -951.57781    45.101261   -906.47655    1615.3636   -775.56269    2.1884951     20.65522    0.1246201 
   15400   -948.66578    44.703581    -903.9622    1601.1202    1463.9169    2.1884951    17.285659    0.1356053 
   15500   -940.36321    41.762857   -898.60035    1495.7941    8607.3655    2.1884951     20.58025   0.14093162 
   15600   -947.55233    49.197516   -898.35482    1762.0766    3620.2766    2.1884951    17.888081   0.13387209 
   15700   -948.49691    42.737776   -905.75913    1530.7122    2547.0418    2.1884951    17.146087   0.13557668 
   15800   -945.97657    45.456332   -900.52023     1628.081    4506.4193    2.1884951    17.583062   0.13339701 
   15900   -942.92361    43.320341   -899.60327    1551.5775    6674.8193    2.1884951    17.327229   0.13998125 
   16000   -950.14765    45.580828   -904.56682      1632.54    1451.1786    2.1884951    16.186418   0.12908329 
   16100   -946.99146      45.3397   -901.65176    1623.9036    2772.6316    2.1884951    18.930458   0.13792496 
   16200   -944.14056    44.290865   -899.84969    1586.3382    5736.1953    2.1884951    18.184325   0.15221321 
   16300   -950.58707    42.868338   -907.71873    1535.3884    1646.4963    2.1884951    19.350176   0.12306355 
   16400   -947.40237    47.091591   -900.31078      1686.65    2883.1239    2.1884951    20.556391   0.14189951 
   16500   -945.05608    44.081228   -900.97485    1578.8297    4302.1013    2.1884951     18.28474   0.16073416 
   16600   -950.87031    44.478774   -906.39154    1593.0684    473.81553    2.1884951    18.798126   0.13423971 
   16700   -947.64022    44.024735   -903.61548    1576.8064    2663.1778    2.1884951    16.503678    0.1468399 
   16800   -947.30215    47.678389   -899.62376     1707.667    4315.3366    2.1884951     16.64931   0.14960127 
   16900   -952.90868    45.534522   -907.37416    1630.8815   -1338.0008    2.1884951    19.070656   0.12754692 
   17000   -948.48821    44.341732   -904.14648      1588.16    2429.2904    2.1884951    20.026472   0.14353771 
   17100   -948.17811     45.44999   -902.72812    1627.8538    4604.4163    2.1884951    20.192238   0.13905672 
   17200   -950.67516    44.324553   -906.35061    1587.5447    1140.5572    2.1884951    19.712243   0.13891396 
   17300   -950.03499    40.958468   -909.07652    1466.9838    1294.1294    2.1884951    18.621064    0.1315015 
   17400   -946.01423    44.589022   -901.42521    1597.0171    5332.6938    2.1884951    18.402804   0.13110369 
   17500   -950.15191    45.186644   -904.96527    1618.4217    1552.0759    2.1884951     18.36869   0.13944785 
   17600   -950.17771    41.728151   -908.44956     1494.551    342.11993    2.1884951    17.204145   0.14102104 
   17700   -947.15373    43.908796   -903.24494    1572.6538     3941.945    2.1884951     17.39605   0.13564454 
   17800   -950.19533    47.019056   -903.17628    1684.0521     2722.931    2.1884951    19.419999   0.12100855 
   17900   -952.12236    44.342909   -907.77945    1588.2022    687.13269    2.1884951       17.587   0.12794084 
   18000   -949.01855    46.345845    -902.6727    1659.9401    3006.8318    2.1884951    19.384357   0.12880729 
   18100   -948.80237    47.948365     -900.854    1717.3365    4514.3982    2.1884951    15.953228   0.13331408 
   18200   -951.92807    45.106003   -906.82207    1615.5335   -479.61434    2.1884951    19.220376   0.12985713 
   18300   -945.26133    47.328217   -897.93311    1695.1251    4817.9694    2.1884951    19.355287    0.1329215 
   18400   -948.15041    45.629138   -902.52127    1634.2702    3619.9598    2.1884951    17.796495   0.12463727 
   18500   -946.52623    40.315893   -906.21034    1443.9691    4845.1463    2.1884951    17.786744   0.11886942 
   18600   -946.67039    49.584289    -897.0861    1775.9294     7189.444    2.1884951    17.000953   0.11633348 
   18700   -944.61496    43.128984   -901.48598    1544.7238    7191.1587    2.1884951    19.208271   0.13068784 
   18800    -952.1441    46.996903   -905.14719    1683.2586    2548.1807    2.1884951    15.089441   0.10804424 
   18900   -948.15345    45.822504   -902.33094    1641.1959     4969.935    2.1884951     18.33457   0.11060308 
   19000   -946.02098    46.194278    -899.8267    1654.5115    5509.5085    2.1884951    14.896209   0.12704122 
   19100   -948.77076    41.502409   -907.26835    1486.4658    2301.1317    2.1884951    20.353587   0.11354312 
   19200   -949.72466     46.18841   -903.53625    1654.3013    3052.3181    2.1884951    16.264728     0.136587 
   19300   -946.97888    44.242515   -902.73636    1584.6064    4791.9999    2.1884951    18.237138    0.1206685 
   19400   -947.03262    42.976507   -904.05611    1539.2626    3869.9641    2.1884951     18.08515    0.1171809 
   19500   -950.28313    41.462141   -908.82099    1485.0235    2118.0318    2.1884951    17.489386   0.11804734 
   19600   -948.72819    47.034849   -901.69334    1684.6177     3384.621    2.1884951    15.871619   0.12271644 
   19700   -948.62354    46.496468   -902.12707    1665.3349    3037.8234    2.1884951    17.876163   0.12275996 
   19800   -953.12087    40.912739   -912.20813    1465.3459   -2629.4292    2.1884951    18.410247   0.12429018 
   19900   -946.30602    43.306231   -902.99979    1551.0721     5975.722    2.1884951    16.905353   0.12317579 
   20000   -947.10955    45.565146   -901.54441    1631.9783    4520.1458    2.1884951    18.568128   0.11731461 
   20100   -948.22135    40.998738   -907.22261    1468.4261    2358.1204    2.1884951    18.127405   0.13220393 
   20200   -944.72166    42.867933   -901.85373    1535.3739    6119.4854    2.1884951    18.674708   0.12721433 
   20300   -945.67077    44.870556   -900.80021    1607.1006    5866.1348    2.1884951    17.095944   0.12318248 
   20400   -948.48042    42.871536   -905.60888    1535.5029    2391.0965    2.1884951    16.939237   0.13243114 
   20500   -946.49225    43.086934   -903.40532    1543.2177    3927.1752    2.1884951     19.85084   0.14544849 
   20600    -942.0796    48.293125   -893.78647    1729.6846    8056.8405    2.1884951    18.573564   0.16015447 
   20700   -940.12604    41.582417   -898.54362    1489.3314    8723.0185    2.1884951    16.773779   0.14070743 
   20800   -947.29287    42.408042   -904.88483    1518.9023    2216.1038    2.1884951    18.911191   0.12353671 
   20900   -950.11078    44.500634   -905.61014    1593.8513    1412.3266    2.1884951    18.828339   0.12149111 
   21000   -944.79167    46.646939   -898.14473    1670.7242    5364.7573    2.1884951    16.832766   0.12196112 
   21100   -945.37421    41.794429   -903.57979    1496.9249    3537.0263    2.1884951    20.077134    0.1468592 
   21200    -946.7417    42.982043   -903.75965    1539.4609     4180.718    2.1884951    19.669113   0.14393211 
   21300    -947.0098    48.630613   -898.37919    1741.7722    2892.9144    2.1884951    18.380885   0.13630965 
   21400   -941.69274    39.996032   -901.69671    1432.5128    5605.5886    2.1884951    17.850114   0.14062751 
   21500   -951.20979    45.823617   -905.38617    1641.2358   -1364.4099    2.1884951    18.675789   0.12216397 
   21600   -946.38106    48.685486   -897.69558    1743.7375     4173.109    2.1884951    15.360664   0.13956857 
   21700   -946.42256    45.575534   -900.84703    1632.3504    2626.7205    2.1884951    17.491477   0.14260641 
   21800   -951.08037    45.358824   -905.72154    1624.5886   -1031.5922    2.1884951    16.781971   0.13219366 
   21900   -945.65294    45.275814   -900.37713    1621.6155    4752.9142    2.1884951    18.199348    0.1243285 
   22000   -946.20418    43.902532   -902.30165    1572.4295    4871.4376    2.1884951    20.510815    0.1197007 
   22100   -950.75435    43.677906   -907.07645    1564.3842    1001.9444    2.1884951    18.504381   0.12184481 
   22200   -946.77506    46.644134   -900.13092    1670.6237    4662.5332    2.1884951    17.295988    0.1395104 
   22300   -950.13719    47.813738   -902.32345    1712.5147     2820.366    2.1884951    18.672598   0.12434037 
   22400   -951.99776    46.485087   -905.51267    1664.9272    808.55244    2.1884951    18.899393   0.12282277 
   22500   -954.81198     44.69889   -910.11309    1600.9521   -2610.3783    2.1884951    16.374287   0.12062358 
   22600   -946.28554    44.928154   -901.35739    1609.1636    6529.3654    2.1884951    17.462864   0.12972763 
   22700   -951.03515    47.337202   -903.69795    1695.4469    2404.0622    2.1884951     16.35682   0.12687698 
   22800    -951.1472    40.513495   -910.63371    1451.0465    -248.5004    2.1884951    19.262017   0.12163452 
   22900   -950.23832    45.153254   -905.08507    1617.2258    1851.4965    2.1884951    19.097017   0.11580112 
   23000   -947.37701    46.550705    -900.8263    1667.2774    4630.2268    2.1884951    19.626629   0.12061264 
   23100    -946.6635     41.56199   -905.10151    1488.5998    2327.5839    2.1884951    16.214734   0.12704984 
   23200   -950.59248    43.430122   -907.16236    1555.5095    2421.9159    2.1884951    16.844183   0.11285084 
   23300   -947.71086    47.142556   -900.56831    1688.4754     6145.649    2.1884951    16.417412   0.12813648 
   23400   -948.71892    43.457099   -905.26182    1556.4757    3847.7693    2.1884951    19.138506   0.11819877 
   23500   -951.69656     42.19366    -909.5029    1511.2239    2255.2079    2.1884951    16.031644   0.10820987 
   23600   -949.17513    47.960547   -901.21458    1717.7729    4842.0861    2.1884951    17.212324   0.12383159 
   23700   -948.73322    46.009585   -902.72364    1647.8965    3196.2105    2.1884951    18.888555   0.13003449 
   23800   -951.66126    42.622126   -909.03914      1526.57    513.02862    2.1884951    18.203058   0.12541868 
   23900   -949.17842    44.504395   -904.67402     1593.986    2670.0292    2.1884951    20.257791    0.1273087 
   24000      -946.19    45.215318   -900.97468    1619.4487    5397.7699    2.1884951    16.998082   0.11975549 
   24100   -951.84604    47.853787   -903.99226    1713.9491    156.48268    2.1884951    15.929712   0.11792812 
   24200   -947.97577    40.514111   -907.46166    1451.0685    988.08495    2.1884951    17.076232    0.1354892 
   24300   -943.33552    44.338523   -898.99699    1588.0451    6514.2067    2.1884951     19.42184   0.13872856 
   24400   -948.02872    44.247654   -903.78107    1584.7905    2398.7266    2.1884951    17.542335   0.12386848 
   24500   -947.25264    42.574359   -904.67828    1524.8592    3559.8196    2.1884951    18.718265   0.11769251 
   24600   -948.41449    44.806032   -903.60846    1604.7896    3109.1528    2.1884951    17.200566   0.14214389 
   24700   -945.73547    43.112881   -902.62259    1544.1471    4348.1577    2.1884951     15.34552   0.15241817 
   24800   -945.28564    44.980655   -900.30499    1611.0439    5025.7168    2.1884951    5.7397841   0.15935371 
   24900   -951.02759     45.38037   -905.64722    1625.3603    1626.1576    2.1884951    6.6586356   0.14517405 
   25000   -947.82494    42.717947   -905.10699    1530.0019    3707.6614    2.1884951    5.5247731   0.13480795 
   25100   -946.28673    46.947409   -899.33932    1681.4859    5983.3897    2.1884951    6.6160913   0.14283629 
   25200   -945.54005    39.851349   -905.68871    1427.3308    5187.1148    2.1884951    4.6204108   0.14316436 
   25300   -944.84292    46.268724   -898.57419    1657.1779    5943.4612    2.1884951    5.9719865   0.15450042 
   25400   -944.31122     44.13844   -900.17277    1580.8789    7807.3641    2.1884951    5.3160882   0.14175069 
   25500   -953.14033    47.946821   -905.19351    1717.2813    250.86703    2.1884951     5.528793   0.14948769 
   25600   -945.25674    46.896567   -898.36017     1679.665    8283.3408    2.1884951    4.3109443   0.16019606 
   25700   -945.25195    45.675672   -899.57628    1635.9369    7313.4732    2.1884951    4.7535499   0.13741139 
   25800   -948.25202    45.157286   -903.09473    1617.3702    4020.9816    2.1884951    7.2404443   0.14373308 
   25900   -946.00428     43.98908    -902.0152    1575.5293     3604.754    2.1884951    3.7035453   0.15027747 
   26000   -943.26957    45.418365    -897.8512    1626.7211    7242.5769    2.1884951    1.3187482   0.14891124 
   26100   -948.28243    42.197237    -906.0852     1511.352    3063.4247    2.1884951   0.90183147   0.15266403 
   26200   -947.00032    44.945888   -902.05444    1609.7987    3821.6508    2.1884951    0.7046192   0.13488318 
   26300   -945.41162    45.843454   -899.56817    1641.9463    4029.7185    2.1884951   0.31755359   0.12483198 
   26400   -943.28716    38.735625   -904.55154    1387.3696    6138.8619    2.1884951   0.18369464   0.13477007 
   26500   -947.66771    41.288486   -906.37923    1478.8038    1742.2188    2.1884951   0.15327428    0.1280506 
   26600   -943.59025    45.545303   -898.04495    1631.2676    7673.4216    2.1884951   0.12944763   0.11292021 
   26700   -952.79707    48.504151   -904.29291    1737.2428    287.81423    2.1884951   0.48484109   0.11648414 
   26800   -946.67193     42.52087   -904.15106    1522.9434    3948.0992    2.1884951   0.40995131   0.12935934 
   26900   -948.58416    49.415906   -899.16826    1769.8985    4084.8122    2.1884951   0.39813565   0.13130325 
   27000    -946.0605     46.76737   -899.29313    1675.0376    5677.9643    2.1884951   0.10642254   0.13622317 
   27100   -947.13397    42.225295   -904.90867    1512.3569    3002.3166    2.1884951  0.041048566   0.12700317 
   27200    -948.5118    47.464395   -901.04741    1700.0025    3457.1189    2.1884951   0.44277356   0.13027569 
   27300   -946.80789    48.210383    -898.5975    1726.7211    4773.3588    2.1884951   0.17324095   0.12042918 
   27400   -950.33071    44.430493   -905.90021    1591.3391    2503.3929    2.1884951   0.29282471   0.11010961 
   27500   -944.26098    44.226326   -900.03466    1584.0266    6595.3832    2.1884951  0.066507097   0.11932254 
   27600   -946.90071    43.924311    -902.9764    1573.2095     6361.204    2.1884951   0.20504272   0.11735436 
   27700   -950.29707    43.221335   -907.07573    1548.0315     1660.674    2.1884951    0.1569153   0.12361233 
   27800   -945.56951    45.966484   -899.60303    1646.3527    5936.5937    2.1884951   0.71123826   0.12327256 
   27900   -946.63052    44.250712   -902.37981       1584.9    4859.3988    2.1884951   0.17834646   0.12165689 
   28000   -949.38406    44.978167    -904.4059    1610.9548    1763.7943    2.1884951   0.16481147   0.11491597 
   28100   -948.05436    44.422394   -903.63196    1591.0491    4055.8426    2.1884951   0.47740463   0.13203133 
   28200   -947.47548    47.836056   -899.63942     1713.314    3980.2946    2.1884951   0.27798751   0.12980678 
   28300   -949.67826    42.006506   -907.67176    1504.5207    3002.9384    2.1884951   0.32856742   0.12118845 
   28400   -951.47673    47.009024    -904.4677    1683.6928    2401.4987    2.1884951   0.18805272   0.11025363 
   28500   -948.20251    45.427615   -902.77489    1627.0524    5046.3712    2.1884951   0.14373763   0.11003744 
   28600   -947.95738    43.570864   -904.38651    1560.5503    2077.1762    2.1884951   0.15651924   0.12728982 
   28700   -951.66942    43.981872   -907.68755    1575.2711    738.09741    2.1884951   0.34190254   0.10729451 
   28800   -946.31258    46.687179    -899.6254    1672.1654    5733.6468    2.1884951  0.028837358   0.12365746 
   28900   -945.31114    41.881361   -903.42978    1500.0385    4799.6324    2.1884951   0.08928265   0.12681735 
   29000   -949.97482    43.905684   -906.06913    1572.5424    2375.2564    2.1884951   0.20571747    0.1154328 
   29100   -946.19708    44.216049   -901.98103    1583.6585    4546.8939    2.1884951   0.20829278   0.12903495 
   29200   -946.47115    45.698132   -900.77302    1636.7414    4668.6587    2.1884951  0.063018096   0.12628185 
   29300   -954.01852    45.724949   -908.29357    1637.7019   -1776.6966    2.1884951   0.11478862   0.10901773 
   29400   -948.21439    47.425287   -900.78911    1698.6018     3022.703    2.1884951  0.041252876   0.13033746 
   29500    -947.4351    44.971048   -902.46406    1610.6998    2664.9492    2.1884951   0.39712466   0.13091848 
   29600   -949.49598    41.782654   -907.71333    1496.5031    698.71242    2.1884951   0.28698739   0.12434216 
   29700   -950.46832    40.086866   -910.38146    1435.7662    -1150.767    2.1884951   0.17563918   0.12040136 
   29800   -948.24373    46.315478   -901.92825    1658.8525    4295.3231    2.1884951   0.16477428   0.12141338 
   29900   -948.69769    45.339064   -903.35862    1623.8808    3053.5009    2.1884951  0.018342244   0.11722086 
   30000   -951.23367    41.713562    -909.5201    1494.0285    578.14663    2.1884951    0.2682937   0.12336336 
   30100   -941.35135    41.452651    -899.8987    1484.6836    10634.835    2.1884951   0.23682602   0.14049493 
   30200   -949.96272    45.128133   -904.83458    1616.3261    2012.4744    2.1884951  0.049757684   0.12323373 
   30300   -948.70614    41.383613   -907.32253    1482.2109    2914.8079    2.1884951   0.28864367   0.11238338 
   30400   -948.65123    50.020147   -898.63108    1791.5403    3933.1427    2.1884951  0.068413697   0.12237175 
   30500   -952.36263    46.167552   -906.19508    1653.5543    1008.0058    2.1884951   0.18113973    0.1100326 
   30600   -946.72072    41.885325    -904.8354    1500.1804    4572.1236    2.1884951   0.28324781   0.12782875 
   30700   -949.01967    45.812685   -903.20699    1640.8443    3477.5982    2.1884951   0.04861712   0.12877835 
   30800   -951.50528     47.85415   -903.65113    1713.9621    2363.1396    2.1884951   0.22671477    0.1210493 
   30900   -951.03627    44.720476   -906.31579    1601.7253    499.68212    2.1884951   0.10023141   0.13004194 
   31000   -944.61943    43.951913   -900.66752    1574.1981    4954.4103    2.1884951  0.087711843   0.14178698 
   31100   -946.46358    43.890364   -902.57322    1571.9937    3342.9848    2.1884951   0.01964445    0.1371903 
   31200   -953.02162    46.194705   -906.82692    1654.5268   -127.28544    2.1884951   0.22931816   0.13056935 
   31300   -945.36529    44.880739   -900.48455    1607.4653     6089.132    2.1884951  0.063511995   0.13711881 
   31400   -951.20097    41.980381   -909.22059     1503.585   -919.68718    2.1884951   0.27169404   0.13245015 
   31500   -949.05451    43.355873   -905.69864    1552.8501    1986.0807    2.1884951   0.15135744   0.12067047 
   31600   -946.27515    44.908692   -901.36646    1608.4665    4673.4554    2.1884951   0.11873807   0.12333949 
   31700   -949.67429    40.312843   -909.36145    1443.8598   -812.91675    2.1884951   0.21849058    0.1246279 
   31800   -949.39589    42.587602   -906.80829    1525.3334    311.31985    2.1884951   0.15721942   0.14140364 
   31900    -947.9314    45.195897    -902.7355    1618.7531    3396.4258    2.1884951  0.083093997    0.1243846 
   32000    -947.9968    45.187153   -902.80964      1618.44    1890.5946    2.1884951  0.065884962   0.13182224 
   32100   -949.44053    41.240726   -908.19981    1477.0933    848.95386    2.1884951   0.10357838   0.12381808 
   32200   -947.60051    47.528957   -900.07155    1702.3149    4057.6538    2.1884951  0.017384925    0.1320309 
   32300   -946.17449    43.433767   -902.74073      1555.64    5092.4539    2.1884951   0.17174447   0.14405945 
   32400   -948.90985    43.760098   -905.14975     1567.328    2880.4256    2.1884951   0.10837263   0.13030165 
   32500    -948.9796    45.620174   -903.35943    1633.9492    2466.2624    2.1884951    0.1085251   0.14510799 
   32600   -947.70723    46.878256   -900.82897    1679.0091    4305.1633    2.1884951   0.29104785    0.1470488 
   32700    -946.7637    43.555723   -903.20797     1560.008    3946.1151    2.1884951   0.14241451   0.12697504 
   32800   -951.42388    43.871302   -907.55257    1571.3109    1026.8671    2.1884951   0.14134807   0.11987248 
   32900   -947.41512    49.280704   -898.13441    1765.0561    4932.9844    2.1884951  0.055441749   0.13096444 
   33000   -946.51107     42.25837    -904.2527    1513.5415    4391.1815    2.1884951  0.013661063   0.12690783 
   33100   -949.63023    44.513823    -905.1164    1594.3237    1574.0012    2.1884951   0.11934067   0.13367902 
   33200   -947.63694    44.435656   -903.20128    1591.5241    3291.2692    2.1884951     0.277293   0.13785106 
   33300   -949.37134    45.688913   -903.68243    1636.4112      1657.92    2.1884951  0.022062604   0.12150366 
   33400   -954.45803    49.714349   -904.74368    1780.5877   -1525.5628    2.1884951   0.23509998   0.11232182 
   33500   -945.56732    44.203606   -901.36372    1583.2128    5907.7037    2.1884951   0.35031516   0.13362978 
   33600   -945.29515    45.315451    -899.9797    1623.0351    4659.1472    2.1884951  0.091411695   0.14133966 
   33700   -950.61874    42.945922   -907.67282    1538.1672    1350.0954    2.1884951   0.36183756   0.13692416 
   33800   -949.00222    47.848629   -901.15359    1713.7644     4017.296    2.1884951   0.33936848    0.1116494 
   33900   -947.04907     46.22736   -900.82171    1655.6964    6089.8108    2.1884951  0.063408165   0.11418454 
   34000   -949.16679     43.60633   -905.56046    1561.8206    3625.4081    2.1884951   0.15644601   0.12208976 
   34100   -949.64019    43.668822   -905.97136    1564.0588    2086.7806    2.1884951  0.079479446   0.11131948 
   34200   -947.42096    48.574564    -898.8464    1739.7647    5976.9811    2.1884951   0.11506574   0.11706049 
   34300   -948.09537    41.147206   -906.94817    1473.7437    3312.5614    2.1884951    0.1472266   0.11860178 
   34400   -949.33849    44.593904   -904.74458    1597.1919     2493.697    2.1884951  0.087445498    0.1257365 
   34500   -948.15317    47.962758   -900.19042     1717.852    4662.0974    2.1884951   0.10189541   0.12090145 
   34600   -942.10856    43.983518   -898.12504    1575.3301    9382.5334    2.1884951    0.2069503   0.11866776 
   34700   -951.74551    45.267212   -906.47829    1621.3074    893.66815    2.1884951   0.22649517    0.1077484 
   34800   -943.89033    43.514646   -900.37568    1558.5368    8117.0902    2.1884951  0.043823623   0.13046652 
   34900    -942.3299    43.246715   -899.08319    1548.9405    8182.0119    2.1884951  0.024509616   0.12939052 
   35000   -948.29828    44.639608   -903.65868    1598.8289    2361.4541    2.1884951   0.50919594   0.12391254 
   35100   -948.68395    41.896944   -906.78701    1500.5966    2609.4634    2.1884951   0.24863597   0.12500965 
   35200   -944.97767    45.102679     -899.875    1615.4144    4946.9471    2.1884951   0.76056468   0.11784345 
   35300   -945.22219    42.102386    -903.1198    1507.9548     5742.532    2.1884951   0.14765244   0.12813009 
   35400   -951.24688    44.652217   -906.59466    1599.2805    586.52285    2.1884951  0.078238328   0.13519429 
   35500   -949.33142    47.973872   -901.35755    1718.2501    3499.1268    2.1884951  0.075145296   0.13419234 
   35600     -949.658    45.618236   -904.03976    1633.8798    1988.4705    2.1884951  0.088499631   0.12252691 
   35700   -950.91145    43.096598   -907.81485    1543.5639   -174.27883    2.1884951   0.43332164   0.12502445 
   35800   -945.57487    45.368736   -900.20614    1624.9436    4874.1772    2.1884951   0.47157481    0.1212431 
   35900   -947.27184    43.677732    -903.5941     1564.378    3869.0382    2.1884951  0.043293103   0.13567659 
   36000   -948.62606    44.122752   -904.50331     1580.317    3397.7851    2.1884951  0.093672258   0.13137875 
   36100    -947.3665    44.525645   -902.84085    1594.7471    4761.4529    2.1884951   0.44920792   0.12452571 
   36200   -947.58249    48.944768   -898.63772    1753.0241    4520.3815    2.1884951   0.31892968   0.14167074 
   36300   -951.24808     44.89068    -906.3574    1607.8214    952.93028    2.1884951   0.11163899   0.13171244 
   36400    -951.0009    46.026739   -904.97416    1648.5109    1183.8306    2.1884951   0.19532742   0.13880032 
   36500   -945.87511     49.01229   -896.86282    1755.4425    6555.2026    2.1884951   0.21560608   0.12223484 
   36600   -946.28737    42.030519   -904.25685    1505.3808    4707.3797    2.1884951   0.20486052   0.12240033 
   36700   -947.15451    40.285418   -906.86909    1442.8776    2504.7063    2.1884951  0.092574941   0.12529705 
   36800   -941.62731    42.115878   -899.51143     1508.438     8703.051    2.1884951   0.26006356   0.14782887 
   36900   -949.90827    42.652648   -907.25563    1527.6632    481.50681    2.1884951   0.29392345   0.14120845 
   37000   -947.37822    40.467652   -906.91056    1449.4045    3680.4001    2.1884951    0.1994774   0.12117192 
   37100    -943.9114    43.584299    -900.3271    1561.0315    7036.6479    2.1884951  0.066329843   0.12882455 
   37200    -951.3844    43.554653   -907.82974    1559.9697    817.11216    2.1884951  0.078671242   0.12511636 
   37300   -947.59978    41.261935   -906.33784    1477.8529    2080.4056    2.1884951   0.26398149   0.14968735 
   37400   -950.18718    47.835108   -902.35207    1713.2801    151.06105    2.1884951   0.26794217   0.14365696 
   37500   -946.29106    41.382024   -904.90904     1482.154    3307.3381    2.1884951    0.1024057   0.13194079 
   37600   -950.03268    39.471046   -910.56164    1413.7097     387.9636    2.1884951  0.092760246   0.11699613 
   37700    -949.7466    46.516506   -903.23009    1666.0526    1121.3065    2.1884951   0.32453781    0.1237487 
   37800    -946.4254     44.22344   -902.20196    1583.9232    2852.1131    2.1884951   0.20541897   0.13886629 
   37900   -950.80609    42.201843   -908.60425     1511.517    229.16738    2.1884951  0.072181675   0.13049007 
   38000   -947.50942     45.69712    -901.8123    1636.7051    4274.3752    2.1884951   0.13598306   0.12638233 
   38100   -947.75888    46.114166   -901.64471    1651.6422    4097.7139    2.1884951   0.12393563   0.11625826 
   38200   -952.75763    44.123006   -908.63462    1580.3261   -1530.3449    2.1884951  0.098157053   0.13534665 
   38300   -951.69594    38.581908   -913.11403     1381.864   -2225.1219    2.1884951  0.081409137   0.13515051 
   38400   -948.31987    45.089299   -903.23057    1614.9352    1558.8348    2.1884951   0.20766423   0.14115744 
   38500   -948.46326     48.06576    -900.3975    1721.5412    2675.9734    2.1884951  0.071596808   0.13787331 
   38600    -949.0522    40.361901    -908.6903    1445.6169   -310.13912    2.1884951  0.068979011    0.1211949 
   38700   -949.23809    46.104494    -903.1336    1651.2958    2248.0278    2.1884951   0.21263892   0.13136818 
   38800   -949.50897     47.00341   -902.50556    1683.4917    1640.4756    2.1884951   0.05385494   0.13231027 
   38900   -949.30727    42.337289   -906.96998    1516.3681    1579.9702    2.1884951   0.39900923   0.13653913 
   39000   -951.95728    45.131971   -906.82531    1616.4635    11.914277    2.1884951  0.097671031   0.12999976 
   39100   -947.27575    47.448637   -899.82711    1699.4381     2620.517    2.1884951   0.16384569   0.11663199 
   39200   -947.98322    40.642585   -907.34063      1455.67    1368.5012    2.1884951  0.037320513   0.12657008 
   39300   -950.43826    43.916576   -906.52169    1572.9325    -137.8699    2.1884951   0.03235448   0.13447406 
   39400   -947.02585    43.927637   -903.09821    1573.3287    2097.6006    2.1884951  0.067569722   0.15431815 
   39500   -943.52446     43.23225   -900.29221    1548.4224    5062.2032    2.1884951   0.17632035   0.14721995 
   39600   -948.63943    40.455382   -908.18405    1448.9651    2167.1627    2.1884951   0.16190385   0.13175821 
   39700    -950.1242     47.38648   -902.73772    1697.2119     1199.324    2.1884951  0.099516081   0.12962961 
   39800   -945.21244    43.442369   -901.77007    1555.9481    4338.9979    2.1884951  0.054926223   0.12959894 
   39900   -947.90181    40.779201   -907.12261    1460.5631    2680.3647    2.1884951  0.064832282   0.12208305 
   40000   -947.25215    41.022552    -906.2296     1469.279    749.16764    2.1884951   0.12497424   0.13007495 
   40100    -947.0557    47.404543   -899.65116    1697.8588    3715.2632    2.1884951  0.052342378   0.12900745 
   40200   -951.54129    43.777402   -907.76389    1567.9478   -601.78433    2.1884951   0.10160462   0.12064445 
   40300   -951.74828     45.71237   -906.03591    1637.2513     136.8254    2.1884951  0.042278841   0.13613162 
   40400   -946.92078    45.035969   -901.88481    1613.0251    3297.2931    2.1884951  0.075221521   0.14002601 
   40500   -945.86454    44.893561   -900.97098    1607.9246    3746.0282    2.1884951  0.077681837   0.14478328 
   40600   -950.73967    43.538099   -907.20157    1559.3768    886.73262    2.1884951   0.12810561   0.11631589 
   40700   -948.51782    47.038497   -901.47932    1684.7484    3492.3033    2.1884951   0.27594854   0.13262622 
   40800   -946.94847    46.361769    -900.5867    1660.5104    4431.8442    2.1884951   0.15835468   0.12587845 
   40900   -946.19405    41.637494   -904.55656     1491.304    3775.3103    2.1884951  0.049082501     0.126073 
   41000   -947.19425    43.655833   -903.53842    1563.5936     1802.948    2.1884951  0.061889616   0.13517604 
   41100   -945.69356    45.288352    -900.4052    1622.0645    5686.7509    2.1884951   0.10861621   0.12027809 
   41200   -943.83547    44.026625   -899.80884    1576.8741    6852.2752    2.1884951   0.17513272   0.13064873 
   41300   -950.00112    43.470485   -906.53063    1556.9551   -32.902962    2.1884951   0.27154038   0.13399073 
   41400   -942.66913    44.016609   -898.65252    1576.5153     6904.476    2.1884951  0.096327521   0.15056796 
   41500    -946.6498    48.558792   -898.09101    1739.1998    5995.7847    2.1884951   0.14196463   0.14587024 
   41600   -948.05482    43.134362   -904.92046    1544.9164      3000.41    2.1884951  0.056652662   0.13047157 
   41700   -950.71585    46.031923   -904.68393    1648.6965    2005.9188    2.1884951   0.12797436   0.12286722 
   41800   -943.57293    45.620274   -897.95265    1633.9528    7578.7642    2.1884951  0.077615929   0.12347063 
   41900   -948.15514    43.352384   -904.80275    1552.7252    2746.5659    2.1884951    0.1149138    0.1242413 
   42000   -948.01796     44.28485   -903.73311    1586.1227    3525.6732    2.1884951   0.23172924   0.12870461 
   42100   -940.16068    46.091444   -894.06923    1650.8284    13191.778    2.1884951   0.31493406    0.1334244 
   42200   -947.22284    45.444853   -901.77799    1627.6698    3402.1818    2.1884951  0.081752919   0.12010552 
   42300   -947.62738    42.640963   -904.98642    1527.2446    3929.9093    2.1884951   0.45052851   0.11963857 
   42400   -945.53716    42.575988   -902.96117    1524.9175    5113.4166    2.1884951  0.049627646     0.137284 
   42500   -947.50311     48.66207   -898.84104    1742.8989    3532.0321    2.1884951   0.13648527    0.1439367 
   42600   -951.86413    44.523038   -907.34109    1594.6538    198.21676    2.1884951   0.17265898   0.12292641 
   42700   -948.03235    45.682329   -902.35002    1636.1754    2908.3916    2.1884951   0.35306707   0.12624075 
   42800   -948.36609    46.655966   -901.71012    1671.0475    3615.6003    2.1884951   0.16924012   0.12841103 
   42900    -950.3059    41.397688   -908.90821    1482.7151    368.07159    2.1884951  0.031436438   0.12882283 
   43000   -946.20654    45.311764   -900.89477    1622.9031    4434.2525    2.1884951    0.4345164   0.14359828 
   43100   -947.08842    42.669279   -904.41914    1528.2588     3190.154    2.1884951   0.07525529   0.12799239 
   43200   -948.98777    39.159757   -909.82801    1402.5605    277.91183    2.1884951  0.079669454   0.11951859 
   43300    -949.4644    46.118245   -903.34615    1651.7883    1672.6252    2.1884951  0.091797749   0.12541607 
   43400   -946.29881    45.240784   -901.05803    1620.3608    4228.6817    2.1884951   0.48617043   0.13379477 
   43500   -945.93482    36.462125    -909.4727    1305.9411    1675.6899    2.1884951  0.040737542   0.14880037 
   43600   -946.92775    44.695887   -902.23187    1600.8446    2555.9644    2.1884951   0.19738014    0.1610259 
   43700   -948.20385    45.859811   -902.34404    1642.5321    622.05115    2.1884951  0.055370247   0.13631759 
   43800   -952.06257    41.348453   -910.71411    1480.9516   -3175.7367    2.1884951   0.37425254   0.13705443 
   43900   -949.05052    44.501573   -904.54894    1593.8849    877.42176    2.1884951  0.055005275   0.12743937 
   44000   -946.77258    44.707987   -902.06459     1601.278    2522.3829    2.1884951    0.3000258   0.13691275 
   44100   -944.44115    40.588331   -903.85282    1453.7268    3674.0963    2.1884951   0.30869019   0.16353117 
   44200   -949.94022    41.081552   -908.85867    1471.3922    588.59534    2.1884951    0.1173607    0.1273832 
   44300   -948.84873    49.223717   -899.62501     1763.015    3231.9046    2.1884951   0.25477431   0.12299532 
   44400   -945.99936    41.627006   -904.37235    1490.9284    4322.4879    2.1884951   0.48474437   0.14205377 
   44500   -952.05515    45.413734   -906.64141    1626.5552   -1012.5599    2.1884951   0.21037801   0.12825103 
   44600   -947.90539    49.854158   -898.05123    1785.5952    4084.7201    2.1884951   0.19003989   0.15020892 
   44700   -948.87817    42.789549   -906.08862    1532.5665    1282.8478    2.1884951   0.50069524   0.14355693 
   44800   -947.97891    46.202971   -901.77594    1654.8229    3354.0632    2.1884951   0.28790316   0.13371878 
   44900   -947.96815    49.837883   -898.13027    1785.0122    5723.8402    2.1884951  0.076313405   0.13378266 
   45000   -950.73298    46.328226   -904.40475     1659.309    1547.5345    2.1884951   0.14328474   0.12869968 
   45100   -946.70599    42.257214   -904.44877    1513.5002    2363.2971    2.1884951  0.035198957   0.12957664 
   45200   -947.08642    49.784764   -897.30166    1783.1097    5835.1493    2.1884951   0.15774857     0.131425 
   45300   -948.79833    43.551206   -905.24713    1559.8463    3858.2093    2.1884951   0.14554585   0.12219281 
   45400   -946.50305    43.118519   -903.38453     1544.349    2543.6756    2.1884951   0.21088099   0.14737136 
   45500   -942.79184    48.470491   -894.32134    1736.0372    8612.7579    2.1884951   0.32228961   0.15773845 
   45600   -947.55116    42.860312   -904.69085     1535.101    3605.7357    2.1884951  0.090386897   0.13140162 
   45700   -946.23744    41.960618   -904.27682    1502.8772    3906.4297    2.1884951   0.14938453   0.13768833 
   45800    -946.7976    48.347867   -898.44973    1731.6453    5494.1386    2.1884951   0.19141738   0.13507275 
   45900   -955.66653    49.274671   -906.39186      1764.84   -1945.8742    2.1884951  0.038861005   0.12686706 
   46000   -951.09013    46.064062   -905.02607    1649.8476    1604.4408    2.1884951    0.1308674   0.12588201 
   46100   -943.18009    43.859612   -899.32048    1570.8922      7696.79    2.1884951  0.026020454   0.13195045 
   46200   -947.47092    44.812835   -902.65809    1605.0332    3831.5745    2.1884951   0.12027621   0.12501557 
   46300   -950.74575    44.223627   -906.52212    1583.9299    955.73346    2.1884951   0.24145797   0.13153454 
   46400   -943.10227    39.983206   -903.11907    1432.0534    6758.4948    2.1884951   0.27639606   0.13003474 
   46500   -944.10645    44.292309   -899.81414    1586.3899    7886.0616    2.1884951  0.031023902   0.13671762 
   46600    -952.8067    45.599106    -907.2076    1633.1946   -1396.3303    2.1884951  0.079952848   0.13697345 
   46700   -948.48895    45.358408   -903.13054    1624.5737    2422.7396    2.1884951  0.074940148   0.13776295 
   46800   -945.57219    46.693373   -898.87882    1672.3873    6048.8515    2.1884951  0.035057562   0.14394431 
   46900   -949.28936    45.346623   -903.94274    1624.1516    1781.2715    2.1884951  0.071431266   0.12356504 
   47000   -948.03116    41.644764    -906.3864    1491.5644     3776.841    2.1884951  0.017932327   0.12127263 
   47100   -944.09308    46.154823   -897.93826    1653.0984    6175.7668    2.1884951    0.3392595   0.13072872 
   47200   -947.34733     44.42607   -902.92126    1591.1807    2192.9334    2.1884951  0.034192408   0.13703478 
   47300   -947.67588    42.676662   -904.99922    1528.5232    1348.3759    2.1884951   0.28323272   0.12542339 
   47400   -943.40476    47.618756   -895.78601    1705.5311    5237.7149    2.1884951  0.054680535   0.13472414 
   47500   -945.26989    41.457976   -903.81191    1484.8744    2955.6041    2.1884951   0.31123576   0.13670706 
   47600   -947.90895    43.342804   -904.56615    1552.3821    1957.8949    2.1884951  0.016464325   0.12739478 
   47700   -946.16806    51.131413   -895.03664    1831.3418    5010.1776    2.1884951  0.086123365    0.1450643 
   47800   -946.29871    44.489984   -901.80873    1593.4699    3036.6339    2.1884951  0.077000749   0.14831988 
   47900   -946.47313    41.791093   -904.68204    1496.8054    3390.2055    2.1884951     0.440812    0.1333819 
   48000   -949.21528    44.957099   -904.25818    1610.2002    2858.4841    2.1884951  0.079151923    0.1332761 
   48100   -945.57242    47.395394   -898.17702    1697.5311    7501.0819    2.1884951    0.1375835   0.13947187 
   48200   -948.28456    41.031049   -907.25351    1469.5834    2231.7157    2.1884951  0.043319519   0.11292325 
   48300   -950.01452    46.417254   -903.59727    1662.4977    2124.5232    2.1884951    0.7540625    0.1275075 
   48400   -947.44968    46.519173   -900.93051    1666.1481    4068.7801    2.1884951   0.36205646   0.12130434 
   48500   -950.39569    39.306268   -911.08942     1407.808    816.31778    2.1884951   0.23481462   0.12292441 
   48600   -944.58674    42.258451   -902.32828    1513.5445    4633.6013    2.1884951   0.18308364   0.13538567 
   48700   -947.95343      45.9047   -902.04873    1644.1399    3320.0238    2.1884951   0.17317026   0.12091502 
   48800   -951.84386    42.099821   -909.74404    1507.8629    504.57949    2.1884951   0.17711231   0.12438716 
   48900   -946.33444     41.78141   -904.55303    1496.4586    4407.4233    2.1884951   0.20785735   0.13883662 
   49000   -947.55806    45.225973   -902.33209    1619.8303    4474.5927    2.1884951   0.26430498   0.13524424 
   49100    -945.7188    44.467946   -901.25085    1592.6806     3876.255    2.1884951    0.1310056   0.12574675 
   49200   -950.24656    43.351933   -906.89463     1552.709    218.43468    2.1884951   0.46468517   0.13027472 
   49300   -948.58076    45.696067   -902.88469    1636.6674      2136.02    2.1884951   0.16655426   0.12001818 
   49400   -946.39088    45.987765   -900.40312     1647.115    4432.0803    2.1884951     0.214118   0.13168017 
   49500   -947.09486     41.12825   -905.96661    1473.0648    2758.2171    2.1884951   0.18724789   0.13137907 
   49600   -953.42819    49.040661   -904.38753    1756.4586   -2093.9941    2.1884951  0.025963139   0.11835423 
   49700   -950.04236    49.674849   -900.36751    1779.1729    3461.4875    2.1884951  0.062105152   0.11682667 
   49800   -944.83178    47.839463   -896.99232    1713.4361    6959.2457    2.1884951    0.3238692   0.14543094 
   49900   -949.03379    43.522995   -905.51079    1558.8358    1240.7852    2.1884951   0.26148357   0.13581426 
   50000   -949.90086    48.339698   -901.56117    1731.3527    1368.6104    2.1884951   0.20149323   0.13949016 
   50100   -943.70259     45.71475   -897.98784    1637.3366    6741.4717    2.1884951   0.27534228   0.12875867 
   50200   -948.32129       42.931   -905.39029    1537.6327    2689.7078    2.1884951   0.15701064   0.11693528 
   50300   -943.15509    42.663288   -900.49181    1528.0443    6331.9403    2.1884951   0.27694657   0.14323361 
   50400   -945.99911    43.071451   -902.92766    1542.6632    4033.0772    2.1884951  0.082954647   0.11291723 
   50500   -949.59374     42.42096   -907.17278    1519.3649    1250.4423    2.1884951   0.22438157   0.11854748 
   50600   -947.42252     47.35432    -900.0682      1696.06    6037.1936    2.1884951   0.30242286   0.12694773 
   50700   -951.91226    49.017251   -902.89501    1755.6202      922.076    2.1884951   0.16800806    0.1148211 
   50800     -949.271    42.211432   -907.05957    1511.8604    2159.0003    2.1884951   0.32986089   0.13513061 
   50900   -950.24193    40.523921   -909.71801    1451.4199    546.44924    2.1884951   0.39453822   0.12669981 
   51000   -947.02558    45.624492   -901.40109    1634.1038    5248.0987    2.1884951   0.35816686   0.12704049 
   51100   -950.50443    45.724518   -904.77991    1637.6864    1522.6501    2.1884951   0.24637178   0.12627117 
   51200   -951.12056    42.047363    -909.0732    1505.9841    740.77595    2.1884951   0.27232664   0.11904816 
   51300   -946.00259     42.02579    -903.9768    1505.2114    4437.3978    2.1884951   0.12621386    0.1271645 
   51400   -945.36936    44.119508   -901.24985    1580.2008    5099.1907    2.1884951   0.28238966   0.12770348 
   51500   -950.90451    47.456574   -903.44794    1699.7224    970.82607    2.1884951  0.079611075   0.10976604 
   51600    -951.7292    43.869515   -907.85968    1571.2469   -493.93063    2.1884951   0.05900002   0.12029374 
   51700   -947.90445    49.034453   -898.86999    1756.2363    4573.6512    2.1884951   0.11964068   0.14512884 
   51800   -948.52822    44.028928    -904.4993    1576.9565    3167.3886    2.1884951  0.044438009   0.13414118 
   51900    -948.5241    43.287158   -905.23694     1550.389    3381.6959    2.1884951   0.18751709   0.13719947 
   52000   -945.16871    50.797114    -894.3716    1819.3684    7305.3345    2.1884951   0.11111378   0.13413765 
   52100   -944.55659    40.331126   -904.22547    1444.5147    4764.0499    2.1884951   0.10288441    0.1348743 
   52200   -947.40123    42.183137   -905.21809     1510.847    4171.1791    2.1884951   0.18757259   0.12505747 
   52300   -944.84364    47.803786   -897.03986    1712.1582    4963.9498    2.1884951   0.22020662   0.13268845 
   52400   -950.45774    47.284747   -903.17299    1693.5682    2123.3053    2.1884951   0.23226748   0.13378392 
   52500   -947.53501     43.46615   -904.06887    1556.7998    4727.5872    2.1884951   0.12260422   0.12185819 
   52600   -945.43993    41.614972   -903.82496    1490.4974    5534.8388    2.1884951  0.025715969   0.12059097 
   52700   -943.91919     42.94599    -900.9732    1538.1696    5978.5304    2.1884951   0.11818672   0.14278331 
   52800    -952.6539    46.323657   -906.33024    1659.1454    474.57903    2.1884951   0.23456399   0.13068779 
   52900   -953.23093    47.529717   -905.70121    1702.3421   -170.37807    2.1884951  0.091084448   0.13814291 
   53000   -944.13692    44.332215    -899.8047    1587.8192    7668.5967    2.1884951   0.25358231   0.13107147 
   53100   -949.97655     43.58718   -906.38937    1561.1347    1314.4323    2.1884951   0.13365272   0.12524282 
   53200   -945.05337    46.208222   -898.84515    1655.0109    6287.0819    2.1884951    0.1474789   0.13140189 
   53300   -949.49961    49.257953   -900.24165    1764.2412    2025.6191    2.1884951 0.0066009569   0.11246926 
   53400   -948.97832    43.345118    -905.6332    1552.4649    864.36905    2.1884951  0.091267515   0.13223976 
   53500   -946.45845     48.48634   -897.97211    1736.6049    4446.8523    2.1884951  0.095750524   0.13733427 
   53600   -947.00247    46.659274   -900.34319     1671.166    5684.5526    2.1884951    0.1339926   0.12914254 
   53700   -951.03404    46.834674   -904.19936    1677.4482    1549.8061    2.1884951  0.097300068   0.12537484 
   53800   -949.57311     44.87666   -904.69645    1607.3192    2337.0869    2.1884951   0.18111194   0.12925692 
   53900   -945.55061    45.739232   -899.81138    1638.2134    7181.3161    2.1884951   0.35142857   0.12641036 
   54000   -948.26951    42.379764   -905.88975    1517.8894    3127.8453    2.1884951   0.23767437   0.11881273 
   54100   -949.45306    43.186073   -906.26698    1546.7685    1285.3888    2.1884951   0.17493573   0.12351919 
   54200   -951.27974    48.370012   -902.90972    1732.4384     293.2695    2.1884951  0.072239924   0.14067665 
   54300   -952.01637    47.825984   -904.19039    1712.9533    85.495936    2.1884951  0.065585482   0.13136177 
   54400   -951.05536    41.318694   -909.73667    1479.8858   -1270.4018    2.1884951   0.16754049   0.12106169 
   54500   -948.10201    46.373736   -901.72827     1660.939    2887.6137    2.1884951   0.15803279   0.12509719 
   54600    -950.7694    48.023691   -902.74571    1720.0345    2478.6664    2.1884951   0.17211661   0.12724944 
   54700   -952.19723     40.84701   -911.35022    1462.9918    1214.7416    2.1884951   0.20489611   0.12849158 
   54800   -946.98227    43.912095   -903.07017     1572.772    4435.8938    2.1884951   0.54405098   0.13071315 
   54900   -945.93522    44.717278   -901.21795    1601.6107    6831.8031    2.1884951   0.23318677   0.12537385 
   55000    -955.8254    47.505649   -908.31975    1701.4801   -951.47268    2.1884951  0.050510474   0.10369643 
   55100   -944.70509    45.529869   -899.17522    1630.7148    7007.7944    2.1884951   0.23108518   0.12953046 
   55200   -947.01742    43.492231   -903.52518     1557.734    4220.3793    2.1884951  0.093783478   0.13600894 
   55300   -951.67283    45.693894   -905.97894    1636.5896    1356.9992    2.1884951   0.48370139   0.12481933 
   55400   -944.81494    50.055335   -894.75961    1792.8006    9594.0466    2.1884951   0.19869788   0.12363358 
   55500   -947.22731    44.821907    -902.4054    1605.3582    3505.6928    2.1884951   0.11217443   0.12712959 
   55600   -949.58036    43.437077   -906.14328    1555.7586    3086.0136    2.1884951   0.12298936   0.12513668 
   55700   -944.61041    47.509697   -897.10071     1701.625    7740.8338    2.1884951   0.30257617    0.1304182 
   55800   -943.25302    40.863517    -902.3895     1463.583    7190.2521    2.1884951  0.056733465   0.12433386 
   55900   -945.88816    42.403252   -903.48491    1518.7307    5651.9845    2.1884951   0.36451622   0.11873381 
   56000    -946.5738    49.663488   -896.91031     1778.766    7443.7456    2.1884951   0.91194003   0.13608088 
   56100   -946.37846    45.414982   -900.96348       1626.6    6046.6375    2.1884951   0.96368115   0.13196432 
   56200   -947.50995     44.04805    -903.4619    1577.6414     4766.319    2.1884951   0.56421759   0.13750288 
   56300   -943.27224    45.588322   -897.68392    1632.8084    8525.0513    2.1884951    4.5212866   0.16966661 
   56400   -948.45014    47.277216   -901.17293    1693.2984    4409.0669    2.1884951    3.4335309   0.14456171 
   56500   -946.76879     41.80262   -904.96617    1497.2182    2871.9297    2.1884951    3.1783451   0.14171578 
   56600   -943.89611    47.043592   -896.85252    1684.9309    7549.8837    2.1884951    4.7644512   0.14790939 
   56700   -949.56935    45.134801   -904.43455    1616.5649    1011.3816    2.1884951    4.2921804   0.15616867 
   56800   -945.10218    41.181638   -903.92054    1474.9769    3601.6384    2.1884951    5.4646102   0.15085402 
   56900   -945.10111    47.722419   -897.37869     1709.244    8137.4647    2.1884951    4.7159659   0.14963877 
   57000   -951.32409    44.843306   -906.48078    1606.1246    1397.2823    2.1884951    5.2232026   0.13861712 
   57100   -946.32123    43.625861   -902.69537    1562.5201    3762.2881    2.1884951    6.0407747    0.1502183 
   57200   -945.05118    46.217618   -898.83356    1655.3475    8816.1158    2.1884951    5.7333926   0.16395037 
   57300   -948.67167    40.236789   -908.43489    1441.1358     2522.708    2.1884951    4.9498468   0.13697039 
   57400   -947.02926    45.483983   -901.54528    1629.0713    5258.2523    2.1884951    4.6252535   0.15468889 
   57500   -947.32742    46.683331   -900.64409    1672.0276    5191.1058    2.1884951    4.3091183   0.14899176 
   57600   -948.85938     40.80331   -908.05607    1461.4266    2488.4441    2.1884951    9.4100214    0.1210378 
   57700   -945.64109    42.152867   -903.48822    1509.7628    5924.3025    2.1884951    12.161819   0.13146322 
   57800   -944.92118    44.209578    -900.7116    1583.4268    7945.8551    2.1884951     9.667593   0.12999567 
   57900   -950.02006    48.833239   -901.18682    1749.0295    5817.2924    2.1884951    10.563276   0.13220292 
   58000   -949.70862    42.783775   -906.92485    1532.3597    2553.6306    2.1884951    10.957099   0.13140297 
   58100   -945.14018    46.996813   -898.14337    1683.2554    7045.9001    2.1884951    8.2399006   0.14793866 
   58200   -946.08432    44.588949   -901.49537    1597.0144    5002.1356    2.1884951    12.889159   0.12894269 
   58300   -950.59336     46.50553   -904.08783    1665.6594    3476.5147    2.1884951    6.5488648   0.13343953 
   58400   -948.46053    45.215037   -903.24549    1619.4387    3087.6105    2.1884951    4.0487483   0.14893536 
   58500   -946.66712    45.038388   -901.62873    1613.1117     4656.847    2.1884951    2.3020137   0.14553784 
   58600   -946.18231    44.927221   -901.25509    1609.1301     4534.465    2.1884951    5.5452527   0.14042948 
   58700   -949.18907    41.976472    -907.2126     1503.445    3447.1015    2.1884951    2.2856454   0.14187756 
   58800   -946.97253    46.976143   -899.99639    1682.5151    5964.9768    2.1884951    2.4352802   0.14142522 
   58900   -947.07195    46.248767   -900.82319    1656.4631    7620.4208    2.1884951     4.332138   0.14172896 
   59000   -950.71091     45.72761    -904.9833    1637.7972    3804.8636    2.1884951    5.2195529   0.14496063 
   59100   -946.53573    43.572254   -902.96348    1560.6001    3490.0144    2.1884951    3.8303018   0.13722411 
   59200   -941.29863     42.15058   -899.14805    1509.6809    8037.8538    2.1884951    6.4236232   0.15345341 
   59300   -943.71077    42.641642   -901.06913     1527.269    7950.6794    2.1884951    5.1582471   0.15992067 
   59400    -949.1923    43.126784   -906.06552     1544.645    883.94809    2.1884951     6.287767   0.14321038 
   59500   -944.05238    47.676139   -896.37624    1707.5864    8354.5211    2.1884951    3.5960439   0.16091863 
   59600   -947.50112    46.691497   -900.80962    1672.3201    2994.9453    2.1884951    4.0056694   0.14207012 
   59700   -946.71248    42.692757   -904.01972    1529.0997    5136.1113    2.1884951    3.6463729   0.14605089 
   59800   -942.27889    45.182672   -897.09622    1618.2794    7779.6986    2.1884951     4.045918    0.1736715 
   59900   -947.23763     47.37592   -899.86171    1696.8336    4130.7514    2.1884951     5.913953   0.14625249 
   60000   -950.02833    46.196853   -903.83148    1654.6037    1584.5673    2.1884951    3.1119219   0.14452617 
   60100   -948.23193    46.492422    -901.7395      1665.19    3308.5716    2.1884951    4.7234515   0.14420061 
   60200   -943.99199    46.197819   -897.79417    1654.6383    6974.6727    2.1884951    6.0751256   0.13790486 
   60300   -950.34331    44.176826   -906.16649    1582.2537    1387.2529    2.1884951    4.3527634   0.13419779 
   60400   -948.37448    46.165401   -902.20908    1653.4772    3165.8778    2.1884951    6.4124373   0.13165697 
   60500    -943.6074    52.677518   -890.92988    1886.7177     11277.42    2.1884951    2.7558738   0.16357768 
   60600   -945.36722    46.696001   -898.67122    1672.4814    9440.3039    2.1884951    5.7843565   0.13550494 
   60700   -947.06229    41.648417   -905.41388    1491.6952    3703.6841    2.1884951    6.3734433     0.149965 
   60800   -946.27438    45.201172    -901.0732    1618.9421    5979.3017    2.1884951    3.6572307   0.16284613 
   60900   -944.20913    45.180915   -899.02822    1618.2165    8206.8896    2.1884951    1.5957925   0.14577848 
   61000   -947.91544     44.88224    -903.0332    1607.5191    5033.9958    2.1884951    7.8933709   0.13404701 
   61100   -944.97194    43.214215   -901.75773    1547.7765    6301.0391    2.1884951    4.4369394   0.13730728 
   61200   -942.32973    46.078752   -896.25097    1650.3738    10480.916    2.1884951    3.6044932   0.14964042 
   61300   -948.08224    42.578994   -905.50325    1525.0252    3951.4777    2.1884951    4.1582998   0.14830901 
   61400   -946.33291    44.712173   -901.62074    1601.4279    5960.1976    2.1884951    6.3069273   0.14713177 
   61500   -939.87837    44.144414   -895.73395    1581.0928    11739.188    2.1884951    4.7175957   0.14986157 
   61600   -950.68578    44.953725   -905.73206    1610.0794    35.270218    2.1884951    11.909861   0.11687443 
   61700   -948.32586    48.565173   -899.76068    1739.4284    4080.5077    2.1884951    5.3196596   0.13062784 
   61800   -945.70629    44.040802   -901.66549    1577.3818    5861.4274    2.1884951    7.7165133   0.14182671 
   61900   -948.67064    42.715128   -905.95551     1529.901     4310.297    2.1884951    3.4274592   0.16146694 
   62000   -944.74304    45.626971   -899.11607    1634.1926    7242.9117    2.1884951    4.1236773   0.15714775 
   62100   -951.13152    42.500702   -908.63082     1522.221    983.16144    2.1884951    3.8055217   0.13996257 
   62200   -948.01357    44.586694   -903.42687    1596.9337    3825.0899    2.1884951    4.3696279   0.14665834 
   62300   -945.32182    45.127942   -900.19388    1616.3192    7410.9682    2.1884951    4.5361464   0.15442601 
   62400   -947.94257    38.368403   -909.57417    1374.2171    1949.5925    2.1884951     5.390598   0.14872921 
   62500   -945.58826    41.144671   -904.44359    1473.6529    4158.1456    2.1884951    2.2540223   0.16116056 
   62600   -944.04919     43.09139    -900.9578    1543.3773    4116.8341    2.1884951    4.4220842   0.15053878 
   62700    -947.6919    39.740797    -907.9511    1423.3712    2514.5454    2.1884951    4.0357742   0.15975894 
   62800   -949.52855    45.368938   -904.15961    1624.9508    1431.7285    2.1884951    4.9777477   0.16206504 
   62900   -945.85138    44.854913   -900.99646    1606.5403    2894.1491    2.1884951    3.3833427   0.17260135 
   63000   -947.05705    39.736488   -907.32056    1423.2169    3048.9001    2.1884951    4.7498104   0.17933689 
   63100   -951.29428     43.56055   -907.73373    1560.1809    2253.7515    2.1884951    5.9040175   0.15209781 
   63200   -946.44504    44.474307   -901.97073    1592.9084     5404.633    2.1884951    4.5602589   0.15742721 
   63300   -949.67054     46.65047   -903.02007    1670.8506    4007.3738    2.1884951    6.6611016   0.13862278 
   63400   -950.56619     42.25102   -908.31517    1513.2783    2893.4058    2.1884951    4.0699174   0.14746827 
   63500   -944.24405    44.658242   -899.58581    1599.4963    6547.1756    2.1884951    4.6293194    0.1572213 
   63600   -949.24743    46.684396   -902.56303    1672.0658    1800.6953    2.1884951    3.1083256   0.14173572 
   63700   -947.98317    40.677074    -907.3061    1456.9053    3704.5643    2.1884951    4.0954693   0.14077179 
   63800   -942.09848     45.08148     -897.017    1614.6551    8084.2456    2.1884951    3.2826997   0.16404305 
   63900   -948.42841    44.327188   -904.10122    1587.6391    1578.2706    2.1884951    6.3586316   0.14487308 
   64000   -948.18165    44.204119   -903.97753    1583.2312    3928.4358    2.1884951    5.3838541   0.15112851 
   64100   -940.96296    45.795426   -895.16753    1640.2261    8009.2051    2.1884951    5.1552266   0.16269401 
   64200   -946.85488    44.663749   -902.19113    1599.6935    5040.4308    2.1884951    4.5850169   0.16535897 
   64300   -947.55443    43.357598   -904.19684    1552.9119    4738.2503    2.1884951      4.86083   0.14917986 
   64400   -942.02547    47.233673    -894.7918    1691.7389     10108.81    2.1884951    11.596946   0.15710067 
   64500   -945.65921      43.1475   -902.51171     1545.387    1506.9604    2.1884951    4.1564925   0.17481824 
   64600   -946.92825    43.774335   -903.15391    1567.8379    2436.6553    2.1884951    9.3147725   0.15843913 
   64700   -942.10393    45.771254   -896.33268    1639.3603    7952.4048    2.1884951    4.5131892   0.18652795 
   64800     -945.889    44.146496    -901.7425    1581.1674    4693.3731    2.1884951    2.5626368   0.15302968 
   64900   -949.43362    45.731331   -903.70229    1637.9304    1691.6531    2.1884951    4.5684662   0.13521242 
   65000   -945.71264    47.856468   -897.85617    1714.0451    5684.1138    2.1884951    4.3511076   0.15526418 
   65100   -945.34086    45.617313   -899.72354    1633.8467    5028.7572    2.1884951    5.3343324   0.16410252 
   65200   -945.64779    41.263425   -904.38437    1477.9062    2916.3257    2.1884951    4.3878726   0.16499495 
   65300   -944.79451    45.757243   -899.03726    1638.8585    5146.2752    2.1884951    5.1990995   0.15769338 
   65400    -945.7355    46.559023   -899.17648    1667.5754    5386.8384    2.1884951    5.2602018   0.14739517 
   65500   -949.06953    43.457682   -905.61185    1556.4966    1980.8866    2.1884951    4.1137809   0.13544333 
   65600   -938.46176    39.935541   -898.52622    1430.3463    8777.5396    2.1884951     2.758103    0.1744024 
   65700   -948.92078     44.76133   -904.15945    1603.1885    2100.8113    2.1884951    3.8674211   0.15323902 
   65800   -950.44031    45.179555   -905.26076    1618.1678    2317.4166    2.1884951    4.4969516   0.14605913 
   65900   -944.36005    45.319649    -899.0404    1623.1855    7295.6035    2.1884951    5.0975994   0.14467449 
   66000   -951.11077    47.072237   -904.03853    1685.9568     -629.197    2.1884951    5.9004245   0.14725316 
   66100   -944.67335    41.653556   -903.01979    1491.8793     6574.719    2.1884951    3.5607352   0.16950525 
   66200   -946.71506    47.331148   -899.38391    1695.2301    5228.7669    2.1884951    4.8934147   0.15849152 
   66300   -947.59266     41.43427   -906.15839    1484.0253    3276.8417    2.1884951    4.8896878     0.144068 
   66400   -947.17589     43.43893   -903.73696    1555.8249    2044.7953    2.1884951     5.572795   0.12412996 
   66500     -946.532    48.165797    -898.3662    1725.1242    4614.0983    2.1884951     3.712553   0.12891662 
   66600   -950.72963    45.434787   -905.29484    1627.3093   -375.86208    2.1884951    4.3146517   0.13271726 
   66700   -948.67009    45.461438   -903.20865    1628.2639    1325.8278    2.1884951    4.1495797   0.13613594 
   66800   -946.94495    48.671186   -898.27376    1743.2254    4672.7133    2.1884951    5.0710157   0.13962616 
   66900   -949.45648    44.534788   -904.92169    1595.0746    897.72593    2.1884951    4.7158941   0.13293208 
   67000   -949.97819    47.061267   -902.91692    1685.5639    2754.3412    2.1884951    7.5860323   0.13158819 
   67100   -946.09084    51.444185   -894.64666    1842.5441    6532.2345    2.1884951    5.2358044    0.1360894 
   67200   -946.53989     43.77902   -902.76087    1568.0057    3498.6394    2.1884951    7.0047813   0.13264876 
   67300   -949.56229    44.140968   -905.42132    1580.9694   -101.92351    2.1884951    6.3964444    0.1307515 
   67400   -946.85508       48.097   -898.75808    1722.6601    5916.6796    2.1884951    5.4925044   0.12997088 
   67500    -948.1782    44.821865   -903.35634    1605.3567    3252.3153    2.1884951    4.9527178   0.12189728 
   67600   -948.65538    42.874374     -905.781    1535.6046    3027.1121    2.1884951    4.8456467   0.12381723 
   67700   -947.35248    47.270705   -900.08178    1693.0652     4915.062    2.1884951    6.0941819   0.12402533 
   67800   -945.98115    52.930653    -893.0505     1895.784    8499.2521    2.1884951    5.7158691   0.11700085 
   67900   -948.82975    45.017452    -903.8123    1612.3619    3755.3033    2.1884951    6.8551361   0.12623036 
   68000   -948.01737    42.707021   -905.31035    1529.6106    2247.6834    2.1884951    6.4996333   0.12854849 
   68100    -947.6587    50.339045   -897.31965     1802.962    5488.1458    2.1884951    6.4449153   0.11965186 
   68200   -951.94176    46.191615   -905.75015    1654.4161   -246.27977    2.1884951    6.3293749   0.12455242 
   68300   -951.35731    47.226684   -904.13063    1691.4885    3451.3975    2.1884951    6.7014274   0.12521856 
   68400   -949.01281    50.454443   -898.55837    1807.0952    3032.7386    2.1884951    5.0386937   0.13320217 
   68500   -950.40341    44.301382   -906.10202    1586.7148    998.92215    2.1884951    5.9092211   0.12757074 
   68600   -947.57796    42.971968     -904.606    1539.1001    4065.2251    2.1884951    4.2291433    0.1354227 
   68700   -945.88348     46.43665   -899.44683    1663.1924    5850.1065    2.1884951    5.8646444   0.12094605 
   68800    -948.7999    45.545626   -903.25428    1631.2792    3669.4309    2.1884951    5.4174561   0.13003044 
   68900   -948.31196    42.793805   -905.51815    1532.7189    3756.7532    2.1884951    7.6141048   0.12674042 
   69000    -949.2509    45.233186   -904.01771    1620.0887    3526.9769    2.1884951    5.0660393    0.1267934 
   69100   -944.75235     45.39489   -899.35746    1625.8803    6565.7411    2.1884951    6.1388542   0.15311472 
   69200   -951.12898    42.899435   -908.22955    1536.5022    851.33536    2.1884951    5.4572636   0.12059261 
   69300   -950.63399    46.483455   -904.15054    1664.8688    1814.6661    2.1884951    5.1091357   0.13103345 
   69400   -947.36491    44.822009    -902.5429    1605.3618    3733.7996    2.1884951    4.5047715   0.12396507 
   69500   -950.32028    45.679975   -904.64031    1636.0911    1704.1863    2.1884951    3.4616228   0.11376137 
   69600   -954.52476    43.163936   -911.36082    1545.9757   -2236.4705    2.1884951    5.7727252   0.12796189 
   69700   -945.52698    42.866069   -902.66091    1535.3071     5509.362    2.1884951     5.639809   0.13526514 
   69800     -949.227    46.286255   -902.94075    1657.8058     2797.602    2.1884951    5.9021342   0.13260097 
   69900   -949.28732    38.499975   -910.78735    1378.9295    2266.9739    2.1884951     6.192688   0.13676491 
   70000   -945.82847    43.917312   -901.91116    1572.9588    6034.2689    2.1884951    6.4591212   0.12825117 
   70100   -951.32763     47.56962   -903.75801    1703.7713    3292.5473    2.1884951    5.3893279   0.10840728 
   70200   -951.21532    42.420235   -908.79508     1519.339    1814.2357    2.1884951    5.2538116   0.12418133 
   70300   -948.10879    47.469612   -900.63917    1700.1894    4549.5203    2.1884951    5.0349514   0.12793051 
   70400      -947.92    44.567778   -903.35222    1596.2562    4763.0343    2.1884951     4.696468   0.11807645 
   70500   -950.78345    43.237471   -907.54598    1548.6094    1181.3543    2.1884951     5.128913   0.12213209 
   70600   -947.29961    43.547103   -903.75251    1559.6993    4721.7265    2.1884951    5.8309598   0.11895937 
   70700   -942.44422    42.593176   -899.85105    1525.5331    9307.5643    2.1884951    4.3107395   0.14003719 
   70800   -949.81387    46.824134   -902.98974    1677.0707    3588.7561    2.1884951    5.6477063   0.12195932 
   70900   -949.29355    42.126347    -907.1672     1508.813    2852.6482    2.1884951    5.7175617   0.11314683 
[...]
  186800   -950.14526    39.285912   -910.85935    1407.0789    1738.3781    2.1884951    19.925632   0.12992477 
  186900   -948.88787    45.476565    -903.4113    1628.8056    3119.8443    2.1884951    21.023003   0.13832497 
  187000   -948.97668    45.997426   -902.97925     1647.461    3738.3366    2.1884951    20.435005   0.14339344 
  187100   -950.16236    39.418084   -910.74428    1411.8128    363.09647    2.1884951    19.422498   0.12895973 
  187200   -948.32068    44.376865   -903.94381    1589.4184     3455.527    2.1884951    20.963618   0.11548023 
  187300   -948.12702    45.539953   -902.58707     1631.076    3964.8377    2.1884951      18.7973   0.12814394 
  187400   -951.96915    44.631478   -907.33767    1598.5377   -271.78029    2.1884951    22.367305   0.12244494 
  187500   -949.57135    43.301056   -906.27029    1550.8868    2259.1901    2.1884951    18.380515   0.13263261 
  187600   -946.24168    45.653326   -900.58836    1635.1366    4611.0529    2.1884951    18.667858   0.14679487 
  187700   -950.09246    42.320692   -907.77176    1515.7737    582.49745    2.1884951    19.830117   0.15092689 
  187800   -946.24682    42.956901   -903.28992    1538.5604     3702.724    2.1884951    20.350348   0.14822313 
  187900    -945.9585    45.862367   -900.09613    1642.6237    4043.5315    2.1884951    22.969779   0.15158149 
  188000   -948.78236    41.600177   -907.18218    1489.9675    1823.3359    2.1884951    21.675546   0.14546126 
  188100   -947.44231    48.110581   -899.33173    1723.1466    4801.5511    2.1884951    20.170523   0.14876999 
  188200    -945.0395    44.865725   -900.17377    1606.9276    5828.3719    2.1884951    18.826055   0.14285618 
  188300   -949.45846    43.061057    -906.3974    1542.2909    1294.8961    2.1884951    17.891769   0.13769686 
  188400   -942.62753    44.322318   -898.30522    1587.4647    7570.1797    2.1884951    20.638574   0.13912689 
  188500   -949.06377    48.137462   -900.92631    1724.1093    3379.3989    2.1884951    18.828624   0.13457993 
  188600   -949.16065    44.767393   -904.39326    1603.4057    1350.7395    2.1884951    18.613665   0.12595399 
  188700   -944.87778    43.716548   -901.16124    1565.7682    4618.8626    2.1884951    21.703911   0.14495757 
  188800   -945.90995    47.923322   -897.98663    1716.4396    4371.8171    2.1884951    21.855267   0.14414346 
  188900   -948.73526    44.155421   -904.57984     1581.487    1026.2537    2.1884951    23.867413   0.13552654 
  189000   -950.00449     48.55662   -901.44786    1739.1221    1922.4882    2.1884951    19.916553   0.14101558 
  189100   -943.51744    46.888598   -896.62884    1679.3795    7020.8711    2.1884951    23.526833   0.13716422 
  189200   -946.10541    40.933167   -905.17224    1466.0776    2106.4579    2.1884951     18.87982   0.13409871 
  189300   -944.45424    43.164187   -901.29005    1545.9846    4699.5979    2.1884951    22.433996   0.13715493 
  189400   -942.88281     44.74248   -898.14033    1602.5134    6077.8531    2.1884951    21.569434   0.14335856 
  189500   -952.22077     45.11434   -907.10643    1615.8321   -1225.8502    2.1884951    21.517007   0.12859775 
  189600   -946.22993    45.808494   -900.42143    1640.6941    3379.7443    2.1884951    21.152668   0.13881995 
  189700   -945.77419    43.887122   -901.88707    1571.8776    4839.7054    2.1884951    19.976366   0.14091922 
  189800   -950.74897    42.720881   -908.02808     1530.107    396.92698    2.1884951    23.846891   0.12276187 
  189900   -951.52827    51.251113   -900.27716     1835.629    2041.1513    2.1884951    24.623459   0.13231944 
  190000   -951.89597    46.644125   -905.25185    1670.6234    469.81614    2.1884951    22.915242   0.13223142 
  190100   -948.16301    40.896842   -907.26617    1464.7766    2170.8217    2.1884951    16.258352   0.12800566 
  190200   -948.33892    44.824945   -903.51398     1605.467    2766.6653    2.1884951     22.28234   0.13387859 
  190300   -950.01209    47.696428   -902.31567    1708.3131    2826.4215    2.1884951    21.080512   0.12994059 
  190400   -949.86817    43.399436   -906.46873    1554.4104    2459.0267    2.1884951     22.82053   0.13681913 
  190500   -948.58988    44.719892   -903.86999    1601.7043     4437.824    2.1884951    22.837727   0.13792373 
  190600   -947.65144    47.857866   -899.79357    1714.0952    5799.1539    2.1884951    20.581792   0.12562583 
  190700   -945.53371     40.69609   -904.83762    1457.5863    5084.7921    2.1884951    17.817165   0.13018584 
  190800   -950.39264    46.821685   -903.57095     1676.983       1513.2    2.1884951    21.834965   0.13723144 
  190900   -946.58335    47.514801   -899.06855    1701.8078    5933.9552    2.1884951    20.686441   0.13855022 
  191000   -949.83025    44.875346   -904.95491    1607.2722    1643.0746    2.1884951    20.039293   0.13261396 
  191100   -950.81846    44.929458     -905.889    1609.2103     2429.878    2.1884951    19.593947   0.11223459 
  191200   -949.55441    51.293517   -898.26089    1837.1478    3449.2342    2.1884951    21.185095   0.13119491 
  191300   -951.25109    41.997495   -909.25359     1504.198    78.288728    2.1884951    22.635161   0.13017959 
  191400   -948.75118    46.247323   -902.50386    1656.4114    2509.3695    2.1884951    23.797232     0.141012 
  191500   -946.69989    45.973277   -900.72661    1646.5961    4333.0768    2.1884951    22.958982   0.14001034 
  191600   -951.07625    42.629755   -908.44649    1526.8432    539.43056    2.1884951     19.64772   0.12047461 
  191700   -947.59865    43.539082   -904.05957     1559.412    2431.6649    2.1884951     22.46916   0.13539063 
  191800     -943.829    41.291112   -902.53789    1478.8979    7406.6892    2.1884951    18.669506   0.13121733 
  191900   -950.79414     40.64935   -910.14479    1455.9123   -546.51828    2.1884951    22.101004   0.13487877 
  192000   -948.91882    43.190845   -905.72797    1546.9394     3042.047    2.1884951    20.749395   0.11942655 
  192100     -949.587    47.680421   -901.90658    1707.7397    2732.1058    2.1884951    20.499017    0.1162215 
  192200   -951.74105    42.972997   -908.76805    1539.1369    643.39107    2.1884951    21.692399   0.12434129 
  192300   -947.28334    40.807874   -906.47547    1461.5901    5078.1973    2.1884951    22.733134     0.126672 
  192400    -947.7306    44.706686   -903.02391    1601.2313    4230.4264    2.1884951    20.718292   0.14011862 
  192500   -947.72577    44.162959   -903.56282     1581.757     4402.951    2.1884951    24.427993   0.13139567 
  192600   -952.48043    44.688215   -907.79222    1600.5698    719.88959    2.1884951    20.485669   0.12266498 
  192700   -948.87951    48.145935   -900.73358    1724.4128    6891.7088    2.1884951    18.584332   0.13037407 
  192800    -946.2564    44.396706    -901.8597     1590.129    6275.0156    2.1884951    19.530947   0.11348714 
  192900   -947.86111    41.748187   -906.11292    1495.2686    4173.4556    2.1884951    20.411872   0.13374786 
  193000   -948.81662    46.051589   -902.76503    1649.4009    3989.9614    2.1884951    20.271507   0.12233921 
  193100   -948.56418    49.883773   -898.68041    1786.6558    3723.1349    2.1884951    19.489903   0.13023524 
  193200   -950.67548    44.302457   -906.37303    1586.7533    2145.5995    2.1884951    22.939911   0.13461178 
  193300   -949.46756    45.463294   -904.00426    1628.3303    3105.9618    2.1884951    25.022307   0.11685621 
  193400    -946.2996    47.105333   -899.19427    1687.1422    4588.3881    2.1884951    20.911347   0.13395319 
  193500   -945.85402    41.474248   -904.37978    1485.4571    2975.0528    2.1884951    22.226388   0.14284653 
  193600   -947.44105    42.120586   -905.32047    1508.6067    4102.8954    2.1884951    20.514021    0.1331264 
  193700   -947.15506    48.855048   -898.30002    1749.8106    4970.4318    2.1884951    20.660959   0.12694714 
  193800   -951.58481    45.390889   -906.19392    1625.7371    264.31038    2.1884951    18.838567   0.12510037 
  193900   -949.11179    44.353757   -904.75803    1588.5907    2782.0989    2.1884951    20.175329    0.1136679 
  194000   -948.19041    45.544955   -902.64545    1631.2551    4813.0928    2.1884951    20.402486   0.12368888 
  194100   -946.51146    42.919561    -903.5919     1537.223    5061.8182    2.1884951    23.508097   0.13336441 
  194200   -949.48058    40.460702   -909.01988    1449.1556    1275.1602    2.1884951    20.087847   0.12509558 
  194300   -950.60134    46.559305   -904.04203    1667.5855    754.48603    2.1884951     21.99343   0.14206454 
  194400   -947.98491     46.33834   -901.64657    1659.6713    2032.0758    2.1884951    21.806015   0.13567924 
  194500   -951.05848    41.148382    -909.9101    1473.7858   -455.31627    2.1884951    21.601121   0.12081892 
  194600   -946.49962    42.702214   -903.79741    1529.4385     3164.224    2.1884951    19.729333   0.13559976 
  194700   -946.92208    44.915122   -902.00696    1608.6968    5185.4122    2.1884951    16.818837   0.13681056 
  194800   -946.96684     43.33807   -903.62877    1552.2125     3637.593    2.1884951    18.937706   0.14028845 
  194900   -950.60587    48.980169    -901.6257     1754.292    1373.6738    2.1884951    16.988131   0.14575484 
  195000   -942.62025    44.587994   -898.03226    1596.9802    8259.8167    2.1884951    21.750993   0.13335017 
  195100   -952.29851     45.71194   -906.58657    1637.2359   -1302.3386    2.1884951    20.436281   0.13297084 
  195200   -945.54974    44.761937    -900.7878    1603.2103    4606.0183    2.1884951    21.843522   0.13537557 
  195300   -945.33272    47.719259   -897.61346    1709.1308    5809.7754    2.1884951    21.619071   0.13885294 
  195400   -947.19497    40.409029   -906.78594    1447.3049    1906.5019    2.1884951    22.400209   0.13347683 
  195500   -948.01324    46.097652   -901.91559    1651.0507    2381.3543    2.1884951    19.281399     0.135141 
  195600   -947.13781     47.36382   -899.77399    1696.4003    4646.1542    2.1884951    22.261988   0.13869045 
  195700   -947.47197      44.5628   -902.90917    1596.0779    3614.3313    2.1884951    17.884257   0.13058955 
  195800    -948.4882    43.125994   -905.36221    1544.6167    2313.3499    2.1884951    21.576332   0.13727507 
  195900   -949.68538    43.145077    -906.5403    1545.3002    743.30358    2.1884951    20.825632   0.13231919 
  196000   -948.04532    48.947333   -899.09799     1753.116    3173.7856    2.1884951     21.35079   0.15165586 
  196100   -949.83584    42.595561   -907.24028    1525.6185    637.93947    2.1884951    20.495657    0.1280389 
  196200   -947.67803    41.830825   -905.84721    1498.2284    3691.9815    2.1884951    20.883778   0.12995985 
  196300   -943.11203    42.823068   -900.28896     1533.767    7351.0593    2.1884951    19.642211   0.14058746 
  196400     -949.757    40.380823   -909.37618    1446.2947   -456.53803    2.1884951    24.001129   0.14020505 
  196500   -946.20511    41.503787   -904.70132    1486.5151    4011.2831    2.1884951     21.29795   0.15988187 
  196600   -946.37314    44.602715   -901.77043    1597.5075    4757.3035    2.1884951    22.245316   0.15168679 
  196700   -949.12636    39.663733   -909.46263    1420.6111    303.55441    2.1884951     21.91652   0.13547792 
  196800   -950.68311     43.10442   -907.57869     1543.844    703.69103    2.1884951    19.907246   0.14158378 
  196900   -948.59804    45.763485   -902.83455    1639.0821    3724.7018    2.1884951    21.802261   0.13405556 
  197000   -946.91026     45.74046    -901.1698    1638.2574     3943.565    2.1884951    22.100571    0.1510459 
  197100   -951.08246     42.99688   -908.08558    1539.9923   -580.93546    2.1884951    20.914569   0.14296073 
  197200   -950.54252    49.206009   -901.33651    1762.3808    2555.1899    2.1884951     20.37141   0.11646866 
  197300   -946.03691    44.524066   -901.51284    1594.6906     5285.892    2.1884951    20.549011   0.13688895 
  197400   -946.61977    40.743324   -905.87645    1459.2781    4026.0646    2.1884951    22.316601   0.14085304 
  197500   -943.79213     45.93793    -897.8542    1645.3301    6533.1222    2.1884951    22.662371   0.14744748 
  197600   -948.32685    44.930452    -903.3964    1609.2459    2749.8084    2.1884951    20.594203   0.15006742 
  197700    -950.9683    45.295489   -905.67281    1622.3202    1350.7765    2.1884951    21.240351   0.13547359 
  197800   -941.99294    46.093222   -895.89972    1650.8921    7370.0927    2.1884951    20.877449   0.15063559 
  197900   -948.00686    47.129763    -900.8771    1688.0172     3255.749    2.1884951    24.942936   0.12694599 
  198000   -948.33079    42.713068   -905.61772    1529.8272    3216.9577    2.1884951    21.114462   0.13489444 
  198100   -945.50846     45.15383   -900.35463    1617.2465    5039.0002    2.1884951    22.557579   0.14317217 
  198200   -946.69499     46.03245   -900.66254    1648.7154    4194.2181    2.1884951    18.100476   0.13578596 
  198300   -946.92345    41.308866   -905.61458    1479.5338    3414.9645    2.1884951    20.701947   0.14279071 
  198400   -946.80067    45.370432   -901.43024    1625.0044    3950.5813    2.1884951    21.254299   0.12567952 
  198500   -939.57329     47.04634   -892.52695    1685.0293    9411.1464    2.1884951    23.562731   0.15841321 
  198600   -946.55405    44.469162   -902.08489    1592.7241    4098.0305    2.1884951    21.332727   0.13369252 
  198700   -950.07824    43.751528   -906.32672    1567.0211    165.87076    2.1884951    20.932799   0.14660235 
  198800   -943.52667    43.047387   -900.47928    1541.8013    5875.0468    2.1884951    18.511441   0.14086306 
  198900   -946.26351    45.227851   -901.03566    1619.8976    5076.0406    2.1884951    20.365119   0.12398116 
  199000   -948.04653    42.105793   -905.94073    1508.0768    2005.3895    2.1884951    21.433285   0.14206852 
  199100   -947.90381    46.693767   -901.21004    1672.4014    2971.6172    2.1884951    21.467222   0.12466685 
  199200   -947.35738    50.004146   -897.35323    1790.9672    2571.6401    2.1884951    23.861748   0.13031524 
  199300   -949.33873    43.103594   -906.23514    1543.8144   -952.38422    2.1884951    18.966208   0.13651116 
  199400   -949.67328    46.969233   -902.70405    1682.2676     1280.412    2.1884951    20.776889   0.12209396 
  199500   -942.03223    43.404695   -898.62753    1554.5988    6929.8583    2.1884951    22.505484   0.14517436 
  199600   -944.71404    41.486585   -903.22746     1485.899    3287.9158    2.1884951    20.144654   0.15115421 
  199700   -949.84327    43.282379   -906.56089    1550.2179    383.88484    2.1884951    21.057704   0.12482459 
  199800   -947.06129    43.412443   -903.64885    1554.8763    3728.2775    2.1884951    21.404022   0.14947891 
  199900   -945.46054    45.765034   -899.69551    1639.1375    5017.1012    2.1884951    19.859451   0.13753841 
  200000   -949.93287    41.552365    -908.3805     1488.255    1558.5986    2.1884951    21.358472   0.11584286 
  200100   -945.98013    42.550978   -903.42916    1524.0217    4205.5324    2.1884951    21.350751   0.12873417 
  200200   -947.37829     45.29895   -902.07934    1622.4441    2845.9944    2.1884951    18.731502   0.12505081 
  200300    -952.7093    40.451008   -912.25829    1448.8084    -1798.221    2.1884951    21.680538    0.1251633 
  200400   -949.81834    44.039924   -905.77841    1577.3504    999.02974    2.1884951    20.398102   0.13034807 
  200500    -945.7644    44.814845   -900.94956    1605.1052    4763.3758    2.1884951     17.94466   0.13047278 
  200600   -950.02212    42.436368   -907.58575    1519.9168    888.71992    2.1884951    19.150189   0.13141165 
  200700   -950.89971    44.903614   -905.99609    1608.2846    1525.9109    2.1884951    19.988181   0.13506709 
  200800   -948.55848    46.131764   -902.42672    1652.2725    4017.5327    2.1884951    19.813086   0.13211316 
  200900   -947.51037    42.070964    -905.4394    1506.8293    3358.1773    2.1884951    19.712471   0.13458915 
  201000   -950.36099    40.156859   -910.20413    1438.2731   -869.22415    2.1884951    21.295711   0.12664777 
  201100   -943.61658    42.583299   -901.03328    1525.1793    5601.7918    2.1884951     21.08787   0.13391929 
  201200   -948.32245    43.229521   -905.09293    1548.3247    2825.4439    2.1884951    23.464736    0.1200445 
  201300   -954.25424    44.596098   -909.65815    1597.2705   -2930.2687    2.1884951    21.588112   0.12011599 
  201400   -942.77431    43.117084   -899.65722    1544.2976    7012.0359    2.1884951    22.244042   0.13441962 
  201500   -950.93412    45.025016   -905.90911    1612.6328    1854.1168    2.1884951    20.658822   0.13040441 
  201600   -949.25787    44.752049   -904.50582    1602.8561    2095.8207    2.1884951     19.20667   0.14544104 
  201700   -943.94722    44.381598   -899.56562    1589.5879      7189.76    2.1884951    19.494681   0.13793559 
  201800   -949.87631    43.412612    -906.4637    1554.8823    709.17018    2.1884951    18.209579   0.13055256 
  201900   -946.42573    47.442248   -898.98348    1699.2093    5405.6352    2.1884951    22.767011   0.13974432 
  202000   -943.39889    43.797971   -899.60092    1568.6845    7691.4431    2.1884951    21.631961   0.14626767 
  202100   -947.98848    42.745617   -905.24286     1530.993    2898.3993    2.1884951    22.563678   0.13992126 
  202200   -948.09553    46.997921    -901.0976    1683.2951    5221.3165    2.1884951    18.712419   0.13295722 
  202300   -949.53463    50.535937   -898.99869     1810.014    4774.3047    2.1884951    18.920353   0.12394713 
  202400   -948.71711    43.850871   -904.86624    1570.5792    3162.7859    2.1884951    17.184495   0.11814995 
  202500    -946.7466    44.881282   -901.86532    1607.4848    5527.1604    2.1884951    22.088876   0.13633198 
  202600    -946.5981    49.754204    -896.8439    1782.0152    6870.7917    2.1884951    25.178541   0.14195157 
  202700   -948.67033    43.308261   -905.36207    1551.1448    3625.7479    2.1884951    21.421745   0.13678752 
  202800   -945.01409    43.060983   -901.95311    1542.2883     4195.065    2.1884951    19.400905   0.13854414 
  202900   -945.01062    47.729088   -897.28153    1709.4828    6815.2083    2.1884951    17.823481   0.13176303 
  203000   -950.41998    43.551934   -906.86805    1559.8723    1135.1726    2.1884951    19.831276   0.14088975 
  203100   -944.96482    43.815106   -901.14971    1569.2982    5123.7041    2.1884951    21.468177   0.14581348 
  203200   -948.37807    47.253086   -901.12499    1692.4342    2842.7128    2.1884951    20.515048   0.14663527 
Loop time of 145.133 on 1 procs for 200000 steps with 217 atoms

Performance: 357.189 ns/day, 0.067 hours/ns, 1378.044 timesteps/s
100.0% CPU use with 1 MPI tasks x no OpenMP threads

MPI task timing breakdown:
Section |  min time  |  avg time  |  max time  |%varavg| %total
---------------------------------------------------------------
Pair    | 142.25     | 142.25     | 142.25     |   0.0 | 98.02
Neigh   | 0.64785    | 0.64785    | 0.64785    |   0.0 |  0.45
Comm    | 0.94235    | 0.94235    | 0.94235    |   0.0 |  0.65
Output  | 0.070208   | 0.070208   | 0.070208   |   0.0 |  0.05
Modify  | 0.9116     | 0.9116     | 0.9116     |   0.0 |  0.63
Other   |            | 0.3071     |            |       |  0.21

Nlocal:    217 ave 217 max 217 min
Histogram: 1 0 0 0 0 0 0 0 0 0
Nghost:    957 ave 957 max 957 min
Histogram: 1 0 0 0 0 0 0 0 0 0
Neighs:    4219 ave 4219 max 4219 min
Histogram: 1 0 0 0 0 0 0 0 0 0
FullNghs:  8438 ave 8438 max 8438 min
Histogram: 1 0 0 0 0 0 0 0 0 0

Total # of neighbors = 8438
Ave neighs/atom = 38.8848
Neighbor list builds = 1065
Dangerous builds = 17
Total wall time: 0:02:27
