LAMMPS (3 Mar 2020)

    # ---------- Initialize simulation ---------------------
    units metal
    atom_style atomic
    dimension  3
    boundary   p p p
    read_data /home/modeler/RemLabs/Lab4/Problem1A/timestep_0.001/lammps.data
  orthogonal box = (0 0 0) to (12.27 12.27 12.27)
  1 by 1 by 1 MPI processor grid
  reading atoms ...
  108 atoms
  read_data CPU = 0.000953291 secs

    pair_style eam
    pair_coeff * * /usr/share/lammps-stable/potentials/Ag_u3.eam
Reading potential file /usr/share/lammps-stable/potentials/Ag_u3.eam with DATE: 2007-06-11

    velocity  all create 300 87287 dist gaussian

    # ---------- Describe computed properties------------------
    compute msdall all msd
    thermo_style custom step pe ke etotal temp press density c_msdall[4]
    thermo 100

    # ---------- Specify ensemble  ---------------------
    fix  1 all nve
    #fix  1 all nvt temp 300 300 0.05

    # --------- Compute RDF ---------------
    compute rdfall all rdf 100 1 1
    fix 2 all ave/time 1 2500 2500 c_rdfall[*] file /home/modeler/RemLabs/Lab4/Problem1A/timestep_0.001/lammps.rdf mode vector

    # --------- Run -------------
    timestep 0.001
    run 10000
Neighbor list info ...
  update every 1 steps, delay 10 steps, check yes
  max neighbors/atom: 2000, page size: 100000
  master list distance cutoff = 7.55
  ghost atom cutoff = 7.55
  binsize = 3.775, bins = 4 4 4
  2 neighbor lists, perpetual/occasional/extra = 1 1 0
  (1) pair eam, perpetual
      attributes: half, newton on
      pair build: half/bin/atomonly/newton
      stencil: half/bin/3d/newton
      bin: standard
  (2) compute rdf, occasional, copy from (1)
      attributes: half, newton on
      pair build: copy
      stencil: none
      bin: none
Per MPI rank memory allocation (min/avg/max) = 3.723 | 3.723 | 3.723 Mbytes
Step PotEng KinEng TotEng Temp Press Density c_msdall[4] 
       0       -307.8    4.1492507   -303.65075          300     2399.079    10.472245            0 
     100   -305.63166    1.9810815   -303.65058    143.23657    8497.0425    10.472245  0.013176954 
     200   -306.07537    2.4248292   -303.65054    175.32052    7528.9698    10.472245 0.0086096328 
     300   -306.12814    2.4775931   -303.65054    179.13546    7355.0298    10.472245 0.0076000715 
     400   -305.72506    2.0745613    -303.6505    149.99537     8529.828    10.472245  0.011180739 
     500     -305.803    2.1525193   -303.65048     155.6319    8477.7272    10.472245 0.0087899997 
     600   -305.21473    1.5643207   -303.65041    113.10385    10129.034    10.472245  0.011257113 
     700   -305.80721     2.156728   -303.65048     155.9362    8459.2607    10.472245 0.0095564747 
     800   -305.85062    2.2001277   -303.65049     159.0741    8202.3285    10.472245 0.0091789041 
     900    -305.4617    1.8112595   -303.65044    130.95806    9348.3253    10.472245  0.010950984 
    1000   -305.68856    2.0380839   -303.65047    147.35798    8772.2713    10.472245  0.010150943 
    1100   -306.34452    2.6939554   -303.65056    194.77893    6700.7079    10.472245 0.0076845615 
    1200   -305.61883    1.9683308    -303.6505    142.31467    8766.4339    10.472245  0.011467373 
    1300   -305.88641    2.2359131    -303.6505    161.66146    8182.1426    10.472245 0.0086043629 
    1400   -305.79236    2.1418593    -303.6505    154.86117     8392.065    10.472245 0.0094394253 
    1500   -305.71286    2.0623773   -303.65049    149.11444    8612.1483    10.472245  0.010746581 
    1600   -305.82596    2.1754771   -303.65048    157.29181    8306.0157    10.472245 0.0089463823 
    1700   -305.61351    1.9630514   -303.65046    141.93296    8949.4728    10.472245  0.009410182 
    1800   -305.65365    2.0031688   -303.65048    144.83353     8834.674    10.472245  0.011273918 
    1900   -305.89249    2.2420108   -303.65048    162.10234    8227.9626    10.472245 0.0077931705 
    2000   -305.41388      1.76345   -303.65043    127.50134    9486.5903    10.472245  0.010510016 
    2100   -305.74721    2.0967187   -303.65049     151.5974    8537.3318    10.472245  0.010889872 
    2200   -305.85007    2.1995832   -303.65049    159.03473    8296.7839    10.472245 0.0080316626 
    2300   -305.59269    1.9422331   -303.65046    140.42775    8997.9759    10.472245   0.01016523 
    2400   -305.73333    2.0828388   -303.65049    150.59385    8641.1844    10.472245 0.0098092737 
    2500   -305.69842    2.0479389   -303.65048    148.07051    8747.0099    10.472245 0.0088861905 
    2600   -305.90566    2.2551465   -303.65051    163.05208    8091.9271    10.472245 0.0090636276 
    2700   -305.96064    2.3101061   -303.65053    167.02578    7906.6384    10.472245 0.0083351347 
    2800   -305.78989    2.1393795   -303.65051    154.68187    8429.3003    10.472245 0.0092732939 
    2900   -305.99242    2.3418909   -303.65053    169.32389    7748.0542    10.472245  0.008548972 
    3000   -306.06269    2.4121581   -303.65053    174.40436    7652.4298    10.472245 0.0081881465 
    3100   -305.58405    1.9335614   -303.65048    139.80077    8962.2323    10.472245  0.010549512 
    3200   -305.83798    2.1874882   -303.65049    158.16024    8475.1833    10.472245  0.008472197 
    3300   -305.78546    2.1349793   -303.65048    154.36373    8450.9813    10.472245   0.00928018 
    3400   -305.57543    1.9249673   -303.65046    139.17939    9087.9437    10.472245  0.010702634 
    3500   -305.77921    2.1287431   -303.65047    153.91283    8665.5513    10.472245 0.0084669802 
    3600   -305.32702    1.6765755   -303.65045    121.22012      9721.88    10.472245  0.010983671 
    3700   -306.25083    2.6002939   -303.65054      188.007    7196.1162    10.472245 0.0070762579 
    3800   -305.68217    2.0316659    -303.6505    146.89394    8727.2899    10.472245  0.010395647 
    3900   -305.87067    2.2201588   -303.65051    160.52239     8322.827    10.472245 0.0081764558 
    4000   -305.83815    2.1876334   -303.65052    158.17074    8307.5177    10.472245 0.0093810055 
    4100   -305.81189    2.1613945    -303.6505     156.2736    8377.1799    10.472245 0.0090469066 
    4200   -305.85293    2.2024394   -303.65049    159.24124    8393.4127    10.472245 0.0081546514 
    4300    -305.5596    1.9091306   -303.65047    138.03436    9085.3615    10.472245  0.010496004 
    4400   -305.74097    2.0904973   -303.65047    151.14758    8710.4871    10.472245 0.0087889527 
    4500   -305.71632    2.0658494   -303.65047    149.36548    8683.9899    10.472245 0.0095292548 
    4600    -305.5404    1.8899532   -303.65045     136.6478    9233.5398    10.472245 0.0098555984 
    4700   -305.47599      1.82555   -303.65044     131.9913    9455.5519    10.472245 0.0097453436 
    4800   -305.81544    2.1649663   -303.65048    156.53185    8363.3629    10.472245 0.0095348555 
    4900   -305.73581    2.0853297   -303.65048    150.77395     8604.056    10.472245 0.0097586148 
    5000   -305.71105    2.0605805   -303.65047    148.98453    8665.1665    10.472245  0.010031422 
    5100   -305.67269    2.0222102   -303.65048    146.21027    8793.4734    10.472245  0.010103115 
    5200   -305.80221    2.1517328   -303.65047    155.57504    8467.6635    10.472245 0.0085925004 
    5300   -305.63689    1.9864101   -303.65048    143.62184    8891.4581    10.472245  0.010878366 
    5400   -305.88027    2.2297776   -303.65049    161.21785    8252.8211    10.472245 0.0086980981 
    5500   -305.47032    1.8198677   -303.65045    131.58046    9400.7517    10.472245  0.010640466 
    5600   -305.86272    2.2122296   -303.65049    159.94909    8244.2424    10.472245 0.0086794539 
    5700   -305.62446    1.9739903   -303.65047    142.72386    8927.6286    10.472245 0.0099434331 
    5800   -305.81439    2.1638954   -303.65049    156.45443    8387.6326    10.472245 0.0093578033 
    5900   -305.78617    2.1356778   -303.65049    154.41423    8470.7045    10.472245 0.0093185699 
    6000   -305.76311    2.1126122   -303.65049    152.74654     8460.053    10.472245 0.0097321297 
    6100    -305.8935    2.2430066    -303.6505    162.17434    8171.1933    10.472245 0.0088481385 
    6200   -305.66745    2.0169725   -303.65048    145.83158    8836.5341    10.472245  0.010078769 
    6300   -305.66496    2.0144884   -303.65047    145.65197    8822.4122    10.472245  0.010043877 
    6400   -305.80033    2.1498506   -303.65048    155.43896    8512.6599    10.472245 0.0093279461 
    6500   -305.71326    2.0627845   -303.65048    149.14388    8680.1246    10.472245  0.010041944 
    6600   -305.62637    1.9759046   -303.65046    142.86228     8966.162    10.472245 0.0091989562 
    6700   -305.74889    2.0984113   -303.65048    151.71978    8636.9106    10.472245  0.009609068 
    6800   -305.75939    2.1088974   -303.65049    152.47795    8474.4425    10.472245 0.0094996955 
    6900    -305.8186    2.1681226   -303.65048    156.76006    8453.4737    10.472245 0.0080393056 
    7000   -305.58234    1.9318704   -303.65047     139.6785    8934.4388    10.472245  0.010863741 
    7100   -305.84962    2.1991426   -303.65048    159.00287    8258.6248    10.472245 0.0087327527 
    7200   -305.80978    2.1593087   -303.65047     156.1228     8408.627    10.472245  0.008994606 
    7300    -305.2263     1.575876   -303.65042    113.93932    10119.041    10.472245  0.012573408 
    7400   -305.94781    2.2973195   -303.65049    166.10128     7994.634    10.472245 0.0082684743 
    7500   -305.77854    2.1280542   -303.65049    153.86303    8396.9541    10.472245 0.0099409688 
    7600   -305.66267    2.0122074   -303.65046    145.48705    8965.9668    10.472245 0.0093625724 
    7700   -305.53416    1.8837145   -303.65045    136.19672     9154.121    10.472245  0.009975375 
    7800   -305.87557    2.2250642   -303.65051    160.87706    8135.8541    10.472245 0.0093430138 
    7900   -306.07587    2.4253487   -303.65053    175.35808    7593.8117    10.472245 0.0076294597 
    8000   -305.50574    1.8552827   -303.65046    134.14105    9211.5285    10.472245  0.010641055 
    8100   -305.82459    2.1740945   -303.65049    157.19184    8353.8171    10.472245 0.0094643212 
    8200   -305.91335    2.2628494   -303.65051    163.60902    8090.5966    10.472245 0.0084139943 
    8300   -305.62383    1.9733792   -303.65045    142.67968      8973.51    10.472245 0.0094942341 
    8400   -305.28893    1.6385103   -303.65042    118.46792    9955.2438    10.472245   0.01146414 
    8500   -305.69464    2.0441793   -303.65046    147.79869     8777.852    10.472245 0.0084083561 
    8600   -305.86472    2.2142246   -303.65049    160.09334    8271.2813    10.472245 0.0088111824 
    8700   -305.65266    2.0021884   -303.65047    144.76265    8812.6576    10.472245  0.010511707 
    8800   -305.58866     1.938199   -303.65046    140.13608    9087.2498    10.472245 0.0093166105 
    8900   -305.92818    2.2776723    -303.6505    164.68074    8022.8675    10.472245 0.0091496098 
    9000   -305.73563     2.085134    -303.6505     150.7598    8537.8105    10.472245  0.011124393 
    9100   -305.92568    2.2751923   -303.65049    164.50144    8093.9909    10.472245 0.0076657312 
    9200   -305.54991    1.8994459   -303.65047    137.33414    9147.3271    10.472245  0.010794373 
    9300   -305.75921    2.1087314   -303.65048    152.46595    8534.8496    10.472245 0.0094549194 
    9400   -305.74299    2.0925173   -303.65047    151.29363    8608.8434    10.472245    0.0088643 
    9500   -305.64958    1.9991114   -303.65047    144.54018    8923.5905    10.472245  0.010092589 
    9600   -305.57047    1.9200167   -303.65046    138.82146    9045.0261    10.472245   0.01000715 
    9700   -305.85745    2.2069556   -303.65049    159.56777     8238.862    10.472245 0.0093456462 
    9800   -305.80055    2.1500578   -303.65049    155.45393    8386.2995    10.472245 0.0096475203 
    9900   -305.63365    1.9831952   -303.65045     143.3894    8881.1552    10.472245 0.0097614729 
   10000   -305.52615    1.8757047   -303.65045     135.6176    9178.0143    10.472245  0.011368797 
Loop time of 1.91878 on 1 procs for 10000 steps with 108 atoms

Performance: 450.287 ns/day, 0.053 hours/ns, 5211.658 timesteps/s
99.3% CPU use with 1 MPI tasks x no OpenMP threads

MPI task timing breakdown:
Section |  min time  |  avg time  |  max time  |%varavg| %total
---------------------------------------------------------------
Pair    | 1.2949     | 1.2949     | 1.2949     |   0.0 | 67.49
Neigh   | 0          | 0          | 0          |   0.0 |  0.00
Comm    | 0.041908   | 0.041908   | 0.041908   |   0.0 |  2.18
Output  | 0.0015503  | 0.0015503  | 0.0015503  |   0.0 |  0.08
Modify  | 0.57093    | 0.57093    | 0.57093    |   0.0 | 29.76
Other   |            | 0.009449   |            |       |  0.49

Nlocal:    108 ave 108 max 108 min
Histogram: 1 0 0 0 0 0 0 0 0 0
Nghost:    990 ave 990 max 990 min
Histogram: 1 0 0 0 0 0 0 0 0 0
Neighs:    4644 ave 4644 max 4644 min
Histogram: 1 0 0 0 0 0 0 0 0 0

Total # of neighbors = 4644
Ave neighs/atom = 43
Neighbor list builds = 0
Dangerous builds = 0
    
Total wall time: 0:00:01
