LAMMPS (3 Mar 2020)
Reading data file ...
  orthogonal box = (0 0 0) to (17.469 17.469 17.469)
  1 by 1 by 1 MPI processor grid
  reading atoms ...
  217 atoms
  read_data CPU = 0.000972727 secs
Reading potential file library.meam with DATE: 2012-06-29
Reading potential file LiSi.meam with DATE: 2020-11-07
1 atoms in group Li
Neighbor list info ...
  update every 1 steps, delay 10 steps, check yes
  max neighbors/atom: 2000, page size: 100000
  master list distance cutoff = 6
  ghost atom cutoff = 6
  binsize = 3, bins = 6 6 6
  2 neighbor lists, perpetual/occasional/extra = 2 0 0
  (1) pair meam/c, perpetual
      attributes: full, newton on
      pair build: full/bin/atomonly
      stencil: full/bin/3d
      bin: standard
  (2) pair meam/c, perpetual, half/full from (1)
      attributes: half, newton on
      pair build: halffull/newton
      stencil: none
      bin: none
Setting up Verlet run ...
  Unit style    : metal
  Current step  : 0
  Time step     : 0.000719225
Per MPI rank memory allocation (min/avg/max) = 9.27 | 9.27 | 9.27 Mbytes
Step PotEng KinEng TotEng Temp Press Density c_msdli[4] 
       0   -951.06911    50.256344   -900.81276         1800    -114182.3    1.8918427            0 
     100   -939.55539    31.239663   -908.31573    1118.8914    -56166.08    2.0167161   0.11640146 
     200   -955.22325    44.389863   -910.83339    1589.8839     14088.78    2.2271683   0.11372092 
     300   -949.64563    44.016397   -905.62923    1576.5077    48843.733    2.2960087   0.64639936 
     400   -952.36028    47.007399   -905.35289    1683.6346    23215.068    2.2359212   0.24216932 
     500   -949.63165    48.679747    -900.9519     1743.532   -13846.287    2.1335454  0.037318479 
     600   -935.14759    41.718936   -893.42866     1494.221   -24888.451    2.0817606  0.086460524 
     700   -939.40309    49.061964   -890.34112    1757.2216   -16259.051    2.1072971  0.071372313 
     800   -942.69761    53.491131   -889.20648    1915.8583    8422.1326    2.1763521   0.46649013 
     900   -947.51564    51.361873   -896.15377     1839.596    21022.972    2.2228291   0.35147029 
    1000   -945.55866    44.022163    -901.5365    1576.7142    16138.745    2.2109014   0.63674342 
    1100   -942.90617    47.875272    -895.0309    1714.7186   -2094.0991    2.1577793   0.11494767 
    1200   -934.55651    47.521446   -887.03506    1702.0459   -11154.068    2.1109024   0.30796528 
    1300   -935.48016    46.411587   -889.06858    1662.2947   -15234.888    2.1050566   0.72873998 
    1400   -936.53992    52.770551   -883.76937    1890.0498    951.13865    2.1417783  0.081589513 
    1500   -947.25271    53.723783   -893.52893    1924.1911    6239.7422    2.1855067   0.95394792 
    1600   -946.95033    53.197296   -893.75303    1905.3342    15619.162    2.2054659   0.11429721 
    1700   -943.80849    46.774852   -897.03364    1675.3056    6456.7411    2.1831627   0.20566301 
    1800   -947.21259    44.050556   -903.16203    1577.7312   -12290.139    2.1461195   0.33768149 
    1900   -939.61659    46.462049   -893.15454    1664.1021   -6538.9287    2.1362524   0.10727797 
    2000   -939.56576     48.66282   -890.90294    1742.9257   -514.05628     2.152956   0.31366244 
    2100   -942.64524     50.69153   -891.95371    1815.5868    5299.1809    2.1758959   0.41515662 
    2200   -947.85438    49.588628   -898.26575    1776.0848    4785.0192    2.1859251   0.16930902 
    2300   -943.38553    53.424514   -889.96101    1913.4724    7916.0135    2.1774386   0.32281244 
    2400   -941.24446    50.070391   -891.17407    1793.3398   -2440.7559    2.1529307   0.24321143 
    2500   -937.85251    44.933656   -892.91885    1609.3606     -8095.91    2.1359729   0.29531957 
    2600   -934.44699    51.576143   -882.87085    1847.2704    701.89195    2.1416567   0.26832319 
    2700   -940.50331     49.28047   -891.22284    1765.0477   -1428.0789    2.1546004   0.31023441 
    2800   -945.58049    52.032186   -893.54831    1863.6042    1375.9232    2.1714519   0.32085001 
    2900   -943.99945    49.714229   -894.28522    1780.5834    4901.0196    2.1795182   0.23045073 
    3000   -941.80783    57.378047   -884.42978    2055.0736    4838.9604    2.1688798   0.17389037 
    3100   -941.17954    52.424823   -888.75471     1877.667   -5061.2574    2.1427114   0.19711684 
    3200   -938.93261    46.394635   -892.53798    1661.6876   -11556.984    2.1303796   0.29524704 
    3300   -936.39044    51.116232   -885.27421     1830.798   -913.39507    2.1471141   0.36741518 
    3400   -943.49903    49.798356   -893.70068    1783.5965    1260.1685     2.171261    0.1120852 
    3500   -944.42776    50.651105   -893.77665    1814.1389    8734.7806    2.1870822   0.35865137 
    3600    -945.7453    46.018479   -899.72682     1648.215    2545.5203    2.1822417   0.27679179 
    3700   -942.64897    53.020951   -889.62802    1899.0182    1928.9331    2.1672148   0.14706014 
    3800   -939.75044      50.9693   -888.78114    1825.5355   -2615.8678    2.1477947  0.063150067 
    3900   -938.62039    46.613734   -892.00666    1669.5349   -7147.9375    2.1389486    0.1853395 
    4000   -940.95817    55.390358   -885.56781    1983.8818   -4867.2139    2.1518138   0.34278943 
    4100   -936.58065     51.19321   -885.38744    1833.5551    6076.8404    2.1668398   0.27051289 
    4200   -942.52993     52.01324   -890.51669    1862.9256     2978.149    2.1672473  0.070539356 
    4300    -941.0904    46.398571   -894.69183    1661.8285    1107.9929    2.1628836   0.44370077 
    4400   -939.54469    52.010354   -887.53434    1862.8223    2457.2527    2.1596449   0.07207787 
    4500   -942.72537    49.455665    -893.2697    1771.3226   -3623.6478    2.1544946    0.1740681 
    4600   -944.14255    47.494831   -896.64772    1701.0926    -3651.411    2.1595128   0.48389358 
    4700   -940.83034    53.849022   -886.98131    1928.6767    5385.6604    2.1716202    0.1977641 
    4800   -940.72759    46.594763   -894.13283    1668.8554    2148.5846    2.1695496   0.20868884 
    4900   -942.73291    53.179682   -889.55323    1904.7033     849.3622    2.1603202   0.35762942 
    5000   -943.51186    48.687182   -894.82468    1743.7983   -5888.2498     2.151069   0.31969838 
    5100   -943.02838    54.943554   -888.08482    1967.8789   -1945.7908    2.1552149   0.68458258 
    5200   -939.85349    51.742704   -888.11079     1853.236    1949.0299    2.1622706   0.34016086 
    5300   -942.36233    47.115515   -895.24682    1687.5069   -1367.9656    2.1640218  0.079344277 
    5400   -943.48652    53.072347   -890.41417     1900.859    36.605327    2.1676902    0.1811172 
    5500   -937.72549    49.561745   -888.16375     1775.122    3159.9796    2.1650102   0.82524086 
    5600   -948.31607    50.602323   -897.71375    1812.3917   -7070.2284    2.1569305  0.079874846 
    5700   -941.91343    50.711391   -891.20203    1816.2981   -2199.2721    2.1616069    0.1834976 
    5800   -940.45838    54.752744   -885.70564    1961.0447    3938.1842    2.1687948     0.431406 
    5900   -943.02874    47.701214   -895.32752    1708.4845   -998.14624    2.1663994   0.26970951 
    6000    -941.6897    50.791451   -890.89825    1819.1656   -410.64604    2.1654787   0.16829481 
    6100   -939.60874     54.49084    -885.1179    1951.6643    3076.4954    2.1638114  0.020120292 
    6200   -940.21391    45.226199   -894.98771    1619.8384   -3404.5116    2.1569065   0.28510816 
    6300    -941.8094    49.719033   -892.09037    1780.7554   -1264.5309    2.1586176  0.069128862 
    6400    -941.1164    49.903499    -891.2129    1787.3624     1505.629    2.1670567   0.19179771 
    6500   -935.27951    52.010129   -883.26938    1862.8142    9120.4381    2.1703273   0.62728404 
    6600   -945.14378    51.562185    -893.5816    1846.7705   -3197.4981    2.1597564   0.17865202 
    6700   -943.01264    51.000154   -892.01248    1826.6406   -4323.0077    2.1555646   0.24174505 
    6800   -940.69314    51.984963   -888.70818    1861.9128   -10.101144     2.160747   0.37978228 
    6900   -945.24883    48.723084   -896.52575    1745.0842   -2993.5142    2.1665333   0.23781475 
    7000   -943.36057    47.192791   -896.16778    1690.2746    2810.4976    2.1772327   0.24188217 
    7100   -943.24489    50.861301   -892.38359    1821.6674    4406.1461    2.1821709   0.32633117 
    7200    -941.4135    51.302933   -890.11057     1837.485    2446.0466    2.1704289   0.52809364 
    7300   -945.02452    47.090917    -897.9336    1686.6259   -8783.5045     2.152371   0.13498214 
    7400   -941.31162    46.244279   -895.06734    1656.3024   -4034.9509    2.1536859   0.10121134 
    7500   -942.37927    52.451382   -889.92789    1878.6183    1026.5111    2.1713392   0.15352209 
    7600   -942.44293    47.039526    -895.4034    1684.7852    3088.3517    2.1830223    0.5423888 
    7700   -943.81592    54.693199   -889.12272    1958.9121    6127.3133    2.1803477   0.18202012 
    7800   -941.00653    46.759018   -894.24751    1674.7384   -2600.0305    2.1628387   0.19924462 
    7900    -940.8123    48.760129   -892.05217     1746.411   -5854.5391    2.1520945   0.38753308 
    8000    -936.1047    50.034108    -886.0706    1792.0403   -314.46899    2.1538631   0.20504121 
    8100   -939.92391    49.369629   -890.55428    1768.2411   -409.14036     2.159146   0.46793656 
    8200   -947.06936    52.245803   -894.82356    1871.2552   -1750.2023    2.1688258  0.057316255 
    8300    -942.3684    49.626901    -892.7415    1777.4556    4634.6848    2.1792768   0.18748175 
    8400   -939.62033    52.740292   -886.88004     1888.966    5834.6805    2.1752421   0.24367328 
    8500   -941.96513    49.286842   -892.67829    1765.2759   -4722.8085    2.1552789   0.37072672 
    8600   -941.75517     52.60481   -889.15036    1884.1135   -6553.1291    2.1451181  0.072334434 
    8700   -936.69257     50.93472   -885.75785    1824.2969    -1710.257    2.1499704   0.24130068 
    8800   -942.89103    47.649297   -895.24174     1706.625   -373.40746    2.1628966   0.33646736 
    8900   -942.76987    49.164643   -893.60523    1760.8992    7112.7951    2.1818356   0.16331641 
    9000   -939.22298    48.360543   -890.86244    1732.0993    9144.7681     2.185776   0.76241236 
    9100   -945.99946    50.223218   -895.77624    1798.8135   -2803.5645    2.1675703  0.093002557 
    9200   -945.37522    46.073232   -899.30199    1650.1761   -8920.5501    2.1533729   0.20023114 
    9300   -942.20557    51.820135   -890.38544    1856.0093   -1977.8178    2.1585045   0.21994868 
    9400   -942.61113     51.77904   -890.83209    1854.5374     1210.897    2.1688734   0.28721558 
    9500   -942.03212    49.234173   -892.79795    1763.3895    3195.2682    2.1744167   0.31908993 
    9600   -944.57504    52.694514   -891.88052    1887.3264    1287.0735    2.1713546   0.45250964 
    9700   -932.62079    51.595133   -881.02565    1847.9506    6922.8268    2.1585614   0.14335739 
    9800    -937.6578     51.15273   -886.50507    1832.1053   -5540.6079    2.1381238   0.65699724 
    9900   -944.61308    53.765851   -890.84723    1925.6978   -13260.843    2.1330869    1.2086849 
   10000   -939.55138    54.765953   -884.78543    1961.5178    413.55331    2.1524607    4.8493104 
   10100   -939.48664    49.200931   -890.28571    1762.1989    7163.1298    2.1718816     8.053584 
   10200   -943.21688    52.344797   -890.87209    1874.8008    6044.5704    2.1760834    10.195461 
   10300   -940.99103    47.627494   -893.36354    1705.8441    1517.5255    2.1638932    10.826645 
   10400   -945.08601    44.800688   -900.28532    1604.5982    -6770.199    2.1520369    11.213484 
   10500    -942.1486    52.020514   -890.12809    1863.1862   -2006.5305    2.1565754    10.470625 
   10600   -942.52177    50.977026   -891.54475    1825.8122    74.253711    2.1652611    13.372195 
   10700   -945.15812    50.620511   -894.53761    1813.0431    138.33578    2.1699103    14.049273 
   10800   -948.54041    47.221413     -901.319    1691.2998   -2883.7778      2.17122    12.017074 
   10900   -943.98343    51.594076   -892.38936    1847.9127     4524.675     2.176001    12.394567 
   11000   -937.69815    45.132777   -892.56537    1616.4924    5146.8151    2.1719288    13.584544 
   11100   -940.69357    47.861039   -892.83253    1714.2088   -182.25208    2.1599835     11.61625 
   11200   -938.67894    50.820199   -887.85875    1820.1952   -2479.3539    2.1506071    13.746871 
   11300   -940.23113    55.189737   -885.04139    1976.6962   -4751.8678    2.1451403    13.222407 
   11400   -941.51475    50.377503   -891.13724    1804.3395   -4505.0699    2.1460817    12.791706 
   11500   -944.37821    53.565906    -890.8123    1918.5365   -1358.4776    2.1606538    12.215415 
   11600   -942.94821    44.758047   -898.19016    1603.0709    4061.3017    2.1766758    12.939391 
   11700   -946.56012    46.862121     -899.698    1678.4312    5568.4613    2.1873561    12.290206 
   11800   -938.67723    46.972588   -891.70464    1682.3877    11735.621     2.183427    13.770143 
   11900   -940.13778    48.661479    -891.4763    1742.8777     137.9729    2.1590689    10.921331 
   12000   -943.74276     47.94141   -895.80135    1717.0875   -10985.814    2.1401624    12.714609 
   12100   -948.64519    47.759852   -900.88533    1710.5847   -11160.845    2.1512266    14.611981 
   12200   -943.46163    51.652212   -891.80942    1849.9949     8167.459     2.184811    12.800244 
   12300   -946.52574    55.396052   -891.12968    1984.0857    11418.792    2.1997335     11.74771 
   12400   -947.13932    51.743655   -895.39567    1853.2701    3973.7199    2.1806277    11.157076 
   12500   -945.11268    52.249568   -892.86311      1871.39   -6563.7497    2.1511831     13.25218 
   12600   -939.74559    53.192856   -886.55273    1905.1752   -9514.0457    2.1365008     15.20241 
   12700   -936.82175    44.903151    -891.9186     1608.268   -5690.3579    2.1426685    12.452006 
   12800   -943.39688    50.664679    -892.7322    1814.6251    103.97628    2.1679935    14.375848 
   12900   -946.77712    47.177881   -899.59924    1689.7406    7086.9534    2.1932476    10.898867 
   13000   -939.71503    50.961429    -888.7536    1825.2536    14561.652    2.1991277    12.847893 
   13100   -937.97765    46.195812   -891.78184    1654.5665     3772.226    2.1697359    12.767942 
   13200   -941.66529    47.536321   -894.12897    1702.5786   -11035.727    2.1344887    13.431568 
   13300   -938.47757    52.632065    -885.8455    1885.0897   -11700.353    2.1290187     12.60046 
   13400    -939.1808    53.233292   -885.94751    1906.6235   -1135.3625    2.1522195    11.935634 
   13500   -943.61029     50.14499    -893.4653    1796.0117    4226.8075    2.1821606    15.621116 
   13600   -941.75931    48.894784   -892.86452    1751.2339    11322.932    2.1966447    13.999761 
   13700    -944.8419    46.757657   -898.08424    1674.6897    4290.4415    2.1820764    12.335626 
   13800   -946.16012    48.818376   -897.34175    1748.4972   -4979.0954     2.158887    12.258943 
   13900   -940.45891    49.049427   -891.40949    1756.7726   -3561.2434    2.1505295    13.041658 
   14000   -936.74762    50.616403   -886.13122     1812.896    1288.7407    2.1558679     12.06457 
   14100   -943.71025     49.26896   -894.44129    1764.6355    -1935.531    2.1636354    12.047406 
   14200   -945.52932    53.280981   -892.24834    1908.3315    1521.8823    2.1725308     13.51536 
   14300   -941.53145    51.239451     -890.292    1835.2113    6473.5904    2.1745683    11.693512 
   14400   -942.26713    44.616329    -897.6508    1597.9951   -1770.2379     2.164264    13.442617 
   14500   -943.45845    45.483866   -897.97458    1629.0671   -4564.9208    2.1599585    13.477136 
   14600   -941.44048    51.670742   -889.76974    1850.6586    2466.2878    2.1668156    13.283102 
   14700   -939.99025    48.254358    -891.7359    1728.2961    3950.0257    2.1684036    12.256204 
   14800   -941.09938    43.820939   -897.27844    1569.5071    767.18745     2.166171    11.682895 
   14900   -938.33799    51.588068   -886.74992    1847.6975    3783.8503    2.1664433    13.520611 
   15000   -940.26824    50.756046    -889.5122    1817.8975    7.0295694    2.1584181    12.920062 
   15100   -942.54789    49.010401   -893.53749    1755.3748   -6117.6801    2.1509508    12.747683 
   15200   -938.94399    48.738516   -890.20547    1745.6369   -156.97751    2.1579059    12.995037 
   15300   -935.60387    49.758276   -885.84559     1782.161    6633.6638    2.1655519    17.922703 
   15400   -940.99759     49.03418   -891.96341    1756.2265    118.98712    2.1626856    12.203728 
   15500   -941.61063    48.978493   -892.63214     1754.232   -953.20592    2.1605724    13.616144 
   15600    -938.1286    53.514796   -884.61381    1916.7059    3408.4251    2.1624554    14.466932 
   15700    -937.4317    54.586578   -882.84512    1955.0933    2119.3793    2.1564848    14.240839 
   15800   -943.62533     51.29034   -892.33499     1837.034     -8041.37    2.1471247    12.349762 
   15900   -938.84625     49.42828   -889.41797    1770.3417   -2498.0035     2.152888    13.927913 
   16000   -943.09323    49.491294   -893.60193    1772.5987    -927.4636    2.1661876    13.709374 
   16100   -944.61922    49.204901   -895.41432    1762.3411    4417.4267    2.1787392    12.863395 
   16200   -941.21032    54.433531   -886.77679    1949.6117    6975.7798    2.1786785    14.160225 
   16300   -943.51184    48.519989   -894.99186      1737.81   -4205.6929    2.1581794    10.875297 
   16400   -940.62703    47.302007   -893.32502    1694.1864   -7052.2553    2.1441742    13.991325 
   16500   -938.44949    53.027221   -885.42227    1899.2427   -486.84077    2.1497083    13.786604 
   16600   -944.96922    52.668678   -892.30054    1886.4011   -2051.2869    2.1618061    11.086255 
   16700   -943.23887    46.030406   -897.20847    1648.6422    2455.3587    2.1767625    13.507573 
   16800    -942.7888    52.492443   -890.29635    1880.0889    8113.6662    2.1837006    12.777222 
   16900   -943.85074    48.242778   -895.60796    1727.8813    1919.2952    2.1699441    11.865412 
   17000   -942.36167    54.025333   -888.33633    1934.9915   -2345.7893    2.1519655    12.962687 
   17100   -938.40232    49.559856   -888.84246    1775.0543   -5477.8842    2.1429599    16.772647 
   17200   -938.25062    47.740716   -890.50991    1709.8993   -4360.2986    2.1464788     16.94044 
   17300    -946.5707     52.77744   -893.79326    1890.2965   -3757.7389    2.1619544    16.279898 
   17400    -938.7182    54.968008   -883.75019    1968.7547    8411.5428    2.1787496    19.878707 
   17500   -938.42436    47.544379   -890.87998    1702.8672    5112.2677    2.1740546    23.817863 
   17600   -942.22813    49.560208   -892.66792    1775.0669   -5214.1952    2.1570789      21.8929 
   17700    -935.6406     52.13379   -883.50681    1867.2433    261.92762    2.1460861    19.130008 
   17800    -940.0392    53.405692   -886.63351    1912.7982   -8080.3772    2.1402749    17.177177 
   17900   -942.16718    46.342701   -895.82448    1659.8275   -6890.0411    2.1526019    29.101147 
   18000   -940.78928    51.465117   -889.32416    1843.2939    7307.2056    2.1795243    18.207889 
   18100   -944.04901    50.599168   -893.44985    1812.2787    7599.1968    2.1896047    30.672138 
   18200   -941.96758     45.47747   -896.49011     1628.838    3633.5942    2.1769289     28.03841 
   18300   -941.13628    52.386397   -888.74988    1876.2908   -3898.4578    2.1543074     28.19799 
   18400   -935.77199    48.286497   -887.48549    1729.4472   -5683.7173    2.1371353    23.328163 
   18500   -935.36342    57.197405   -878.16601    2048.6036   -1417.7391    2.1386221    24.337012 
   18600   -940.58378    53.594646   -886.98913    1919.5659   -3838.0536    2.1493032    22.245584 
   18700   -944.23071    53.968599   -890.26211    1932.9595    167.96358    2.1667709    25.494603 
   18800   -943.83308    49.930157   -893.90292    1788.3172    3545.6557    2.1797097    29.115219 
   18900   -938.40327    52.056078   -886.34719    1864.4599    10665.879    2.1781439    28.298314 
   19000   -937.38914     51.72166   -885.66748    1852.4823     1327.066    2.1529348    22.204014 
   19100   -938.95669    47.822962   -891.13373    1712.8451   -11003.974    2.1301474    26.261984 
   19200   -937.03181    50.505514    -886.5263    1808.9243   -7360.7161    2.1368261    29.212106 
   19300   -938.48975    54.776105   -883.71364    1961.8814    3165.4852    2.1617024    25.142058 
   19400    -945.6453    53.105712   -892.53959     1902.054    2685.2937    2.1788833    23.465479 
   19500   -943.61342    51.729351   -891.88407    1852.7578    6672.8233    2.1822064    25.031264 
   19600   -938.42441    50.338943   -888.08547    1802.9584    4713.9539    2.1682065    27.709359 
   19700   -932.62459    48.466321   -884.15827    1735.8879    -3380.679    2.1437645    27.094857 
   19800   -939.22637    44.125442   -895.10092    1580.4133   -12732.325    2.1323198    27.405686 
   19900   -939.16087    48.107979   -891.05289    1723.0534    -3290.847    2.1537813    24.937512 
   20000   -941.08349    51.328314   -889.75518    1838.3941    6631.6087    2.1832783    28.566174 
   20100   -943.30648    45.859075    -897.4474    1642.5057    11366.642    2.1911626    26.500147 
   20200   -942.70438    50.182403   -892.52198    1797.3517    3833.9139    2.1768437    24.143202 
   20300   -938.99292    49.793022    -889.1999    1783.4055   -4244.4198    2.1508857    21.175574 
   20400   -940.79926    52.102854   -888.69641    1866.1353   -12521.223    2.1317664    25.870043 
   20500    -942.2316     51.17427   -891.05733    1832.8768   -8409.1361    2.1396998    26.965611 
   20600   -939.48162    54.772702   -884.70891    1961.7595    8400.7084    2.1704959    26.731155 
   20700    -940.4974    53.964968   -886.53244    1932.8294    9933.7958    2.1840482    24.933834 
   20800    -941.0308    48.582935   -892.44787    1740.0645    2074.0279    2.1686746    22.742306 
   20856    -940.4563     48.03876   -892.41754    1720.5742   -2441.7259    2.1569485    25.710434 
Loop time of 14.2598 on 1 procs for 20856 steps with 217 atoms

Performance: 90.886 ns/day, 0.264 hours/ns, 1462.573 timesteps/s
100.2% CPU use with 1 MPI tasks x no OpenMP threads

MPI task timing breakdown:
Section |  min time  |  avg time  |  max time  |%varavg| %total
---------------------------------------------------------------
Pair    | 13.873     | 13.873     | 13.873     |   0.0 | 97.29
Neigh   | 0.075075   | 0.075075   | 0.075075   |   0.0 |  0.53
Comm    | 0.08831    | 0.08831    | 0.08831    |   0.0 |  0.62
Output  | 0.0057826  | 0.0057826  | 0.0057826  |   0.0 |  0.04
Modify  | 0.1886     | 0.1886     | 0.1886     |   0.0 |  1.32
Other   |            | 0.02927    |            |       |  0.21

Nlocal:    217 ave 217 max 217 min
Histogram: 1 0 0 0 0 0 0 0 0 0
Nghost:    957 ave 957 max 957 min
Histogram: 1 0 0 0 0 0 0 0 0 0
Neighs:    4165 ave 4165 max 4165 min
Histogram: 1 0 0 0 0 0 0 0 0 0
FullNghs:  8330 ave 8330 max 8330 min
Histogram: 1 0 0 0 0 0 0 0 0 0

Total # of neighbors = 8330
Ave neighs/atom = 38.3871
Neighbor list builds = 128
Dangerous builds = 0
Total wall time: 0:00:14
