LAMMPS (3 Mar 2020)

# ---------- 1. Initialize simulation ----------
units metal
atom_style atomic
dimension 3
boundary p p p
read_data /home/modeler/RemLabs/Project/eval_timestep_nve_fluc/n3_T1800_timestep1.488176e-03_steps13440/20201206-085653/lammps.data
  orthogonal box = (0 0 0) to (17.469 17.469 17.469)
  1 by 1 by 1 MPI processor grid
  reading atoms ...
  217 atoms
  read_data CPU = 0.00113326 secs

pair_style meam/c
pair_coeff * * library.meam Li Si LiSi.meam Li Si
Reading potential file library.meam with DATE: 2012-06-29
Reading potential file LiSi.meam with DATE: 2020-11-07

group Li type 1
1 atoms in group Li

velocity all create 1800 3320 dist gaussian

# ---------- 2. Describe computed properties----------
compute msdli Li msd
thermo_style custom step pe ke etotal temp press density c_msdli[4]
thermo 100

# ---------- 3. Specify ensemble  ----------
#fix 1 all npt temp 1800 1800 0.07440878604078296 tchain 2 iso 1.0 1.0 1.0 pchain 2
# fix 1 all nvt temp 1800 1800 0.07440878604078296
fix 1 all nve

# ---------- 4. Run -------------
timestep 0.0014881757208156593
run 13440
Neighbor list info ...
  update every 1 steps, delay 10 steps, check yes
  max neighbors/atom: 2000, page size: 100000
  master list distance cutoff = 6
  ghost atom cutoff = 6
  binsize = 3, bins = 6 6 6
  2 neighbor lists, perpetual/occasional/extra = 2 0 0
  (1) pair meam/c, perpetual
      attributes: full, newton on
      pair build: full/bin/atomonly
      stencil: full/bin/3d
      bin: standard
  (2) pair meam/c, perpetual, half/full from (1)
      attributes: half, newton on
      pair build: halffull/newton
      stencil: none
      bin: none
Per MPI rank memory allocation (min/avg/max) = 9.27 | 9.27 | 9.27 Mbytes
Step PotEng KinEng TotEng Temp Press Density c_msdli[4] 
       0   -951.04357    50.256344   -900.78722         1800   -114161.75    1.8918427            0 
     100   -924.33213    23.612009   -900.72012    845.69654   -90223.346    1.8918427  0.068084296 
     200   -929.11882    28.382573   -900.73625    1016.5608    -92989.71    1.8918427  0.054670307 
     300   -926.33206    25.599633   -900.73243      916.886   -92240.248    1.8918427   0.04780035 
     400   -927.51905    26.787247    -900.7318    959.42204   -93868.817    1.8918427  0.058179596 
     500    -924.8054     24.07859   -900.72681    862.40778   -91172.668    1.8918427 0.0070968031 
     600    -925.6052    24.877784   -900.72742      891.032   -92572.034    1.8918427   0.37610892 
     700   -927.19877      26.4723   -900.72647    948.14179   -94054.011    1.8918427  0.061307221 
     800   -926.12735    25.393759   -900.73359    909.51237   -91174.435    1.8918427  0.017143564 
     900    -925.8064      25.0781    -900.7283    898.20658   -92275.588    1.8918427 0.0022349649 
    1000   -927.49976    26.764629   -900.73513    958.61195   -93524.777    1.8918427  0.025202564 
    1100   -928.47919    27.744948   -900.73424     993.7234    -93976.63    1.8918427   0.10199427 
    1200   -925.63463    24.908209   -900.72642    892.12171   -92773.733    1.8918427 0.0072768963 
    1300   -929.46521    28.732709    -900.7325    1029.1014   -93901.219    1.8918427  0.050701239 
    1400    -925.6567    24.929621   -900.72707    892.88863   -92332.133    1.8918427  0.025756314 
    1500   -928.58564    27.848322   -900.73731    997.42589   -92611.567    1.8918427  0.020348474 
    1600   -925.77817    25.049341   -900.72883    897.17656   -91754.703    1.8918427   0.02750095 
    1700   -925.08487     24.36131   -900.72356    872.53377   -90384.054    1.8918427  0.046391323 
    1800   -927.27831    26.547145   -900.73117    950.82246   -91148.037    1.8918427  0.068636853 
    1900   -928.55955    27.812884   -900.74666    996.15663   -94945.199    1.8918427   0.10975153 
    2000   -924.91468    24.194296   -900.72039    866.55195    -89130.23    1.8918427   0.10234167 
    2100   -926.13908    25.414885    -900.7242    910.26901   -90801.687    1.8918427  0.021095246 
    2200   -928.09906    27.364907   -900.73415    980.11172   -93602.155    1.8918427    0.1957486 
    2300   -927.12933    26.402518   -900.72681    945.64244   -92146.372    1.8918427  0.099152973 
    2400   -927.69637    26.959704   -900.73666    965.59882   -93284.725    1.8918427 0.0058553338 
    2500   -927.53888    26.805159   -900.73372    960.06358   -91865.158    1.8918427  0.076793269 
    2600    -929.4382    28.698254   -900.73995    1027.8674   -94428.753    1.8918427  0.094265281 
    2700   -927.29692    26.563698   -900.73322    951.41534   -92932.261    1.8918427   0.10810731 
    2800   -926.64561    25.916084   -900.72953    928.22016    -92000.74    1.8918427    0.0727251 
    2900   -926.49359    25.761483   -900.73211    922.68288   -93679.497    1.8918427   0.03401852 
    3000   -927.27004    26.544036     -900.726    950.71111   -92452.781    1.8918427    0.1741512 
    3100     -926.079     25.35125   -900.72775    907.98984   -91691.929    1.8918427 0.0049732654 
    3200   -925.69035    24.956774   -900.73358    893.86115   -92911.451    1.8918427   0.02377185 
    3300   -927.39292    26.659963   -900.73296    954.86318   -93250.642    1.8918427  0.060227551 
    3400   -926.35938     25.63264   -900.72674    918.06822   -93349.805    1.8918427  0.028525229 
    3500   -927.11607    26.381872    -900.7342    944.90297   -93296.846    1.8918427   0.09082252 
    3600   -926.08235    25.352075   -900.73028     908.0194   -90763.041    1.8918427  0.017263525 
    3700   -927.12643    26.396295   -900.73013    945.41957   -92867.812    1.8918427  0.045271391 
    3800   -927.08877    26.354401   -900.73437    943.91905   -92094.906    1.8918427   0.10721197 
    3900   -926.19145    25.462911   -900.72854    911.98912   -92253.786    1.8918427   0.22905531 
    4000   -926.41822    25.690477   -900.72774    920.13972   -93093.539    1.8918427  0.086087344 
    4100   -927.43889     26.70993   -900.72896    956.65282   -93918.734    1.8918427  0.012135047 
    4200   -925.81783     25.08903    -900.7288    898.59807   -92657.508    1.8918427 0.0039879963 
    4300   -928.06785    27.338086   -900.72977    979.15111   -94180.327    1.8918427  0.023403228 
    4400   -927.52662    26.795926   -900.73069     959.7329   -94191.092    1.8918427 0.0095828528 
    4500   -928.74838    28.009693   -900.73869    1003.2056   -94350.456    1.8918427  0.087215337 
    4600   -925.16314    24.442884   -900.72026    875.45547   -91006.318    1.8918427  0.087839494 
    4700   -926.86161    26.132679   -900.72893    935.97778   -93148.398    1.8918427  0.066699676 
    4800   -926.19414    25.462363   -900.73178    911.96952   -92121.432    1.8918427   0.12004009 
    4900   -925.78127     25.04804   -900.73323    897.12997   -93130.136    1.8918427  0.036044793 
    5000   -926.34211    25.619896   -900.72221    917.61178   -92149.306    1.8918427  0.052401923 
    5100   -927.22795    26.499576   -900.72838    949.11871   -93726.541    1.8918427  0.018193566 
    5200    -927.4973    26.771783   -900.72551    958.86819   -93158.071    1.8918427   0.21789144 
    5300   -927.53538    26.802719   -900.73266    959.97618   -93878.469    1.8918427   0.04882177 
    5400   -927.09348     26.36519   -900.72829     944.3055    -92329.73    1.8918427  0.029580146 
    5500   -926.57245    25.842808   -900.72964    925.59567   -93336.313    1.8918427   0.16008408 
    5600   -927.37699    26.645234   -900.73176    954.33565   -94123.299    1.8918427  0.025511972 
    5700   -925.44531      24.7245   -900.72081    885.54193   -91747.753    1.8918427  0.023728251 
    5800   -928.47728    27.738155   -900.73913    993.48012   -95234.719    1.8918427  0.080971751 
    5900    -927.2007     26.47334   -900.72736    948.17902   -93837.008    1.8918427  0.048930204 
    6000   -927.53041    26.800595   -900.72981    959.90013   -94475.785    1.8918427   0.24200582 
    6100   -926.61863    25.893431    -900.7252    927.40879   -93382.374    1.8918427  0.039916701 
    6200   -926.93645    26.204363   -900.73209    938.54525   -93145.675    1.8918427 0.0069338304 
    6300   -927.55767    26.829356   -900.72831    960.93022   -93408.213    1.8918427  0.089289939 
    6400   -926.65386    25.926599   -900.72726    928.59674   -92894.046    1.8918427  0.040690239 
    6500   -927.07483    26.340688   -900.73414    943.42791    -93250.56    1.8918427  0.019828955 
    6600   -926.10769       25.381   -900.72669    909.05539   -93792.369    1.8918427  0.017473318 
    6700   -926.01675    25.291171   -900.72558    905.83802   -92549.286    1.8918427  0.097885254 
    6800    -928.9795    28.243717   -900.73578    1011.5875   -94736.103    1.8918427  0.013605129 
    6900   -927.67288    26.941469   -900.73141    964.94571   -93968.701    1.8918427  0.020043486 
    7000   -925.16939    24.441564   -900.72783    875.40818   -90771.133    1.8918427  0.043401215 
    7100   -927.93252     27.20062    -900.7319    974.22757   -94530.943    1.8918427  0.030520298 
    7200   -927.62407    26.887207   -900.73687    963.00223   -93565.351    1.8918427  0.074069064 
    7300   -927.61362    26.884978   -900.72864    962.92241    -93358.22    1.8918427   0.02459307 
    7400   -926.95365    26.222423   -900.73122    939.19209   -94419.352    1.8918427  0.077611405 
    7500   -925.91328    25.190319   -900.72296    902.22586   -92838.333    1.8918427  0.078248709 
    7600   -926.00363    25.282595   -900.72104    905.53086   -92496.553    1.8918427  0.031229039 
    7700   -925.71987     24.98875   -900.73112    895.00639   -92830.284    1.8918427  0.035312453 
    7800   -925.81701    25.093194   -900.72382    898.74722   -91294.859    1.8918427  0.082950695 
    7900   -927.13299    26.401965   -900.73103    945.62264   -93882.767    1.8918427  0.012113606 
    8000     -927.277    26.552887   -900.72411    951.02813   -92936.219    1.8918427     0.112414 
    8100   -925.20277    24.484895   -900.71787    876.96015   -89920.704    1.8918427  0.078654858 
    8200     -926.555    25.829873   -900.72513    925.13237   -92745.895    1.8918427  0.016742022 
    8300   -927.71584    26.985123   -900.73072    966.50923   -92901.368    1.8918427 0.0030025015 
    8400     -927.126    26.391021   -900.73498    945.23068   -93078.178    1.8918427  0.076780015 
    8500   -926.28695    25.559222   -900.72773    915.43864   -92329.672    1.8918427    0.0424034 
    8600   -925.88362    25.159487   -900.72413    901.12158   -92589.891    1.8918427   0.08695184 
    8700   -926.57883    25.849669   -900.72916    925.84139   -92660.247    1.8918427  0.092993048 
    8800   -926.18116    25.451558   -900.72961     911.5825   -93051.956    1.8918427  0.025361306 
    8900   -926.56608    25.838563   -900.72752    925.44362   -92355.023    1.8918427  0.097987719 
    9000   -926.27396     25.54984   -900.72412    915.10262   -92944.567    1.8918427  0.051324727 
    9100    -926.8898    26.161493   -900.72831    937.00982   -92857.734    1.8918427   0.11044139 
    9200    -928.2561    27.518198    -900.7379    985.60207   -94852.343    1.8918427   0.15306542 
    9300   -927.77608     27.04536   -900.73072    968.66672   -92994.896    1.8918427   0.13883062 
    9400    -927.6847    26.958861   -900.72583    965.56864     -94562.7    1.8918427  0.035705481 
    9500   -928.09623    27.364358   -900.73187    980.09208   -94234.335    1.8918427   0.12260232 
    9600   -926.49651    25.767948   -900.72856    922.91446   -93134.639    1.8918427  0.059143118 
    9700   -927.39279    26.665058   -900.72773    955.04568   -93881.051    1.8918427   0.15076256 
    9800   -927.73558    27.004654   -900.73092    967.20876   -92780.771    1.8918427  0.012855599 
    9900   -925.71563    24.983237   -900.73239    894.80896   -92098.693    1.8918427  0.032234395 
   10000   -927.82283    27.093366   -900.72947    970.38612   -93227.542    1.8918427  0.041915448 
   10100    -925.8497    25.117441   -900.73225    899.61566   -92560.584    1.8918427  0.058772359 
   10200   -925.96152    25.232184   -900.72933    903.72531   -92140.179    1.8918427   0.12226611 
   10300   -926.71988     25.98918    -900.7307    930.83816   -93705.164    1.8918427   0.10299444 
   10400   -926.97416    26.238981   -900.73518    939.78515   -93796.541    1.8918427  0.036665899 
   10500   -926.15062    25.423384   -900.72724    910.57342   -93377.606    1.8918427   0.03935517 
   10600   -927.26843    26.532311   -900.73612    950.29117   -93725.934    1.8918427  0.043476546 
   10700    -926.3442    25.619292    -900.7249    917.59014   -92620.169    1.8918427  0.038408114 
   10800   -926.75575    26.032178   -900.72358    932.37819   -93730.272    1.8918427   0.16207942 
   10900   -924.97838     24.25388    -900.7245    868.68603   -92340.811    1.8918427   0.16598113 
   11000   -929.28534    28.550927   -900.73441    1022.5907   -94415.602    1.8918427  0.047812196 
   11100   -925.21212    24.484764   -900.72736    876.95547   -92242.608    1.8918427  0.061398181 
   11200    -928.3753    27.645723   -900.72958    990.16952   -94173.868    1.8918427   0.01986029 
   11300   -927.93289    27.196419   -900.73647    974.07711   -94175.456    1.8918427   0.11309192 
   11400   -924.70098      23.9818   -900.71918    858.94109   -91667.436    1.8918427  0.025773615 
   11500    -928.2233    27.489898    -900.7334    984.58844   -94804.837    1.8918427   0.05027626 
   11600   -926.87875     26.14763   -900.73112    936.51329   -93673.157    1.8918427    0.1196188 
   11700   -926.27055    25.548285   -900.72227    915.04693   -93226.502    1.8918427   0.08654663 
   11800   -926.44005    25.710371   -900.72968    920.85226   -93573.353    1.8918427  0.098242058 
   11900   -925.69692    24.971473   -900.72544    894.38761   -92841.531    1.8918427   0.12641918 
   12000   -928.75717    28.017341   -900.73983    1003.4795    -95830.41    1.8918427  0.044780409 
   12100   -926.88944    26.164473   -900.72497    937.11655   -92612.701    1.8918427   0.10591472 
   12200   -926.95132    26.220511   -900.73081    939.12361   -91256.024    1.8918427  0.021860577 
   12300   -927.36454    26.636495   -900.72804    954.02267   -93322.235    1.8918427   0.18929039 
   12400    -927.7905    27.059777   -900.73072    969.18307   -92780.982    1.8918427  0.025836893 
   12500   -925.18207     24.45768   -900.72439    875.98541   -90018.515    1.8918427  0.013728338 
   12600   -925.40683    24.679377   -900.72745    883.92578   -92644.694    1.8918427   0.13849356 
   12700    -926.3291    25.597824   -900.73127    916.82122   -94436.409    1.8918427  0.059526356 
   12800   -925.28358    24.559681   -900.72389    879.63872   -91154.446    1.8918427   0.12608825 
   12900   -927.25057    26.522078   -900.72849    949.92466   -92541.214    1.8918427  0.036911202 
   13000   -926.88361    26.159534   -900.72408    936.93966    -92775.91    1.8918427  0.018061601 
   13100   -927.07013    26.342679   -900.72745    943.49921   -91692.731    1.8918427  0.020467249 
   13200   -925.79484    25.073357   -900.72148    898.03673    -91217.14    1.8918427   0.27384176 
   13300   -925.87557    25.153017   -900.72255    900.88986   -91711.545    1.8918427  0.073645483 
   13400   -926.11819     25.38956   -900.72863    909.36197   -92881.169    1.8918427  0.035001965 
   13440   -927.08625    26.354215   -900.73204    943.91242   -93394.214    1.8918427  0.092740611 
Loop time of 7.11226 on 1 procs for 13440 steps with 217 atoms

Performance: 242.974 ns/day, 0.099 hours/ns, 1889.695 timesteps/s
100.0% CPU use with 1 MPI tasks x no OpenMP threads

MPI task timing breakdown:
Section |  min time  |  avg time  |  max time  |%varavg| %total
---------------------------------------------------------------
Pair    | 7.0028     | 7.0028     | 7.0028     |   0.0 | 98.46
Neigh   | 0          | 0          | 0          |   0.0 |  0.00
Comm    | 0.057061   | 0.057061   | 0.057061   |   0.0 |  0.80
Output  | 0.0038399  | 0.0038399  | 0.0038399  |   0.0 |  0.05
Modify  | 0.029561   | 0.029561   | 0.029561   |   0.0 |  0.42
Other   |            | 0.01898    |            |       |  0.27

Nlocal:    217 ave 217 max 217 min
Histogram: 1 0 0 0 0 0 0 0 0 0
Nghost:    957 ave 957 max 957 min
Histogram: 1 0 0 0 0 0 0 0 0 0
Neighs:    3702 ave 3702 max 3702 min
Histogram: 1 0 0 0 0 0 0 0 0 0
FullNghs:  7404 ave 7404 max 7404 min
Histogram: 1 0 0 0 0 0 0 0 0 0

Total # of neighbors = 7404
Ave neighs/atom = 34.1198
Neighbor list builds = 0
Dangerous builds = 0
Total wall time: 0:00:07
