LAMMPS (3 Mar 2020)

# ---------- 1. Initialize simulation ----------
units metal
atom_style atomic
dimension 3
boundary p p p
read_data /home/modeler/RemLabs/Project/eval_timestep/n3_T1800_timestep1.896345e-03_steps7910/20201204-075007/lammps.data
  orthogonal box = (0 0 0) to (17.469 17.469 17.469)
  1 by 1 by 1 MPI processor grid
  reading atoms ...
  217 atoms
  read_data CPU = 0.00105955 secs

pair_style meam/c
pair_coeff * * library.meam Li Si LiSi.meam Li Si
Reading potential file library.meam with DATE: 2012-06-29
Reading potential file LiSi.meam with DATE: 2020-11-07

group Li type 1
1 atoms in group Li

velocity all create 1800 3320 dist gaussian

# ---------- 2. Describe computed properties----------
compute msdli Li msd
thermo_style custom step pe ke etotal temp press density c_msdli[4]
thermo 100

# ---------- 3. Specify ensemble  ----------
#fix 1 all nve
fix 1 all nvt temp 1800 1800 0.09481725476830624
#fix 1 all npt temp 1800 1800 0.09481725476830624 tchain 2 iso 1.0 1.0 1.0 pchain 2

# ---------- 4. Run -------------
timestep 0.0018963450953661247
run 7910
Neighbor list info ...
  update every 1 steps, delay 10 steps, check yes
  max neighbors/atom: 2000, page size: 100000
  master list distance cutoff = 6
  ghost atom cutoff = 6
  binsize = 3, bins = 6 6 6
  2 neighbor lists, perpetual/occasional/extra = 2 0 0
  (1) pair meam/c, perpetual
      attributes: full, newton on
      pair build: full/bin/atomonly
      stencil: full/bin/3d
      bin: standard
  (2) pair meam/c, perpetual, half/full from (1)
      attributes: half, newton on
      pair build: halffull/newton
      stencil: none
      bin: none
Per MPI rank memory allocation (min/avg/max) = 9.27 | 9.27 | 9.27 Mbytes
Step PotEng KinEng TotEng Temp Press Density c_msdli[4] 
       0   -951.06911    50.256344   -900.81276         1800    -114182.3    1.8918427            0 
     100   -921.33833    37.147275   -884.19106    1330.4807   -84239.034    1.8918427  0.095232043 
     200   -904.11637    44.633146   -859.48322    1598.5974   -67162.879    1.8918427   0.13884713 
     300    -900.3521    54.857493   -845.49461    1964.7965   -61177.281    1.8918427  0.091834463 
     400   -907.06023     50.83927   -856.22096    1820.8783   -68290.832    1.8918427   0.12353026 
     500   -906.24126    49.211856    -857.0294    1762.5902   -66864.281    1.8918427 0.0036772446 
     600   -899.94022    51.617302   -848.32292    1848.7446   -60834.853    1.8918427  0.086670992 
     700   -907.10997    52.929303   -854.18067    1895.7357   -66302.545    1.8918427   0.14692366 
     800    -906.7594    48.974371   -857.78503    1754.0844   -69167.922    1.8918427   0.35881372 
     900   -903.51747    54.589344   -848.92812    1955.1923   -64129.502    1.8918427  0.022280092 
    1000   -903.15692    50.380417   -852.77651    1804.4438   -61137.509    1.8918427  0.064650645 
    1100   -902.34628    48.680332   -853.66595    1743.5529    -62862.82    1.8918427   0.13665701 
    1200   -901.43426    50.786561    -850.6477    1818.9904   -66026.858    1.8918427    1.1667773 
    1300   -899.06957    50.963168    -848.1064    1825.3159   -58640.648    1.8918427   0.18828276 
    1400   -904.66253    47.574528     -857.088    1703.9471   -66874.808    1.8918427   0.61364672 
    1500   -902.71273    51.177018   -851.53571    1832.9752   -66854.735    1.8918427   0.22926188 
    1600   -899.63166    49.705271   -849.92639    1780.2626   -62919.964    1.8918427   0.38170017 
    1700   -901.89802    46.675224   -855.22279    1671.7373   -65262.997    1.8918427    0.1863255 
    1800   -904.59753    49.692264   -854.90527    1779.7967   -67845.912    1.8918427   0.91677234 
    1900   -902.30496    55.619833   -846.68513    1992.1007   -64400.622    1.8918427   0.58053095 
    2000   -901.07962    45.847244   -855.23237     1642.082   -64791.534    1.8918427   0.57004098 
    2100   -904.59098    51.445993   -853.14499    1842.6089   -66928.818    1.8918427   0.42367733 
    2200    -896.7996    50.389854   -846.40975    1804.7818   -58906.113    1.8918427     2.391912 
    2300   -900.06864    50.963589   -849.10506     1825.331   -63722.384    1.8918427    5.8787387 
    2400   -906.49588    51.671231   -854.82465    1850.6761   -70808.328    1.8918427    6.8951979 
    2500   -901.10971    53.802863   -847.30685    1927.0234    -63116.51    1.8918427      5.71126 
    2600   -906.52145    50.158066   -856.36338      1796.48   -67219.184    1.8918427    6.0372645 
    2700   -905.77667    51.661852   -854.11482    1850.3402   -68610.087    1.8918427    5.5690976 
    2800    -903.8848    54.563509   -849.32129     1954.267   -67748.575    1.8918427      5.63507 
    2900   -905.12319    43.820719   -861.30247    1569.4993   -71955.839    1.8918427    7.9934851 
    3000   -899.30271    44.250733   -855.05197    1584.9008   -65509.682    1.8918427    4.2625363 
    3100   -900.84798    51.632806   -849.21517    1849.2999   -64750.792    1.8918427    9.0479942 
    3200   -906.73129    48.900932   -857.83035     1751.454   -71813.279    1.8918427    7.6457682 
    3300   -904.42251    49.011662   -855.41085      1755.42   -68897.225    1.8918427    9.5453075 
    3400   -902.50724    50.681645    -851.8256    1815.2327   -65473.989    1.8918427    8.9965867 
    3500   -898.56977    47.711329   -850.85844    1708.8468   -62431.927    1.8918427    2.3792341 
    3600    -903.0088    50.618105    -852.3907    1812.9569   -67551.728    1.8918427    1.2799487 
    3700   -901.63019    45.608044   -856.02214    1633.5147    -67507.92    1.8918427    6.9368315 
    3800   -901.55466    54.786241   -846.76842    1962.2445   -65134.721    1.8918427     5.610113 
    3900   -901.94732    50.922021    -851.0253    1823.8421   -66784.581    1.8918427    5.8740781 
    4000   -903.08559    49.966191   -853.11939    1789.6077   -68016.289    1.8918427     6.682933 
    4100   -906.67928    57.747403   -848.93188    2068.3025   -68987.342    1.8918427    1.4584771 
    4200   -902.60128    58.302911   -844.29837    2088.1988   -63844.345    1.8918427   0.81531138 
    4300   -904.83721    50.765751   -854.07146    1818.2451   -68921.056    1.8918427    0.5915233 
    4400    -903.0132    51.452233   -851.56097    1842.8324   -67030.232    1.8918427    6.0996925 
    4500   -899.88633    54.739234   -845.14709    1960.5609   -61534.471    1.8918427    8.7377623 
    4600   -899.98635    47.813946   -852.17241    1712.5221   -64501.285    1.8918427     5.463796 
    4700   -900.35359    47.251777   -853.10181    1692.3873   -64876.862    1.8918427    8.8098478 
    4800    -898.7922    52.242599    -846.5496    1871.1404   -63274.111    1.8918427    5.8574821 
    4900   -904.49753    49.067674   -855.42985    1757.4261   -69551.374    1.8918427    7.8179994 
    5000   -905.57607    51.360216   -854.21585    1839.5367   -69630.556    1.8918427    3.7568999 
    5100   -898.25411    49.276516    -848.9776    1764.9061   -64890.324    1.8918427    4.4044429 
    5200   -899.67347    47.399749   -852.27372    1697.6871   -63000.084    1.8918427    4.5609037 
    5300   -904.63221     45.91345   -858.71876    1644.4533   -69179.252    1.8918427    6.4671305 
    5400   -902.41953    46.817186   -855.60234    1676.8218   -64901.694    1.8918427    4.4791518 
    5500   -901.55024      51.4789   -850.07135    1843.7875   -67384.485    1.8918427    10.282262 
    5600   -901.90823    45.909219   -855.99901    1644.3017   -66668.315    1.8918427    10.562916 
    5700   -906.21376     49.37534   -856.83842    1768.4456   -69720.868    1.8918427    16.527014 
    5800   -899.53937    49.717639   -849.82173    1780.7055   -60567.627    1.8918427    15.854471 
    5900   -902.88805      46.5034   -856.38465    1665.5831   -65629.262    1.8918427     13.71656 
    6000   -903.90886    56.267197   -847.64167    2015.2869   -66630.474    1.8918427    26.688442 
    6100   -901.43448    51.355769   -850.07871    1839.3774    -65813.57    1.8918427    14.639559 
    6200   -905.18052    50.595966   -854.58455     1812.164   -68843.995    1.8918427    21.241105 
    6300   -898.93032    49.574822    -849.3555    1775.5903   -64170.028    1.8918427    11.571288 
    6400   -895.65503    55.253563   -840.40147    1978.9822   -59114.008    1.8918427    6.4151813 
    6500   -896.90571    46.043452   -850.86226    1649.1095   -63432.899    1.8918427    9.3054827 
    6600   -900.05716    46.491814   -853.56534    1665.1682   -66894.208    1.8918427    1.7113124 
    6700   -894.90825    50.433178   -844.47508    1806.3335   -59302.083    1.8918427    6.2594691 
    6800   -901.38887     50.36197    -851.0269    1803.7831   -66824.181    1.8918427    5.5539813 
    6900   -905.49647    52.273223   -853.22325    1872.2373    -68570.78    1.8918427    2.4176605 
    7000   -900.82204    51.707651   -849.11439    1851.9805   -62915.687    1.8918427   0.11160661 
    7100    -902.8919    51.388459   -851.50344    1840.5483   -66249.211    1.8918427   0.11528491 
    7200   -906.22069    50.337667   -855.88302    1802.9127   -68532.598    1.8918427  0.045544072 
    7300   -898.36085    47.984538   -850.37631    1718.6321    -62913.87    1.8918427   0.23309198 
    7400   -899.45523     60.95049   -838.50474    2183.0255   -60103.528    1.8918427    0.9591924 
    7500   -904.35338    54.662482    -849.6909    1957.8119   -66098.628    1.8918427   0.60173027 
    7600   -904.31135    48.151934   -856.15942    1724.6276   -67219.449    1.8918427   0.36551022 
    7700   -898.84217    51.195902   -847.64626    1833.6515   -63140.187    1.8918427   0.35951339 
    7800   -902.49035     52.08413   -850.40622    1865.4647   -66150.179    1.8918427   0.67575181 
    7900   -898.99933    46.030446   -852.96889    1648.6436    -63642.89    1.8918427   0.78368115 
    7910   -900.58209    47.506769   -853.07533    1701.5202   -64591.998    1.8918427    0.2518824 
Loop time of 4.41537 on 1 procs for 7910 steps with 217 atoms

Performance: 293.522 ns/day, 0.082 hours/ns, 1791.470 timesteps/s
100.0% CPU use with 1 MPI tasks x no OpenMP threads

MPI task timing breakdown:
Section |  min time  |  avg time  |  max time  |%varavg| %total
---------------------------------------------------------------
Pair    | 4.2115     | 4.2115     | 4.2115     |   0.0 | 95.38
Neigh   | 0.12283    | 0.12283    | 0.12283    |   0.0 |  2.78
Comm    | 0.035561   | 0.035561   | 0.035561   |   0.0 |  0.81
Output  | 0.002395   | 0.002395   | 0.002395   |   0.0 |  0.05
Modify  | 0.033377   | 0.033377   | 0.033377   |   0.0 |  0.76
Other   |            | 0.009662   |            |       |  0.22

Nlocal:    217 ave 217 max 217 min
Histogram: 1 0 0 0 0 0 0 0 0 0
Nghost:    873 ave 873 max 873 min
Histogram: 1 0 0 0 0 0 0 0 0 0
Neighs:    3620 ave 3620 max 3620 min
Histogram: 1 0 0 0 0 0 0 0 0 0
FullNghs:  7240 ave 7240 max 7240 min
Histogram: 1 0 0 0 0 0 0 0 0 0

Total # of neighbors = 7240
Ave neighs/atom = 33.3641
Neighbor list builds = 224
Dangerous builds = 0
Total wall time: 0:00:04
