LAMMPS (3 Mar 2020)

    # ---------- Initialize simulation ---------------------
    units metal
    atom_style atomic
    dimension  3
    boundary   p p p
    read_data /home/modeler/RemLabs/Lab4/Problem2A_size_3/temp_1380/lammps.data
  orthogonal box = (0 0 0) to (12.27 12.27 12.27)
  1 by 1 by 1 MPI processor grid
  reading atoms ...
  108 atoms
  read_data CPU = 0.000891402 secs

    pair_style eam
    pair_coeff * * /usr/share/lammps-stable/potentials/Ag_u3.eam
Reading potential file /usr/share/lammps-stable/potentials/Ag_u3.eam with DATE: 2007-06-11

    velocity  all create 1380 87287 dist gaussian

    # ---------- Describe computed properties------------------
    compute msdall all msd
    thermo_style custom step pe ke etotal temp press density c_msdall[4]
    thermo 100

    # ---------- Specify ensemble  ---------------------
    #fix  1 all nve
    fix  1 all nvt temp 1380 1380 0.05

    # --------- Compute RDF ---------------
    compute rdfall all rdf 100 1 1
    fix 2 all ave/time 1 2500 2500 c_rdfall[*] file /home/modeler/RemLabs/Lab4/Problem2A_size_3/temp_1380/lammps.rdf mode vector

    # --------- Run -------------
    timestep 0.001
    run 10000
Neighbor list info ...
  update every 1 steps, delay 10 steps, check yes
  max neighbors/atom: 2000, page size: 100000
  master list distance cutoff = 7.55
  ghost atom cutoff = 7.55
  binsize = 3.775, bins = 4 4 4
  2 neighbor lists, perpetual/occasional/extra = 1 1 0
  (1) pair eam, perpetual
      attributes: half, newton on
      pair build: half/bin/atomonly/newton
      stencil: half/bin/3d/newton
      bin: standard
  (2) compute rdf, occasional, copy from (1)
      attributes: half, newton on
      pair build: copy
      stencil: none
      bin: none
Per MPI rank memory allocation (min/avg/max) = 3.723 | 3.723 | 3.723 Mbytes
Step PotEng KinEng TotEng Temp Press Density c_msdall[4] 
       0       -307.8    19.086553   -288.71345         1380    11035.973    10.472245            0 
     100   -295.46018    11.598339   -283.86184    838.58555    48415.752    10.472245  0.075504594 
     200   -291.72882    19.322534   -272.40628     1397.062     65589.03    10.472245   0.08903773 
     300    -287.0555    22.824964   -264.23054    1650.2954    83529.316    10.472245   0.10685643 
     400   -288.13638    17.556501   -270.57988    1269.3738    76414.609    10.472245   0.11515248 
     500   -290.87169    21.270554   -269.60114    1537.9081    71329.014    10.472245  0.084582419 
     600   -290.53221    18.294072   -272.23814    1322.7019    68080.098    10.472245  0.095509867 
     700   -288.27673    19.127287   -269.14945    1382.9452    77719.778    10.472245   0.11197635 
     800   -288.70662    19.623832   -269.08279    1418.8465     75776.16    10.472245   0.10388791 
     900   -288.94645    18.333676   -270.61277    1325.5653    73120.788    10.472245   0.10488902 
    1000   -288.47893    21.510008   -266.96892    1555.2212    78346.148    10.472245  0.099206253 
    1100   -287.05445    19.897241   -267.15721    1438.6146    82675.339    10.472245   0.12504762 
    1200    -287.8273    18.182231   -269.64507    1314.6155    78996.765    10.472245   0.12789896 
    1300   -286.65161     21.16907   -265.48254    1530.5706    84432.242    10.472245   0.11303589 
    1400   -288.35691    19.067788   -269.28912    1378.6433    77402.249    10.472245  0.094655768 
    1500   -289.02032    17.572846   -271.44748    1270.5556    74171.025    10.472245   0.10717093 
    1600   -287.86655    21.383143   -266.48341    1546.0486    79410.675    10.472245   0.11289219 
    1700   -287.65812    19.297769   -268.36035    1395.2714    79124.087    10.472245   0.11239846 
    1800   -290.18274    19.801784   -270.38095    1431.7128    71875.955    10.472245  0.098836717 
    1900   -289.94792     15.55057   -274.39735    1124.3406    71053.544    10.472245   0.11032106 
    2000   -290.38051    20.369806   -270.01071     1472.782    71002.827    10.472245  0.094536312 
    2100   -288.29405    19.156533   -269.13751    1385.0597     76793.56    10.472245   0.10973302 
    2200   -286.69303    20.680957   -266.01208    1495.2789     83095.52    10.472245   0.12151866 
    2300   -288.44101    17.550605   -270.89041    1268.9476    75989.475    10.472245   0.11196096 
    2400   -289.11994    18.451979   -270.66796    1334.1189    74936.667    10.472245  0.085824654 
    2500   -292.25863    17.911649   -274.34698    1295.0519    63051.943    10.472245  0.080965189 
    2600   -288.27771    18.122763   -270.15495    1310.3158    77778.375    10.472245   0.10116394 
    2700   -287.71621    19.492114   -268.22409     1409.323    78503.106    10.472245   0.10403882 
    2800   -290.03987    19.205154   -270.83471    1388.5751    72050.351    10.472245  0.092439031 
    2900   -289.61077    15.043145   -274.56763    1087.6526    71578.458    10.472245  0.092819728 
    3000   -289.08827    18.266147   -270.82212    1320.6828    74415.459    10.472245  0.094681489 
    3100    -287.6306    20.061472   -267.56913    1450.4888    81367.392    10.472245   0.11194333 
    3200   -287.60963     24.48705   -263.12258    1770.4679    81331.638    10.472245   0.11712968 
    3300   -287.01385     17.49745    -269.5164    1265.1043    81270.138    10.472245   0.12717276 
    3400   -287.57646    19.928185   -267.64828    1440.8519    81026.076    10.472245   0.11339821 
    3500   -289.26168    19.317314   -269.94437    1396.6845    73084.686    10.472245  0.093382999 
    3600   -291.44863    18.491847   -272.95678    1337.0014    66329.985    10.472245  0.083575282 
    3700   -289.40836    20.625509   -268.78285      1491.27    74844.786    10.472245  0.090606325 
    3800   -287.98406     18.30244   -269.68162    1323.3069    78419.696    10.472245   0.10623423 
    3900   -288.68326    16.382259     -272.301    1184.4736    74986.317    10.472245    0.1133029 
    4000   -287.29395    19.617772   -267.67617    1418.4083    81400.348    10.472245   0.10683598 
    4100   -287.90428    17.700709   -270.20358    1279.8004    77197.207    10.472245   0.10471027 
    4200      -289.91    16.477189   -273.43281    1191.3372    70975.189    10.472245  0.087973408 
    4300   -289.95736    19.533928   -270.42343    1412.3462     73067.13    10.472245  0.087662411 
    4400   -287.91502    19.220493   -268.69453    1389.6841    78442.082    10.472245   0.11470406 
    4500   -284.04431    18.645463   -265.39885    1348.1082     88698.78    10.472245   0.12666324 
    4600   -290.07697    19.210682   -270.86629    1388.9748    71180.909    10.472245  0.096129552 
    4700   -289.48497    17.908163   -271.57681    1294.7998    72280.649    10.472245   0.10125363 
    4800   -287.00025    18.877303   -268.12295    1364.8708    80124.516    10.472245   0.11669441 
    4900   -288.16113    21.445011   -266.71612    1550.5217    77821.983    10.472245   0.11228159 
    5000   -288.15886    17.825706   -270.33316    1288.8379    75829.572    10.472245   0.12302634 
    5100   -287.73123    18.074957   -269.65628    1306.8594    78720.731    10.472245   0.10309382 
    5200   -292.18103    16.671535    -275.5095    1205.3888    62729.313    10.472245  0.088644826 
    5300   -289.91375    17.317624   -272.59612    1252.1025    71438.098    10.472245   0.10393068 
    5400   -288.24497    21.030102   -267.21486    1520.5229    79331.716    10.472245   0.10532853 
    5500   -289.08821    18.417808    -270.6704    1331.6482    74467.114    10.472245   0.10281099 
    5600   -289.48366    19.184171   -270.29949     1387.058    73278.067    10.472245   0.10520674 
    5700   -284.49941     18.03879   -266.46062    1304.2444    89640.283    10.472245   0.12247238 
    5800   -288.69023    20.105423   -268.58481    1453.6666    76521.138    10.472245   0.10620111 
    5900   -289.42616    18.552059    -270.8741    1341.3549     72470.75    10.472245  0.098426254 
    6000   -288.65174    18.952033   -269.69971    1370.2739    75500.949    10.472245   0.10360318 
    6100   -286.58405    23.633188   -262.95086    1708.7318    85777.308    10.472245   0.11517207 
    6200   -287.97251      20.8455   -267.12701    1507.1758    78839.652    10.472245   0.11520713 
    6300   -290.27317    18.564472    -271.7087    1342.2524    70776.729    10.472245   0.10305889 
    6400   -290.08297     21.75351   -268.32946    1572.8269    73297.271    10.472245   0.10190787 
    6500    -287.7776    19.131157   -268.64644     1383.225    78461.676    10.472245   0.10920383 
    6600   -289.38161    17.833041   -271.54856    1289.3683     73003.73    10.472245   0.10353444 
    6700   -291.16999    17.836365   -273.33363    1289.6087     66627.36    10.472245  0.091203656 
    6800   -286.83034    18.416598   -268.41374    1331.5607    82061.593    10.472245   0.11319238 
    6900   -287.56362    19.893312   -267.67031    1438.3305    79195.727    10.472245   0.11350213 
    7000   -290.26053     18.70849   -271.55204    1352.6652    69987.085    10.472245  0.089386849 
    7100   -291.84196    17.889547   -273.95241    1293.4538    65029.066    10.472245  0.079392188 
    7200   -291.64883    21.071153   -270.57767     1523.491    67472.064    10.472245   0.09136948 
    7300   -288.04636    20.713511   -267.33285    1497.6327    77238.153    10.472245   0.11578705 
    7400   -288.10969    18.537415   -269.57227    1340.2961    77855.343    10.472245   0.10959248 
    7500   -290.74356    19.938753   -270.80481    1441.6159    70043.384    10.472245  0.087635608 
    7600   -289.43726    18.882513   -270.55475    1365.2475     72613.91    10.472245  0.099981038 
    7700   -286.81166     20.89492   -265.91674    1510.7489    82980.298    10.472245   0.10889072 
    7800   -289.55616    16.978391   -272.57777    1227.5752    72029.739    10.472245    0.1032067 
    7900   -290.16702    20.971195   -269.19583    1516.2638    72006.978    10.472245  0.081351676 
    8000   -289.96608    18.879035   -271.08704     1364.996     71900.66    10.472245  0.083307345 
    8100    -290.1615    17.775561   -272.38594    1285.2124    70847.328    10.472245  0.096656983 
    8200   -287.33294    20.066537   -267.26641     1450.855    82105.716    10.472245   0.10724231 
    8300   -290.40977    18.952018   -271.45775    1370.2728    70276.614    10.472245   0.09181896 
    8400   -290.64653    18.721928   -271.92461    1353.6368    69603.388    10.472245  0.088320765 
    8500     -289.125    20.583773   -268.54123    1488.2523    74650.727    10.472245  0.099897229 
    8600   -289.53862    16.303814    -273.2348    1178.8018    72446.058    10.472245   0.12391245 
    8700   -288.30748    17.402569   -270.90491    1258.2443    75321.842    10.472245   0.10988877 
    8800    -289.2288    18.921015   -270.30778    1368.0312    74593.226    10.472245   0.09392628 
    8900     -290.153    16.901563   -273.25143    1222.0204    70830.944    10.472245  0.097770707 
    9000   -288.01034    19.217563   -268.79278    1389.4723    77818.903    10.472245  0.092168049 
    9100   -288.86144    17.765628   -271.09581    1284.4942    73683.266    10.472245   0.10119629 
    9200   -289.39222    16.699587   -272.69263    1207.4171    72160.081    10.472245   0.09407645 
    9300   -288.76875    19.019854    -269.7489    1375.1775    75055.049    10.472245  0.085315248 
    9400   -289.87323    17.800877   -272.07235    1287.0428    72846.971    10.472245  0.088968993 
    9500   -289.86007    21.848638   -268.01143    1579.7049    73037.387    10.472245  0.092248138 
    9600   -287.86448     19.42158    -268.4429    1404.2232     77680.84    10.472245   0.11047683 
    9700   -286.00865    16.441959   -269.56669      1188.79    82320.688    10.472245   0.11707029 
    9800   -288.79264    18.087935    -270.7047    1307.7977    74637.427    10.472245   0.10709126 
    9900   -288.17272    20.019667   -268.15306    1447.4662    77204.589    10.472245    0.1108744 
   10000   -288.22708     18.93754   -269.28954     1369.226    77601.436    10.472245   0.11517816 
Loop time of 2.13273 on 1 procs for 10000 steps with 108 atoms

Performance: 405.115 ns/day, 0.059 hours/ns, 4688.827 timesteps/s
100.0% CPU use with 1 MPI tasks x no OpenMP threads

MPI task timing breakdown:
Section |  min time  |  avg time  |  max time  |%varavg| %total
---------------------------------------------------------------
Pair    | 1.4085     | 1.4085     | 1.4085     |   0.0 | 66.04
Neigh   | 0          | 0          | 0          |   0.0 |  0.00
Comm    | 0.04155    | 0.04155    | 0.04155    |   0.0 |  1.95
Output  | 0.0015722  | 0.0015722  | 0.0015722  |   0.0 |  0.07
Modify  | 0.67153    | 0.67153    | 0.67153    |   0.0 | 31.49
Other   |            | 0.009532   |            |       |  0.45

Nlocal:    108 ave 108 max 108 min
Histogram: 1 0 0 0 0 0 0 0 0 0
Nghost:    990 ave 990 max 990 min
Histogram: 1 0 0 0 0 0 0 0 0 0
Neighs:    4644 ave 4644 max 4644 min
Histogram: 1 0 0 0 0 0 0 0 0 0

Total # of neighbors = 4644
Ave neighs/atom = 43
Neighbor list builds = 0
Dangerous builds = 0
    
Total wall time: 0:00:02
