LAMMPS (3 Mar 2020)
Reading data file ...
  orthogonal box = (0 0 0) to (16.36 16.36 16.36)
  1 by 1 by 1 MPI processor grid
  reading atoms ...
  256 atoms
  read_data CPU = 0.000984224 secs
Reading potential file /usr/share/lammps-stable/potentials/Ag_u3.eam with DATE: 2007-06-11
Neighbor list info ...
  update every 1 steps, delay 10 steps, check yes
  max neighbors/atom: 2000, page size: 100000
  master list distance cutoff = 7.55
  ghost atom cutoff = 7.55
  binsize = 3.775, bins = 5 5 5
  2 neighbor lists, perpetual/occasional/extra = 1 1 0
  (1) pair eam, perpetual
      attributes: half, newton on
      pair build: half/bin/atomonly/newton
      stencil: half/bin/3d/newton
      bin: standard
  (2) compute rdf, occasional, copy from (1)
      attributes: half, newton on
      pair build: copy
      stencil: none
      bin: none
Setting up Verlet run ...
  Unit style    : metal
  Current step  : 0
  Time step     : 0.001
Per MPI rank memory allocation (min/avg/max) = 3.744 | 3.744 | 3.744 Mbytes
Step PotEng KinEng TotEng Temp Press Density c_msdall[4] 
       0       -729.6    42.849738   -686.75026         1300    10452.374    10.472245            0 
     100   -703.88348     26.56606   -677.31742    805.97642    43441.474    10.472245  0.075253138 
     200   -694.01102    38.639578   -655.37145    1172.2697    61102.922    10.472245   0.09858332 
     300   -682.08004    45.201327   -636.87871    1371.3439    77375.679    10.472245   0.13084042 
     400   -680.05305    43.844178   -636.20887    1330.1699     80667.56    10.472245    0.1258639 
     500   -690.86703    41.535925    -649.3311    1260.1408    65394.807    10.472245  0.091578314 
     600   -691.11345    40.767068   -650.34638    1236.8148    65180.244    10.472245  0.085752588 
     700   -687.51152    47.218381   -640.29314    1432.5384    71824.556    10.472245  0.096598158 
     800   -685.68334    40.882717   -644.80062    1240.3234     72411.89    10.472245   0.11799111 
     900   -688.32585    45.228126   -643.09773    1372.1569    69605.453    10.472245   0.12062003 
    1000   -685.20791    45.314551   -639.89336    1374.7789    75172.065    10.472245   0.11918605 
    1100    -687.9661    44.105586   -643.86052    1338.1006      70578.3    10.472245   0.09706752 
    1200   -687.81067    40.779134   -647.03154    1237.1808    69734.626    10.472245  0.098445975 
    1300   -684.42175     41.77142   -642.65033    1267.2854    74862.898    10.472245   0.10792272 
    1400   -680.70049    43.154126   -637.54637    1309.2347    80417.076    10.472245   0.12065323 
    1500   -688.42676    44.114618   -644.31215    1338.3747     70322.04    10.472245  0.099896332 
    1600   -692.32607    43.632607   -648.69347    1323.7511    64617.257    10.472245  0.078364843 
    1700   -692.58984    41.021444    -651.5684    1244.5322    63473.838    10.472245  0.083495873 
    1800   -686.12866    42.004985   -644.12368    1274.3714    72943.778    10.472245  0.099996228 
    1900   -684.54472    44.576848   -639.96787     1352.398     75695.39    10.472245  0.099764398 
    2000   -688.36117    40.237394   -648.12377    1220.7452    70124.587    10.472245  0.089874721 
    2100   -688.50478    42.167729   -646.33705    1279.3088    69839.823    10.472245  0.089616669 
    2200   -684.69286    45.026543   -639.66632    1366.0412    74963.397    10.472245   0.10510364 
    2300   -685.33756    47.897277   -637.44029    1453.1351    75470.108    10.472245   0.10148486 
    2400   -687.11826    41.409902   -645.70836    1256.3174    71277.898    10.472245  0.099532302 
    2500   -689.85212     48.04542    -641.8067    1457.6296    70008.332    10.472245  0.086375392 
    2600   -691.69757    43.367041   -648.33052    1315.6942    65568.615    10.472245  0.086103171 
    2700   -692.21999    43.936877   -648.28311    1332.9822    64598.497    10.472245  0.087605926 
    2800   -685.18843    43.284491   -641.90394    1313.1898     74275.09    10.472245   0.10564598 
    2900   -684.04953    42.108678   -641.94085    1277.5173    75265.207    10.472245   0.10604897 
    3000   -690.52783    40.478149   -650.04968    1228.0494    66117.028    10.472245  0.084825086 
    3100   -690.70368    43.381172    -647.3225    1316.1229    67441.285    10.472245  0.081449589 
    3200   -689.73748    47.931506   -641.80597    1454.1736    68384.702    10.472245  0.090496185 
    3300    -687.3357    42.467925   -644.86778    1288.4163    71814.201    10.472245   0.10592701 
    3400   -686.02129     46.99697   -639.02432    1425.8211    73554.388    10.472245   0.10583897 
    3500   -688.01269    46.638151   -641.37454     1414.935    71420.645    10.472245  0.097704211 
    3600    -687.9194    41.133277   -646.78612     1247.925    70493.629    10.472245  0.098308998 
    3700     -682.758    39.170379   -643.58762    1188.3735    76621.479    10.472245   0.10935854 
    3800   -684.96654    42.751812   -642.21473     1297.029    74343.911    10.472245   0.10456105 
    3900   -685.48106    39.066757    -646.4143    1185.2297    72938.716    10.472245   0.10459989 
    4000   -685.30824    43.837794   -641.47044    1329.9762    74600.402    10.472245   0.09467283 
    4100   -690.53023    40.608983   -649.92124    1232.0187    66121.171    10.472245  0.098626838 
    4200   -687.24025    43.155917   -644.08433     1309.289     70673.12    10.472245   0.10485573 
    4300   -686.21991    42.659898   -643.56001    1294.2405    73164.067    10.472245   0.11433676 
    4400   -684.91536    46.705134   -638.21023    1416.9672    75427.534    10.472245   0.10564275 
    4500   -688.53914    42.444189   -646.09495    1287.6962    69668.735    10.472245   0.10380224 
    4600   -685.97419    43.676983   -642.29721    1325.0974    72248.088    10.472245   0.10512127 
    4700   -685.35809    41.565437   -643.79265    1261.0361     74175.88    10.472245  0.097015298 
    4800   -689.78992    38.304445   -651.48547    1162.1023    66552.079    10.472245   0.09245081 
    4900   -685.09623    41.563658   -643.53257    1260.9822    74190.483    10.472245  0.099437361 
    5000   -684.32136    41.471642   -642.84972    1258.1905    74163.584    10.472245   0.10714615 
    5100   -688.63899     39.63101   -649.00799    1202.3484    68737.493    10.472245   0.10434324 
    5200   -687.23959    43.504146   -643.73545    1319.8538    71182.065    10.472245   0.10437634 
    5300   -686.18104    44.618113   -641.56293      1353.65    73374.544    10.472245   0.10552699 
    5400   -686.84167    41.996889   -644.84478    1274.1258    71774.107    10.472245   0.10043844 
    5500   -685.95435    42.033801   -643.92055    1275.2456    73530.863    10.472245   0.10233023 
    5600   -684.90649    42.731534   -642.17496    1296.4139    74180.546    10.472245   0.10074508 
    5700   -686.78379    40.240766   -646.54302    1220.8475    72341.429    10.472245  0.099395432 
    5800   -685.81808    41.170342   -644.64774    1249.0495    72569.888    10.472245  0.097522497 
    5900   -686.07932    46.637216    -639.4421    1414.9067    74360.945    10.472245  0.098278398 
    6000   -687.47587    41.003277   -646.47259     1243.981    69987.152    10.472245   0.11042147 
    6100   -686.51535     46.33554   -640.17981    1405.7543    73097.936    10.472245   0.10998238 
    6200   -685.78073    42.030212   -643.75052    1275.1368    73426.481    10.472245  0.098507266 
    6300   -691.22049    39.750302   -651.47019    1205.9675    65318.003    10.472245  0.087830613 
    6400   -686.33588    41.670402   -644.66548    1264.2206    72659.134    10.472245  0.099529879 
    6500    -686.5209    43.158888   -643.36202    1309.3792    72259.004    10.472245  0.099985452 
    6600   -690.05093    43.352615   -646.69831    1315.2566    67498.297    10.472245   0.09212339 
    6700   -687.81719     41.42284   -646.39435    1256.7099    70255.088    10.472245  0.095271413 
    6800   -685.25883    41.112331    -644.1465    1247.2895     73711.12    10.472245   0.10994498 
    6900   -683.59241    46.221168   -637.37125    1402.2844    76447.014    10.472245   0.11600176 
    7000   -685.67595    41.171306   -644.50465    1249.0788     73376.66    10.472245   0.11836859 
    7100   -686.74885    42.759888   -643.98897    1297.2741    71220.561    10.472245   0.10383351 
    7200   -687.79861    40.924167   -646.87444    1241.5809    71320.844    10.472245   0.09884868 
    7300   -689.13972    42.496234   -646.64349    1289.2752    68869.094    10.472245   0.10222828 
    7400   -683.89258    43.002692   -640.88989    1304.6404    75777.638    10.472245   0.10506456 
    7500   -687.30528    40.920444   -646.38484     1241.468    71228.064    10.472245   0.10292317 
    7600   -689.77238    45.965124   -643.80726    1394.5164    69082.858    10.472245   0.10228001 
    7700   -685.20454    41.229712   -643.97483    1250.8507    73461.038    10.472245   0.11461304 
    7800   -686.98696    43.574969   -643.41199    1322.0025    71113.174    10.472245   0.10366628 
    7900   -686.19957    39.646359   -646.55321     1202.814    71950.493    10.472245   0.10556643 
    8000   -685.21217    43.688722   -641.52345    1325.4536    74613.215    10.472245   0.10525909 
    8100   -684.37005    41.692117   -642.67793    1264.8794    74791.986    10.472245   0.11058297 
    8200   -687.01019    42.715303   -644.29489    1295.9214    71615.872    10.472245  0.098835122 
    8300   -688.62205    37.787055     -650.835    1146.4054    67752.937    10.472245   0.10016135 
    8400   -689.05193    43.202069   -645.84986    1310.6892    68264.656    10.472245   0.10356926 
    8500    -687.1003    47.224772   -639.87553    1432.7323    71881.441    10.472245   0.11729498 
    8600   -687.12149    46.219302   -640.90219    1402.2278     71683.21    10.472245   0.12414065 
    8700   -684.57016    42.064194   -642.50597    1276.1677    73537.687    10.472245   0.11587388 
    8800   -686.76033    41.714963   -645.04537    1265.5725    71660.362    10.472245  0.096955167 
    8900   -687.29683    40.687222   -646.60961    1234.3923    71089.827    10.472245   0.10122643 
    9000   -683.23741    45.968509   -637.26891    1394.6191     78239.51    10.472245   0.11556992 
    9100   -683.33778    45.501314   -637.83646     1380.445    77183.589    10.472245    0.1239282 
    9200   -685.98079    40.327375   -645.65341    1223.4751    72426.559    10.472245   0.11833274 
    9300   -687.77273    46.620491   -641.15224    1414.3993     70919.36    10.472245  0.098628875 
    9400   -690.59417    42.744845   -647.84933    1296.8177    66617.918    10.472245  0.081375858 
    9500   -690.50592    40.130331   -650.37559    1217.4971    65858.898    10.472245   0.09260094 
    9600   -685.85255    42.827289   -643.02526    1299.3189    73225.778    10.472245   0.11349511 
    9700   -685.04873    44.095093   -640.95363    1337.7823    74291.323    10.472245   0.10613983 
    9800   -691.29991    43.739273   -647.56063    1326.9872    65848.604    10.472245  0.093682343 
    9900   -689.72136    43.610674   -646.11069    1323.0857    68315.069    10.472245  0.095802807 
   10000     -687.363    44.763589   -642.59941    1358.0635    71220.747    10.472245  0.093457032 
Loop time of 4.97614 on 1 procs for 10000 steps with 256 atoms

Performance: 173.629 ns/day, 0.138 hours/ns, 2009.590 timesteps/s
100.0% CPU use with 1 MPI tasks x no OpenMP threads

MPI task timing breakdown:
Section |  min time  |  avg time  |  max time  |%varavg| %total
---------------------------------------------------------------
Pair    | 3.3238     | 3.3238     | 3.3238     |   0.0 | 66.79
Neigh   | 0          | 0          | 0          |   0.0 |  0.00
Comm    | 0.061279   | 0.061279   | 0.061279   |   0.0 |  1.23
Output  | 0.0025877  | 0.0025877  | 0.0025877  |   0.0 |  0.05
Modify  | 1.5726     | 1.5726     | 1.5726     |   0.0 | 31.60
Other   |            | 0.01589    |            |       |  0.32

Nlocal:    256 ave 256 max 256 min
Histogram: 1 0 0 0 0 0 0 0 0 0
Nghost:    1431 ave 1431 max 1431 min
Histogram: 1 0 0 0 0 0 0 0 0 0
Neighs:    11008 ave 11008 max 11008 min
Histogram: 1 0 0 0 0 0 0 0 0 0

Total # of neighbors = 11008
Ave neighs/atom = 43
Neighbor list builds = 0
Dangerous builds = 0
Total wall time: 0:00:04
