LAMMPS (3 Mar 2020)
Reading data file ...
  orthogonal box = (0 0 0) to (28.63 28.63 28.63)
  1 by 1 by 1 MPI processor grid
  reading atoms ...
  1372 atoms
  read_data CPU = 0.00184605 secs
Reading potential file /usr/share/lammps-stable/potentials/Ag_u3.eam with DATE: 2007-06-11
Neighbor list info ...
  update every 1 steps, delay 10 steps, check yes
  max neighbors/atom: 2000, page size: 100000
  master list distance cutoff = 7.55
  ghost atom cutoff = 7.55
  binsize = 3.775, bins = 8 8 8
  2 neighbor lists, perpetual/occasional/extra = 1 1 0
  (1) pair eam, perpetual
      attributes: half, newton on
      pair build: half/bin/atomonly/newton
      stencil: half/bin/3d/newton
      bin: standard
  (2) compute rdf, occasional, copy from (1)
      attributes: half, newton on
      pair build: copy
      stencil: none
      bin: none
Setting up Verlet run ...
  Unit style    : metal
  Current step  : 0
  Time step     : 0.001
Per MPI rank memory allocation (min/avg/max) = 3.83 | 3.83 | 3.83 Mbytes
Step PotEng KinEng TotEng Temp Press Density c_msdall[4] 
       0      -3910.2    150.63331   -3759.5667          850     6856.025    10.472245            0 
     100   -3819.8998    83.628876    -3736.271    471.90455    27984.664    10.472245  0.048221744 
     200     -3810.14    130.37946   -3679.7606     735.7107    33045.189    10.472245  0.053495898 
     300   -3774.3663    153.49576   -3620.8706    866.15238    43706.455    10.472245  0.071452936 
     400   -3753.7039    165.18646   -3588.5174    932.12116    49807.317    10.472245  0.081702402 
     500   -3761.2409    156.21494    -3605.026    881.49625    47440.087    10.472245  0.079882887 
     600   -3770.8695    150.26917   -3620.6003    847.94522    44712.473    10.472245  0.070635969 
     700    -3766.993    157.13605   -3609.8569    886.69393    46108.428    10.472245  0.066107951 
     800   -3763.4216    160.41832   -3603.0033    905.21527    47120.343    10.472245  0.065904702 
     900   -3763.9215    145.81301   -3618.1085     822.7998    46126.193    10.472245  0.071602726 
    1000   -3759.0568    155.74913   -3603.3076    878.86777    48143.123    10.472245  0.071048539 
    1100   -3757.4628    147.22666   -3610.2361    830.77681    48106.137    10.472245  0.073577726 
    1200   -3765.0256    145.62182   -3619.4038    821.72095    46165.093    10.472245  0.076501585 
    1300   -3756.0519    151.28603   -3604.7659    853.68318    48547.584    10.472245  0.082314417 
    1400   -3755.6148    158.71196   -3596.9029    895.58655    49219.321    10.472245  0.076684542 
    1500   -3765.2465    145.42498   -3619.8215    820.61023    45938.802    10.472245  0.071794217 
    1600   -3765.0625    152.04791   -3613.0146    857.98236    46348.635    10.472245  0.069445441 
    1700   -3755.4013    153.63438    -3601.767    866.93459    49093.456    10.472245  0.072346696 
    1800    -3759.087    151.83277   -3607.2542    856.76837    47927.739    10.472245  0.068943136 
    1900   -3768.2282    149.72601   -3618.5022    844.88027    45549.036    10.472245  0.066434395 
    2000   -3762.1864     152.1794    -3610.007    858.72436    47164.052    10.472245  0.070329459 
    2100   -3753.5053    148.29827    -3605.207    836.82374    49344.488    10.472245  0.075135261 
    2200   -3759.0644    147.67812   -3611.3863    833.32431    48101.531    10.472245  0.074933521 
    2300   -3756.9729    143.48781   -3613.4851    809.67906     48481.56    10.472245  0.074034838 
    2400   -3757.5499    150.98849   -3606.5614    852.00422    48675.474    10.472245  0.069834279 
    2500   -3760.3136    143.19648   -3617.1171    808.03517    47632.756    10.472245  0.067225964 
    2600   -3764.1965    149.45299   -3614.7435    843.33966    46595.184    10.472245  0.065386892 
    2700   -3762.1817    150.99193   -3611.1898    852.02366    47230.906    10.472245  0.071584981 
    2800   -3759.1495    151.67707   -3607.4725    855.88975    47993.012    10.472245  0.076501618 
    2900   -3760.3602    152.83753   -3607.5226    862.43808    47738.744    10.472245  0.077980137 
    3000   -3762.0178    148.38086   -3613.6369    837.28979     47053.87    10.472245  0.077130693 
    3100   -3761.4714     151.3572   -3610.1142    854.08478    47522.949    10.472245  0.073515258 
    3200   -3757.1862    152.83796   -3604.3483     862.4405    48670.331    10.472245  0.072318873 
    3300   -3762.1518     149.0091   -3613.1427    840.83481    47189.007    10.472245  0.066952313 
    3400   -3764.3688    148.45309   -3615.9157    837.69737    46533.885    10.472245  0.065014612 
    3500   -3760.8118    150.17136   -3610.6404    847.39327    47327.034    10.472245  0.069368966 
    3600   -3759.2981    152.39727   -3606.9009    859.95374    47920.107    10.472245  0.072253672 
    3700   -3762.8613    149.42007   -3613.4412    843.15389    46928.223    10.472245  0.073585464 
    3800   -3765.7476    149.62179   -3616.1258    844.29217    45994.764    10.472245  0.071800903 
    3900   -3755.7387    148.23034   -3607.5084    836.44042    48693.359    10.472245   0.07218374 
    4000   -3758.7143    147.57446   -3611.1398    832.73937     47892.74    10.472245  0.071530992 
    4100   -3764.2875    145.75905   -3618.5284     822.4953    46203.215    10.472245  0.069038502 
    4200   -3760.8005    151.62192   -3609.1786    855.57857    47573.352    10.472245  0.069044464 
    4300   -3759.2956    153.22154   -3606.0741    864.60495    47784.214    10.472245  0.071698682 
    4400   -3767.7553    150.72089   -3617.0344    850.49418    45526.142    10.472245  0.070842285 
    4500    -3760.166    151.15713   -3609.0089    852.95582     47581.03    10.472245    0.0714136 
    4600   -3763.2179    154.56988    -3608.648    872.21342    47054.017    10.472245  0.069116504 
    4700   -3758.6324    145.84329   -3612.7891    822.97069    47935.624    10.472245  0.071907076 
    4800   -3758.1055    147.84048    -3610.265    834.24048     48200.37    10.472245  0.072623579 
    4900   -3755.8033    156.03505   -3599.7683    880.48116    49330.357    10.472245  0.071684763 
    5000   -3757.3755    148.62321   -3608.7523    838.65733    48636.141    10.472245  0.071277607 
    5100   -3759.5574    148.01763   -3611.5398    835.24013    47739.402    10.472245  0.069003082 
    5200   -3761.0081    151.73261   -3609.2755    856.20317     47550.18    10.472245  0.067335859 
    5300   -3761.5801    149.68303   -3611.8971    844.63771     47336.95    10.472245   0.06699848 
    5400   -3762.3418    150.13883    -3612.203    847.20974    47153.484    10.472245  0.067062897 
    5500    -3759.656    150.97431   -3608.6817    851.92422    47782.215    10.472245  0.071169852 
    5600   -3759.3554    156.69924   -3602.6562    884.22909    48135.978    10.472245  0.072516356 
    5700   -3760.0584    151.01061   -3609.0478    852.12905    47942.751    10.472245  0.069357822 
    5800   -3767.7912    147.84807   -3619.9431    834.28334    45726.121    10.472245  0.063722755 
    5900   -3764.0895    151.88843   -3612.2011    857.08242     46915.14    10.472245  0.066243722 
    6000   -3759.9269    153.52345   -3606.4034    866.30862    47917.973    10.472245  0.068656668 
    6100    -3760.937    144.29585   -3616.6412     814.2387    47034.942    10.472245  0.069055661 
    6200   -3765.1947    154.64914   -3610.5456    872.66071    46633.099    10.472245  0.067536393 
    6300   -3754.3598    154.57234   -3599.7875     872.2273     49386.52    10.472245  0.073417718 
    6400   -3761.5242    152.81076   -3608.7134    862.28698     47457.87    10.472245  0.067257865 
    6500    -3761.011    146.61507   -3614.3959    827.32568    47524.146    10.472245  0.067047593 
    6600   -3755.8493    147.77288   -3608.0765    833.85903    48717.848    10.472245  0.068718821 
    6700   -3756.9993    155.89867   -3601.1006     879.7116    48919.626    10.472245  0.069463348 
    6800    -3760.326    148.30702    -3612.019    836.87313    47737.206    10.472245  0.067854308 
    6900   -3761.2448     144.3601   -3616.8847    814.60126    47245.654    10.472245  0.066158827 
    7000   -3764.0454    155.01213   -3609.0333    874.70897    46967.386    10.472245  0.063058927 
    7100   -3758.6842    149.38083   -3609.3034    842.93246    48337.877    10.472245  0.065906086 
    7200   -3759.8161    150.24626   -3609.5698    847.81593    47770.573    10.472245  0.064644949 
    7300   -3766.6419    147.50305   -3619.1389    832.33644     46075.71    10.472245  0.061125671 
    7400   -3761.8321    150.64165   -3611.1905    850.04708     47210.96    10.472245  0.064556597 
    7500   -3757.2238    158.67704   -3598.5467    895.38952    48686.756    10.472245  0.068386403 
    7600   -3762.2993    150.84635    -3611.453    851.20217    47283.001    10.472245  0.068116829 
    7700   -3761.7705    151.21572   -3610.5548    853.28647    47343.198    10.472245  0.063850251 
    7800   -3761.1464    143.51208   -3617.6343      809.816    47149.386    10.472245  0.065605469 
    7900   -3762.1915    153.79311   -3608.3984    867.83028    47380.714    10.472245  0.064695733 
    8000   -3757.6693    147.87512   -3609.7942      834.436    47962.049    10.472245  0.067251208 
    8100   -3759.1778    147.07898   -3612.0988     829.9435    48148.235    10.472245  0.066681481 
    8200   -3763.0785    149.44068   -3613.6379    843.27015     46806.41    10.472245  0.063848574 
    8300   -3756.5806    144.43551    -3612.145    815.02681    48305.579    10.472245  0.067433486 
    8400   -3755.1018    149.69777    -3605.404    844.72091    49204.294    10.472245  0.068897035 
    8500   -3759.5709    146.45896    -3613.112    826.44479    47807.685    10.472245  0.068529797 
    8600   -3766.8367    148.86432   -3617.9724    840.01786    45787.777    10.472245  0.064681557 
    8700   -3761.5079    151.17167   -3610.3362    853.03787    47472.009    10.472245  0.066872596 
    8800   -3760.0617    156.12332   -3603.9384    880.97925    47980.985    10.472245  0.070425703 
    8900   -3756.6963    149.75565   -3606.9406    845.04749    48309.658    10.472245  0.073343181 
    9000   -3759.0002    146.95338   -3612.0468    829.23471    47905.424    10.472245  0.070537824 
    9100   -3759.9661    150.30426   -3609.6619    848.14323     47783.79    10.472245  0.067582718 
    9200   -3752.7242    155.86191   -3596.8623    879.50414    50024.405    10.472245   0.06967809 
    9300   -3757.7863    147.36388   -3610.4224     831.5511    48245.936    10.472245  0.070963491 
    9400   -3761.1131    153.55933   -3607.5538    866.51106    47662.126    10.472245  0.067021367 
    9500   -3762.4688    147.24627   -3615.2225    830.88749    46808.365    10.472245  0.068132217 
    9600   -3761.9309    151.23078   -3610.7001    853.37142     47207.28    10.472245   0.06793522 
    9700   -3758.5975    148.97341   -3609.6241    840.63347     48093.34    10.472245  0.069573471 
    9800   -3763.1681    155.21471   -3607.9534    875.85213    47112.143    10.472245  0.066586788 
    9900   -3760.2135    148.47517   -3611.7383    837.82198    47709.875    10.472245  0.068793783 
   10000   -3756.6737    150.35269   -3606.3211    848.41649    48682.646    10.472245   0.07059969 
Loop time of 25.1934 on 1 procs for 10000 steps with 1372 atoms

Performance: 34.295 ns/day, 0.700 hours/ns, 396.929 timesteps/s
100.0% CPU use with 1 MPI tasks x no OpenMP threads

MPI task timing breakdown:
Section |  min time  |  avg time  |  max time  |%varavg| %total
---------------------------------------------------------------
Pair    | 17.163     | 17.163     | 17.163     |   0.0 | 68.13
Neigh   | 0          | 0          | 0          |   0.0 |  0.00
Comm    | 0.171      | 0.171      | 0.171      |   0.0 |  0.68
Output  | 0.0051132  | 0.0051132  | 0.0051132  |   0.0 |  0.02
Modify  | 7.7773     | 7.7773     | 7.7773     |   0.0 | 30.87
Other   |            | 0.07655    |            |       |  0.30

Nlocal:    1372 ave 1372 max 1372 min
Histogram: 1 0 0 0 0 0 0 0 0 0
Nghost:    3258 ave 3258 max 3258 min
Histogram: 1 0 0 0 0 0 0 0 0 0
Neighs:    58996 ave 58996 max 58996 min
Histogram: 1 0 0 0 0 0 0 0 0 0

Total # of neighbors = 58996
Ave neighs/atom = 43
Neighbor list builds = 0
Dangerous builds = 0
Total wall time: 0:00:25
