LAMMPS (3 Mar 2020)
Reading data file ...
  orthogonal box = (0 0 0) to (8.18 8.18 8.18)
  1 by 1 by 1 MPI processor grid
  reading atoms ...
  32 atoms
  read_data CPU = 0.000916126 secs
Reading potential file /usr/share/lammps-stable/potentials/Ag_u3.eam with DATE: 2007-06-11
Neighbor list info ...
  update every 1 steps, delay 10 steps, check yes
  max neighbors/atom: 2000, page size: 100000
  master list distance cutoff = 7.55
  ghost atom cutoff = 7.55
  binsize = 3.775, bins = 3 3 3
  2 neighbor lists, perpetual/occasional/extra = 1 1 0
  (1) pair eam, perpetual
      attributes: half, newton on
      pair build: half/bin/atomonly/newton
      stencil: half/bin/3d/newton
      bin: standard
  (2) compute rdf, occasional, copy from (1)
      attributes: half, newton on
      pair build: copy
      stencil: none
      bin: none
Setting up Verlet run ...
  Unit style    : metal
  Current step  : 0
  Time step     : 0.005
Per MPI rank memory allocation (min/avg/max) = 3.706 | 3.706 | 3.706 Mbytes
Step PotEng KinEng TotEng Temp Press Density c_msdall[4] 
       0        -91.2    4.9447176   -86.255282         1234    9649.3501    10.472245            0 
     100   -88.189875    3.2817695   -84.908105    818.99594   -13281.233    9.8915286  0.046375528 
     200   -86.550955    2.8243895   -83.726566    704.85252    -15328.29    9.6706162  0.096643829 
     300   -86.653833    3.9855908   -82.668242    994.64104    909.79939     9.821373   0.11120617 
     400   -85.920721    4.3800096   -81.540711    1093.0719    21190.765    9.9575833   0.10249616 
     500   -85.529941    4.9708374   -80.559104    1240.5184    3116.0129    9.6772758   0.12192324 
     600   -85.183549    5.3138712   -79.869678    1326.1257   -12317.181    9.4417039   0.12638173 
     700   -85.572131     4.208095   -81.364036     1050.169   -9317.1579    9.5391319    0.1025062 
     800   -86.123455    4.0790145   -82.044441    1017.9558   -3760.3607    9.6858248  0.098840346 
     900   -85.685256    5.5446137   -80.140642    1383.7096   -5393.9464    9.6133504   0.13224626 
    1000   -84.091264    4.6425462   -79.448718    1158.5903    22753.125    9.7158165   0.17455764 
    1100   -86.158319    5.1564614   -81.001857    1286.8426   -23025.528    9.4818061   0.10300227 
    1200   -85.712119    3.9651343   -81.746985    989.53594    2985.2702    9.6979802   0.12528428 
    1300   -84.709586    4.9119677   -79.797619     1225.827    3311.8553    9.5637491   0.18646363 
    1400   -84.410052    4.2119382   -80.198114    1051.1281    3136.0249    9.5193044   0.16931097 
    1500   -86.865246    4.8233436   -82.041903      1203.71   -2219.1565    9.7763068  0.083673381 
    1600   -84.657685     5.048698   -79.608987    1259.9493   -5258.2713    9.4607538   0.14646913 
    1700   -85.166277    5.4114118   -79.754865    1350.4678   -4495.6385    9.5404462   0.14397697 
    1800   -85.900173    4.8664017   -81.033772    1214.4555    14899.931    9.8834905   0.10741568 
    1900   -86.235754     4.158761   -82.076993    1037.8573    3681.9579    9.8046761  0.089638191 
    2000   -84.819439    5.5712284   -79.248211    1390.3516   -35891.345    9.1606626    0.1518651 
    2100    -83.65805    3.8737305   -79.784319    966.72528    17321.638    9.5453643   0.21256228 
    2200   -84.566579     4.988062   -79.578517     1244.817    18815.971    9.6954448    0.1844978 
    2300   -85.523357    3.9404404   -81.582917    983.37333    778.52381    9.7029601   0.12995917 
    2400   -85.658038    3.9835372   -81.674501    994.12855   -13427.332    9.5307206   0.11666893 
    2500   -86.461046    6.4959187   -79.965127    1621.1166     2516.471    9.7920797  0.097398999 
    2600   -84.218838    5.3978679    -78.82097    1347.0879     39245.95     9.906668   0.12547931 
    2700   -85.708598     5.186758    -80.52184    1294.4034   -8484.2182     9.583814   0.12097903 
    2800   -86.016141    4.6619776   -81.354164    1163.4396   -22409.123     9.476701   0.12277526 
    2900   -85.348962    5.6670818    -79.68188    1414.2727   -3781.5769    9.5513305   0.14548639 
    3000   -84.440866     4.696745   -79.744121    1172.1162    9441.5805    9.5827491   0.14754286 
    3100   -86.422156    4.4536683   -81.968488    1111.4541    4101.5649    9.8120497   0.10461387 
    3200    -84.66209     4.556548   -80.105541    1137.1287    4831.6804    9.5802621   0.15361135 
    3300   -84.692104    5.3109737    -79.38113    1325.4026   -33367.661    9.1503569   0.16064305 
    3400   -85.767419    4.5420466   -81.225372    1133.5097   -4444.2418    9.6414031   0.13037847 
    3500   -86.516397    5.9497622   -80.566635    1484.8182    27633.119    10.050055  0.077471486 
    3600   -84.462539    5.4105832   -79.051956    1350.2611    9363.0894    9.5975396   0.16782421 
    3700   -85.215007    5.0484461   -80.166561    1259.8864   -17275.911    9.3859935   0.11905936 
    3800   -86.462653    4.9519612   -81.510691    1235.8077   -18887.851    9.5515977   0.09749775 
    3900   -85.026825    5.2153665   -79.811458     1301.543   -2966.8027    9.4718696   0.14625749 
    4000   -84.523003    5.8453303   -78.677673    1458.7562    4511.9437    9.5302937   0.12653477 
    4100   -85.454474     4.263335   -81.191139    1063.9547    19208.458    9.8457207     0.132899 
    4200   -85.359003    5.1740401   -80.184963    1291.2295   -7100.6052    9.5417196   0.12323813 
    4300    -83.93135    5.1877676   -78.743582    1294.6554    7600.3209    9.4830488   0.15824072 
    4400   -85.702903    4.1816448   -81.521258    1043.5681    21593.149     9.937086   0.11301969 
    4500   -85.671858    4.8609155   -80.810942    1213.0864    11867.031    9.8134043   0.12690929 
    4600   -84.471725     5.194642   -79.277083     1296.371     -2801.95    9.4324179   0.15104403 
    4700   -84.892369     4.543334   -80.349035     1133.831     8466.124    9.6893347   0.13189288 
    4800    -85.75136     4.040135   -81.711225     1008.253   -23932.193    9.4547606   0.13979046 
    4900    -84.96183    5.2455859   -79.716244    1309.0845   -21095.442    9.3055665   0.12393729 
    5000   -84.482039    4.8163268   -79.665712    1201.9589    25060.385    9.7906894     0.160277 
    5100   -86.783685     4.957895    -81.82579    1237.2885     11599.09    9.9446585  0.093416211 
    5200   -85.501143    5.1303354   -80.370808    1280.3226   -1113.6489    9.6211709  0.095734641 
    5300   -84.585076    5.1615811   -79.423495    1288.1203    2630.5955    9.5275299   0.15462741 
    5400   -85.357491    4.0576524   -81.299839    1012.6247   -904.50157    9.6650686   0.14423772 
    5500   -85.440952    4.7810811   -80.659871     1193.163    27025.449    9.9244265   0.11030104 
    5600   -85.230998    6.5645284    -78.66647    1638.2388   -18544.416    9.3262394   0.12943567 
    5700    -84.84104    4.6299836   -80.211056    1155.4552   -7907.5583    9.4876034   0.12760921 
    5800   -86.315492    4.8771401   -81.438352    1217.1354   -7857.9438    9.6584907   0.12540046 
    5900   -85.002667    6.2312797   -78.771388    1555.0735   -4511.6431    9.4995114   0.16826928 
    6000   -84.695722     5.267134   -79.428588     1314.462   -1572.8793    9.5360312   0.16955491 
    6100   -85.247107    4.0310213   -81.216086    1005.9786    2093.9929    9.6633201   0.12427302 
    6200   -85.286365     4.458695    -80.82767    1112.7086    14456.967     9.798354   0.12087562 
    6300   -83.647338    5.0559944   -78.591343    1261.7702    24242.901    9.6319171   0.12682587 
    6400    -84.76488    4.0561914   -80.708688    1012.2601    14361.007     9.724468   0.15377066 
    6500   -84.323623    3.7268755   -80.596748    930.07626    -19472.72    9.2497619   0.14360431 
    6600   -82.697046    4.4139118   -78.283135    1101.5325   -9785.8714    9.1397592   0.23227113 
    6700   -84.785113    4.6416506   -80.143463    1158.3668    3449.0848    9.5536708   0.16561361 
    6800   -85.462068    4.4129429   -81.049125    1101.2907    28519.064    9.9653707   0.10860465 
    6900   -83.611702    5.0719259   -78.539776     1265.746    13931.511    9.5721679   0.15545946 
    7000   -84.298332    5.0135841   -79.284748    1251.1863    13550.547    9.6454515   0.11983071 
    7100   -86.207943    5.1402774   -81.067666    1282.8038   -3952.7673    9.7021272    0.1003693 
    7200   -85.722402    5.4307259   -80.291676    1355.2879   -7752.4159    9.5601481   0.13726644 
    7300    -83.77951    5.3493172   -78.430193    1334.9716   -16113.454    9.1917962   0.17610435 
    7400   -86.356896    5.4349541   -80.921942     1356.343   -5675.5939    9.6758004   0.10187175 
    7500   -85.888028    5.6969904   -80.191038    1421.7366    19888.394    9.9074323   0.10733368 
    7600   -84.751681    6.4975873   -78.254094     1621.533    14745.272    9.6898857   0.13475797 
    7700   -85.696479    4.9080371   -80.788442     1224.846   -28504.216    9.3762742    0.1389217 
    7800   -85.150191    3.9408229   -81.209368    983.46879   -24017.484     9.368476   0.16944061 
    7900   -84.637734    5.2959532   -79.341781    1321.6541   -938.85043    9.4887103   0.15448486 
    8000   -85.460398    5.1104902   -80.349908    1275.3701    16691.833    9.8025557   0.12892682 
    8100    -86.64141    4.8854165   -81.755994    1219.2009    8732.1912    9.8955462  0.087684117 
    8200   -84.234028    4.8664756   -79.367553     1214.474   -17970.986    9.2765292   0.16305649 
    8300   -83.883023    4.2572177   -79.625806     1062.428    11655.472    9.5592441   0.20323044 
    8400   -85.172465    3.4282296   -81.744235    855.54641     6244.529    9.6855618   0.13032233 
    8500   -84.430511    4.5189572   -79.911554    1127.7476    7246.5009    9.5999148   0.14080765 
    8600   -85.197511    5.8149879   -79.382523     1451.184    11924.488    9.6871107   0.12284567 
    8700   -86.370355    5.0651889   -81.305166    1264.0647    13656.518    9.9087407  0.094852227 
    8800   -85.638999    5.2680092    -80.37099    1314.6804   -19608.534    9.4413176   0.13504522 
    8900   -83.506817     4.802582   -78.704235    1198.5287   -6513.3965    9.2669544   0.14940352 
    9000   -85.097559    5.0131876   -80.084371    1251.0873    9414.6133    9.7010067   0.15585416 
    9100   -86.556013    5.1801499   -81.375863    1292.7543   -8878.2143    9.6631466  0.083584866 
    9200   -86.254596    3.7490406   -82.505555    935.60775   -18311.831    9.5740347  0.092421095 
    9300   -85.346108    5.5988839   -79.747224    1397.2533   -6671.9088    9.5309703   0.12451455 
    9400   -85.486598    5.7658863   -79.720712    1438.9303    12442.306    9.7867799   0.13839526 
    9500   -85.474985    5.5197738   -79.955211    1377.5106    15289.486    9.7796703    0.1148115 
    9600   -86.784313    4.2378304   -82.546483    1057.5898    -8362.359    9.7356755    0.0892785 
    9700   -85.136328    4.3115486   -80.824779    1075.9868   -13039.199    9.4232515   0.12516907 
    9800    -84.72271     4.909868   -79.812842     1225.303    73.325738    9.5467179   0.16324734 
    9900    -86.32203    5.6533115   -80.668719    1410.8362    7332.1936    9.8334048  0.091483366 
   10000   -86.416339    3.9149308   -82.501408    977.00719    21017.828    10.007822  0.070042827 
   10100   -84.157102    4.0342813   -80.122821    1006.7922   -7399.3761    9.3811618   0.18130689 
   10200   -84.018812    4.0631398   -79.955672    1013.9941   -8982.3781    9.3709975   0.15508543 
   10300   -86.017848     4.853086   -81.164762    1211.1325    3218.0732    9.7629052  0.094361635 
   10400   -86.271018    4.3320845   -81.938933    1081.1117    29879.613    10.067897  0.070698048 
   10500    -83.84411    4.5683696    -79.27574    1140.0789     3476.145    9.4453133   0.19848678 
   10600   -84.754573    5.1663968   -79.588176    1289.3221   -30922.552    9.2274008   0.14843327 
   10700    -84.86557    4.2660278   -80.599542    1064.6267   -19685.291    9.3398948   0.15426711 
   10800   -86.053921    4.7076763   -81.346245    1174.8442    8277.6559    9.7863365   0.10491782 
   10900   -84.033556    6.0102703   -78.023285    1499.9185    4529.2023    9.4738266   0.17425588 
   11000   -84.677207    5.0812396   -79.595967    1268.0703    9273.4696    9.6234425   0.13578139 
   11100   -85.455779    5.0900611   -80.365717    1270.2718     3159.726    9.6858124   0.10251106 
   11200   -85.820914    4.5631967   -81.257717    1138.7879    1423.3404    9.7310569   0.13550034 
   11300   -85.237325    6.4621104   -78.775215    1612.6794   -10164.225    9.4890728   0.14596994 
   11400   -84.960719    6.0580585   -78.902661    1511.8445   -10048.435    9.4332048   0.11604412 
   11500   -84.273426    3.9993975   -80.274028    998.08664     10256.89    9.6041255   0.13997294 
   11600   -85.176139    4.1253327   -81.050806    1029.5149    18943.654    9.7841528   0.11905857 
   11700   -84.270319    4.9460994   -79.324219    1234.3448     19739.34    9.6558547   0.15277517 
   11800   -84.062566    5.6930354   -78.369531    1420.7496    5532.5238    9.4680818   0.14249733 
   11900   -85.088717    4.7005822   -80.388135    1173.0737    389.41412    9.5528981   0.14304074 
   12000   -86.006457    5.4049913   -80.601466    1348.8656   -21174.734     9.483609   0.11734946 
   12100   -82.814784    4.4459978   -78.368786    1109.5399    10981.211    9.3521406   0.20210076 
   12200   -82.503683    4.7021324    -77.80155    1173.4606   -20342.106    8.9864705   0.30852974 
   12300   -84.149097    3.4854204   -80.663677     869.8189   -8379.3213    9.3934454   0.16424926 
   12400   -85.154239    4.5117535   -80.642485    1125.9498    13117.417    9.7446833   0.14113233 
   12500   -84.233785    5.3642403   -78.869545    1338.6958    18365.738    9.6710836   0.16361565 
   12600    -84.23044    6.6335689   -77.596871    1655.4685   -6094.5923    9.3674778   0.15993262 
   12700   -85.842519    5.0427803   -80.799739    1258.4725    -6880.877    9.5734218   0.12269397 
   12800   -84.499045    4.0798904   -80.419155    1018.1744    3931.2681    9.5501197    0.1501383 
   12900   -84.063763    4.6341645   -79.429599    1156.4986    1963.9431    9.5036013   0.19157695 
   13000   -83.291522    5.7334926    -77.55803    1430.8461    19968.573    9.5100673   0.20759156 
   13100   -84.771892    3.7289658   -81.042926     930.5979    20156.876    9.7663633   0.13859574 
   13200   -84.469236    4.0772323   -80.392004     1017.511   -21513.377    9.2827728   0.15988772 
   13300   -83.854962    4.1209788   -79.733983    1028.4284   -20181.909    9.2363467    0.1948237 
   13400   -82.997994    5.0861952   -77.911799    1269.3071   -9771.4602    9.1264934   0.23289501 
   13500   -83.413834    5.3367168   -78.077117     1331.827     10144.26    9.4821266   0.24787209 
   13600   -85.195962    5.3682328   -79.827729    1339.6921    11929.896    9.7353772   0.13778836 
   13700   -85.304891    4.3244296   -80.980462    1079.2014    5140.9191    9.6710147   0.12606225 
   13800   -85.277028    4.3713111   -80.905717    1090.9011   -13276.369    9.4969359   0.12515734 
   13900   -83.137542    4.6199405   -78.517601    1152.9489    1255.0322    9.3022559   0.19011167 
   14000   -84.634679    4.2700224   -80.364656    1065.6236    4436.2234    9.5612622   0.15071505 
   14100    -85.46811    4.4654693   -81.002641    1114.3992     3171.966    9.6885444   0.12224569 
   14200   -84.165409    5.9236964   -78.241713    1478.3132    13327.083    9.5843019   0.19527063 
   14300   -84.642729    6.0170589    -78.62567    1501.6127   -18421.378    9.3169458   0.15702083 
   14400   -85.546032    4.6309884   -80.915043     1155.706   -15866.037    9.4879697   0.11816356 
   14500   -84.868228    4.9799956   -79.888232     1242.804    46275.123    10.089244   0.11978294 
   14600   -85.010888     6.771167   -78.239721    1689.8073    16855.975    9.7285138   0.11247421 
   14700   -84.855821    4.2912193   -80.564602    1070.9135    14015.079    9.7333953   0.14359426 
   14800   -86.612553    5.6764258   -80.936128    1416.6045   -11782.798    9.6504913   0.10296568 
   14900   -84.024798    5.1444163   -78.880382    1283.8367   -12725.704    9.2769857   0.20487521 
   15000   -83.892743    4.1280459   -79.764697     1030.192   -18490.985    9.2305431   0.20695344 
   15100   -85.627117    4.2231536   -81.403964     1053.927   -4820.5916    9.6110878   0.12315379 
   15200   -84.604044    5.5309519   -79.073092    1380.3002    22996.882    9.7976869   0.14376689 
   15300   -83.937343    4.7709956   -79.166347    1190.6461    13620.877    9.6044072   0.16749615 
   15400   -86.356534    4.8988468   -81.457688    1222.5525    1694.8443    9.7649667  0.094458112 
   15500   -85.097011    4.5303537   -80.566657    1130.5917   -839.73286    9.6071585     0.118378 
   15600   -84.280067    5.2116034   -79.068464    1300.6038   -6767.2574    9.4113916   0.17221871 
   15700   -86.444639    5.1053837   -81.339255    1274.0957    -2040.153    9.7497436  0.095212999 
   15800   -85.339186    4.9531956    -80.38599    1236.1158    13734.376    9.7968016   0.10836285 
   15900    -84.53164    5.6263455   -78.905294    1404.1065    2592.3494    9.5181435   0.15469625 
   16000   -85.856777      4.49033   -81.366447    1120.6034   -5535.3738    9.6370129  0.098198416 
   16100   -84.799341     3.660123   -81.139218    913.41754   -4134.8791    9.5469576   0.17217882 
   16200   -83.474717    4.1350935   -79.339624    1031.9508   -11350.309    9.2646646   0.20735144 
   16300     -85.9483    5.7160634   -80.232237    1426.4965    7659.7099    9.7791695   0.11298878 
   16400   -87.054934    5.4982107   -81.556724    1372.1293    14659.558    10.009497  0.093128911 
   16500   -84.869801    5.1209823   -79.748819    1277.9885    -3435.341    9.5285461   0.14747962 
   16600   -83.434314    4.8246994   -78.609614    1204.0483    7066.0221    9.4230207   0.19793496 
   16700   -86.070041    4.6070878   -81.462953    1149.7414   -8770.5208    9.6322773   0.10559283 
   16800    -85.97197    5.1277177   -80.844252    1279.6694   -7886.4064    9.6122715   0.10316407 
   16900   -85.267648    6.0269168   -79.240731    1504.0728   -1068.6896    9.5818984   0.10851123 
   17000   -85.078322    4.7546347   -80.323687    1186.5631    27124.305    9.8775457   0.11052594 
   17100   -85.811811    4.0903977   -81.721413    1020.7966   -7455.7084    9.6287606   0.10936563 
   17200   -85.065362    5.3097288   -79.755633    1325.0919    -19868.95    9.3607865   0.13248776 
   17300   -84.712932    5.1109951   -79.601937    1275.4961    11987.081     9.646501   0.12583071 
   17400   -86.499357     4.904585   -81.594772    1223.9845    27761.135     10.02941  0.076078142 
   17500   -85.509758    5.6070275   -79.902731    1399.2856   -2109.8815    9.6069151   0.11461415 
   17600   -84.868571    5.4743003   -79.394271    1366.1623   -11877.823    9.3890681   0.14534874 
   17700    -85.88521    4.2351046   -81.650105    1056.9095   -18905.438    9.4955246   0.12205734 
   17800   -85.106069    4.8645531   -80.241516    1213.9942    10221.272    9.7090229     0.146264 
   17900   -83.110464    4.3240749   -78.786389    1079.1129   -23534.454    9.0587989   0.30302263 
   18000   -82.443989     3.991808   -78.452181     996.1926   -15226.803     9.043848   0.28381825 
   18100    -85.68381    4.5484888   -81.135321    1135.1174   -3821.3366    9.6043796   0.12457474 
   18200   -85.402363    4.9255231    -80.47684    1229.2098    14129.474    9.7623546   0.11476332 
   18300   -84.184691    5.2294727   -78.955219    1305.0633    16140.596    9.6524579    0.1433644 
   18400   -85.277835    6.5717779   -78.706057     1640.048    10670.176    9.6893241   0.14876643 
   18500    -85.40047     4.059925   -81.340545    1013.1918   -26598.302    9.3507745   0.15329152 
   18600   -84.096318    3.8468192   -80.249499    960.00931    -17006.01     9.311728    0.1572962 
   18700    -84.93166    4.9576831   -79.973977    1237.2357   -505.94283    9.5834962   0.15868486 
   18800   -87.036678     5.447538    -81.58914    1359.4835    9686.5536    9.9312518  0.075284794 
   18900   -85.797784    3.5899036   -82.207881    895.89363    17504.938    9.9026966   0.10386185 
   19000   -84.791439    4.1406622   -80.650777    1033.3405   -8472.5055    9.4626307   0.15174494 
   19100   -83.829027    4.0476566   -79.781371    1010.1301   -7755.7175      9.30183   0.19444825 
   19200   -84.026201    4.4086943   -79.617507    1100.2304   -634.38856    9.4255467   0.19440476 
   19300   -86.699894    4.6519944     -82.0479    1160.9482    7951.2244    9.8871037  0.092380971 
   19400   -85.613114    4.7523835   -80.860731    1186.0013    12065.545    9.8111286   0.10891445 
   19500   -84.621418     4.912758    -79.70866    1226.0242   -15610.076    9.3251189   0.18151255 
   19600   -83.098955    4.4743596   -78.624596    1116.6178   -36882.442    8.9282817   0.20572948 
   19700   -85.915356    4.8320327   -81.083323    1205.8784      16246.6    9.8615864   0.11001029 
   19800   -85.927391    5.3212868   -80.606104    1327.9763    27673.379    9.9773341  0.094806232 
   19900   -85.628178    5.9169685    -79.71121    1476.6342   -5166.6125    9.5796926  0.092471014 
   20000   -85.933971    4.4971924   -81.436779     1122.316   -6877.9473    9.6088091   0.13191577 
   20100   -85.991162    4.3289115   -81.662251    1080.3199   -11224.889    9.6003679   0.12111607 
   20200   -84.717335    4.8664963   -79.850838    1214.4791    3444.0116     9.541974   0.13794258 
   20300   -84.600582    4.3949798   -80.205602    1096.8079    3.2012936      9.53776   0.18348378 
   20400   -86.078577    3.8488179   -82.229759    960.50809    1847.9894    9.7560351  0.088527547 
   20500   -86.683583    4.7519439   -81.931639    1185.8915    21585.281    10.029072  0.091664183 
   20600   -85.683902    5.2851372   -80.398765    1318.9549     15780.45    9.8586071   0.10330054 
   20700   -84.539786    4.3053814   -80.234405    1074.4477   -12353.132    9.3727477   0.18220656 
   20800    -85.24432    5.7035319   -79.540788    1423.3691   -43116.874      9.13413   0.15323015 
   20900   -82.161173    5.2508752   -76.910298    1310.4045    7083.9109    9.2099079   0.26877627 
   21000   -85.507791    5.7822637   -79.725527    1443.0174     3981.539    9.6621213   0.10901834 
   21100   -84.937055    4.2465466   -80.690508     1059.765    7100.9393    9.6768892   0.14774925 
   21200    -85.33743    5.8199308   -79.517499    1452.4175   -32671.546    9.2486417   0.14030434 
   21300   -84.909309     7.059882   -77.849427    1761.8589   -9877.7856    9.3922409   0.15861639 
   21400   -85.386024    4.8067832   -80.579241    1199.5772    9234.4931    9.7400578   0.11222203 
   21500   -85.506391    5.4940388   -80.012352    1371.0882    11790.241    9.6859489   0.11951018 
   21600   -83.780843    5.0923116   -78.688532    1270.8335    28779.213    9.6665428   0.19606953 
   21700   -83.383345     5.281744   -78.101601     1318.108   -41120.594    8.9170897   0.19178333 
   21800   -85.729329    4.3680209   -81.361308      1090.08   -33786.021     9.343525   0.13094678 
   21900   -85.363899    4.5487857   -80.815113    1135.1915    11725.796    9.7628917   0.11753945 
   22000    -84.93806    5.0568674   -79.881192     1261.988    2276.3714    9.5905498   0.16063333 
   22100   -84.966699    5.9160153   -79.050684    1476.3963   -7342.2944    9.4443789   0.20999176 
   22200   -86.303528    5.2769714   -81.026557     1316.917     14701.39    9.9400633    0.1033056 
   22300   -85.898035    4.4640996   -81.433936    1114.0573    10973.682    9.8348137   0.10987062 
   22400   -84.418233    5.5730342   -78.845199    1390.8022    -18086.67    9.2729404   0.19853504 
   22500   -83.879676    3.8649462    -80.01473    964.53306    6582.5479    9.5051098   0.17432608 
   22600   -86.054013    5.2673881   -80.786625    1314.5254   -15925.196    9.5178768   0.10618891 
   22700   -83.364786    4.8612169   -78.503569    1213.1616    27692.942    9.6656351   0.18284547 
   22800   -84.440992     6.186492     -78.2545    1543.8963    37812.083    9.8504129    0.1258445 
   22900   -86.837829    6.3996288     -80.4382    1597.0865    2436.8973     9.817255  0.078968532 
   23000   -84.339865    3.9993021   -80.340563    998.06282   -6005.3795    9.4268185   0.13313566 
   23100   -84.104124    4.8496422   -79.254482     1210.273   -16788.228    9.2349549   0.19185687 
   23200   -83.065069    5.2392507   -77.825818    1307.5035    2044.3372    9.3408029   0.23891379 
   23300   -85.684873    5.3408454   -80.344028    1332.8574   -14137.286    9.4901104   0.12114839 
   23400   -84.956305    4.6019731   -80.354332    1148.4649    5307.5806      9.64898   0.14636528 
   23500    -84.31628    5.5948516   -78.721428     1396.247    17063.495    9.6484136   0.15232165 
   23600   -82.751595    4.9646375   -77.786957    1238.9712   -4478.6319    9.1602896   0.28198533 
   23700   -85.212737    4.0860018   -81.126735    1019.6995   -10216.726    9.5000116   0.14729979 
   23800   -84.856743    4.3120265   -80.544716    1076.1061   -15537.008    9.3798264    0.1126084 
   23900   -84.388105    4.7741368   -79.613968      1191.43    5236.3883    9.5228453    0.1685004 
   24000   -83.550656    5.6309551   -77.919701    1405.2569   -2967.2301    9.3294744   0.25039302 
   24100   -83.400837    5.8862762   -77.514561    1468.9747   -2010.5598    9.2928571   0.17787313 
   24200   -85.306504    5.2465949   -80.059909    1309.3363    564.66215    9.6514675   0.13216112 
   24300   -84.761956    4.5132695   -80.248686    1126.3281    1028.9839    9.5367138   0.13945428 
   24400    -84.64907    4.9080338   -79.741036    1224.8452     1318.269    9.5279556   0.13543178 
   24500   -83.579378    6.9926095   -76.586769    1745.0704   -8499.6833    9.2255865   0.21031809 
   24600   -83.475147    4.5138716   -78.961275    1126.4784    15994.416     9.577826   0.19252976 
   24700    -85.01622    4.9420213   -80.074199    1233.3271   -18545.265    9.3581888   0.14728406 
   24800   -86.434668    5.6765388   -80.758129    1416.6328   -8995.2461    9.6256838   0.11747199 
   24900   -84.973769    6.0732528   -78.900516    1515.6364    16164.309    9.7390165   0.14136857 
   25000   -85.456361    7.1437973   -78.312563    1782.8007    -6937.346    9.5340874   0.13445155 
   25100   -84.496079     4.554217   -79.941862     1136.547   -34621.636    9.1333632   0.16387578 
   25200   -84.079562    3.6825013   -80.397061    919.00225   -6964.7149    9.3988558   0.16347426 
   25300   -85.299858    5.2967727   -80.003085    1321.8586   -7624.4026    9.5188172    0.1435431 
   25400   -81.700553    5.0234788   -76.677074    1253.6556    24176.545    9.3454176   0.32141735 
   25500   -85.090321    5.4318382   -79.658483    1355.5654     4760.421    9.6309507   0.13779808 
   25600   -85.675892    5.4253116    -80.25058    1353.9367   -9741.9911     9.556843   0.12132652 
   25700   -85.124581    4.9855142   -80.139067    1244.1812   -13761.662    9.4390351   0.12866338 
   25800   -85.571859      4.78239   -80.789469    1193.4897   -24224.819    9.4088231   0.14748823 
   25900   -86.194583     3.384535   -82.810048    844.64201    17297.868    9.9493727   0.10069941 
   26000   -85.146768    4.2692596   -80.877508    1065.4332    16661.006     9.786809   0.10939675 
   26100   -85.557199    5.5493639   -80.007836    1384.8951   -7650.2109    9.5361425   0.10289698 
   26200   -85.472938    5.6019145   -79.871023    1398.0096   -12834.843    9.4885567    0.1143792 
   26300   -86.940605    4.2490161   -82.691589    1060.3813   -1267.8914    9.8440383  0.082614045 
   26400   -85.741731    4.5308555   -81.210876    1130.7169    -11915.15    9.5770009   0.12413655 
   26500    -85.39245    5.6108498     -79.7816    1400.2395   -10979.157    9.4970001   0.14617968 
   26600   -83.880623    4.6092496   -79.271373    1150.2809    31735.943    9.7422868   0.12163322 
   26700    -86.65078    4.7714916   -81.879289    1190.7699   -13357.223    9.6722662   0.10224916 
   26800   -85.567715    5.1757495   -80.391966    1291.6561   -6664.7682    9.5798695   0.13791005 
   26900   -85.187875    5.8464675   -79.341408      1459.04   -7172.7394    9.4968953   0.12567227 
   27000   -86.101934    4.3613063   -81.740628    1088.4043   -4442.4281    9.6934169   0.12852652 
   27100    -85.90664    4.9694912   -80.937149    1240.1825    18699.188    9.8832427  0.093603245 
   27200   -84.552889    5.2261065   -79.326783    1304.2232    4244.8262    9.5572525    0.1612712 
   27300   -84.600744    4.5064306   -80.094314    1124.6214   -7646.7856    9.4402952   0.13939567 
   27400   -85.817125    3.8397001   -81.977425    958.23266   -1577.8599    9.6555864   0.13730346 
   27500   -85.000216    5.2999221   -79.700294    1322.6446   -17485.994    9.4040363   0.18139871 
   27600   -85.624716    6.7174532   -78.907263    1676.4026   -11006.882    9.4942587   0.14314768 
   27700   -85.781482    4.3548613   -81.426621    1086.7959    8263.0006    9.7508014   0.11763334 
   27800   -84.836755    4.5552807   -80.281474    1136.8124   -12142.515    9.4191213    0.1453492 
   27900   -83.923638    4.5385911   -79.385047    1132.6474   -5853.4223    9.3421653   0.19524139 
   28000   -85.758353     4.324642   -81.433711    1079.2544    20706.947    9.9046421   0.11978773 
   28100   -86.433626    5.8006971   -80.632929    1447.6176   -3389.9054    9.7178989   0.10265853 
   28200   -84.467806    5.4157771   -79.052029    1351.5573   -7183.0417    9.3919607   0.16501579 
   28300   -85.194783    4.4360807   -80.758702     1107.065   -25091.559    9.3444945   0.15541997 
   28400   -85.165517    4.0633387   -81.102178    1014.0438   -7639.9306    9.5159419   0.16261567 
   28500   -83.256071    5.1400022   -78.116069    1282.7351    16462.653    9.4772727   0.18202788 
   28600   -85.758185    5.9294159   -79.828769    1479.7406   -3187.0252    9.6386851   0.10759387 
   28700   -86.171855    5.2551418   -80.916714    1311.4692   -2915.5766    9.7013666   0.10337039 
   28800   -85.439541    6.6487868   -78.790754    1659.2662   -8833.6307    9.5038352   0.12755253 
   28900   -83.999417    5.2582793   -78.741138    1312.2522    4845.2052    9.4702231   0.14087374 
   29000   -85.588536    4.5097896   -81.078747    1125.4597    1697.2131    9.6963521   0.10236601 
   29100    -84.87458    4.8091385   -80.065441     1200.165    11136.108    9.7075995   0.13034444 
   29200   -84.484748    6.4001609   -78.084587    1597.2193    8303.7647     9.544128   0.15136471 
   29300   -85.254468    4.4396121   -80.814856    1107.9463      24668.2    9.9244323   0.14076856 
   29400     -84.9108    4.3321481   -80.578652    1081.1276    184.14116    9.5704052   0.15588107 
   29500    -84.50485    5.6642392   -78.840611    1413.5633   -27498.637    9.1705973    0.1631629 
   29600   -84.958123    5.1142023   -79.843921    1276.2965   -516.00617    9.5525875   0.19221831 
   29700   -85.862972    4.2853324    -81.57764    1069.4443   -7174.1375    9.6146104   0.13466424 
   29800    -83.98465    4.2695817   -79.715068    1065.5136   -20028.709    9.2026562   0.22247929 
   29900   -83.198757     4.013931   -79.184826    1001.7136   -38813.381    8.8879482   0.17585694 
   30000   -86.212228    4.4444075    -81.76782     1109.143    1678.9908     9.746684   0.11096049 
   30100   -85.508399    5.5615829   -79.946816    1387.9444      19007.2    9.8580153   0.11659208 
   30200   -85.179382    6.0564296   -79.122952     1511.438   -2814.0849    9.5735286   0.14000482 
   30300   -86.044838    4.4855667   -81.559271    1119.4146   -7797.4486    9.6408716  0.092689487 
   30400   -85.658828    4.9630925   -80.695736    1238.5856   -10468.656    9.5482913   0.12333635 
   30500    -84.90514    5.9091708   -78.995969    1474.6882   -247.94245    9.5188037   0.13787955 
   30600   -85.568848    4.4222156   -81.146632    1103.6048   -439.38612    9.6426598   0.14684073 
   30700   -85.127159    4.3427323   -80.784427     1083.769   -7799.9864    9.4921752   0.11470091 
   30800   -84.271565    5.4799579   -78.791607    1367.5742    3107.0429    9.4748908   0.15121599 
   30900   -85.240931    5.1888019   -80.052129    1294.9135    46237.532    10.130463  0.086783612 
   31000   -87.001432    5.7014177   -81.300014    1422.8415    2312.4372    9.8562167  0.076565493 
   31100   -83.780621    4.1428541   -79.637767    1033.8876     6115.459    9.4216268   0.17906673 
   31200    -83.97046    5.0714775   -78.898982    1265.6341    -23736.57    9.1882305   0.18462905 
   31300   -86.230782    4.5292122    -81.70157    1130.3068   -195.23532    9.7330676  0.096327339 
   31400   -85.473569    4.9180707   -80.555498      1227.35    9770.8218    9.7358103   0.13011017 
   31500   -85.007818    6.1712662   -78.836552    1540.0965    6678.1488    9.6291575   0.15718856 
   31600   -85.175799    3.9448381   -81.230961    984.47083   -1849.3715     9.606976   0.11286329 
   31700   -85.497642    4.6333475   -80.864295    1156.2947   -17139.122    9.4566042   0.15542384 
   31800   -84.241819    5.0879291    -79.15389    1269.7398   -12442.399    9.3435112   0.18891351 
   31900   -85.687192    5.3432207   -80.343971    1333.4501    19514.032    9.8636244   0.11694028 
   32000   -86.213589    4.8554721   -81.358117     1211.728    38478.952    10.151988  0.083244148 
   32100   -84.369116    4.8505928   -79.518524    1210.5103   -8068.8658    9.3947942   0.16828513 
   32200   -84.315706    4.3111877   -80.004518    1075.8968   -21722.024    9.2643906   0.17310699 
   32300   -86.483311    4.6496768   -81.833634    1160.3699   -2258.4903     9.732354   0.10452325 
   32400   -85.415896    5.9992124   -79.416684    1497.1589    2761.2668    9.6494133   0.14774862 
   32500   -84.691769    5.0141094    -79.67766    1251.3174   -12524.474    9.3797805   0.18638284 
   32600   -86.049545    4.5051738   -81.544372    1124.3078   -17430.791    9.5033394   0.09973767 
   32700   -86.080017    4.8624531   -81.217564    1213.4701    9403.6556    9.8255423   0.12269795 
   32800   -83.957111    4.9709058   -78.986205    1240.5355    26677.152    9.7361853   0.13147972 
   32900   -84.891786    4.6286525   -80.263134     1155.123    14814.167    9.7144156   0.13620577 
   33000   -84.918511    3.5446012    -81.37391      884.588   -4925.2882     9.546107   0.12736619 
   33100   -84.391392    5.2931551   -79.098237    1320.9558    1488.4933    9.5006937   0.16754721 
   33200   -84.882557    5.7769055   -79.105651    1441.6802   -5031.7625    9.5026196   0.15067987 
   33300   -85.249778    4.5823563   -80.667422    1143.5694   -7374.2894    9.5202381   0.13550155 
   33400   -85.323953    5.0370415   -80.286911    1257.0403   -684.04079    9.6224798   0.10640766 
   33500   -83.474031    5.8830415    -77.59099    1468.1674     9583.387    9.4341109   0.21692674 
   33600     -85.2145    4.8899842   -80.324516    1220.3408   -9368.6942    9.4672215   0.15100148 
   33700   -84.772782    4.0614131   -80.711369    1013.5632   -9276.6881    9.4523904   0.16572722 
   33800   -84.229442    4.9279814   -79.301461    1229.8233   -8870.8106    9.3484035    0.1968226 
   33900   -84.495156    5.5469261    -78.94823    1384.2867   -18776.884    9.3251944   0.15875498 
   34000    -86.52152    5.3548416   -81.166678    1336.3502    15128.835    9.9262461  0.090364446 
   34100   -84.528611    4.1184236   -80.410187    1027.7907    15456.503    9.6864731   0.15419524 
   34200   -83.099658    4.5354943   -78.564164    1131.8745   -26110.459    9.0409003   0.24787766 
   34300   -83.345801    4.5516922   -78.794109    1135.9169    -24797.57    9.0413319   0.20723231 
   34400    -85.89326    5.1541796   -80.739081    1286.2732    10603.373    9.7699952   0.10207061 
   34500   -85.095872    4.9024185   -80.193454    1223.4439    15575.637    9.7764891   0.12045524 
   34600   -84.502988    6.7493282    -77.75366    1684.3573   -8681.0409    9.3486102   0.16741663 
   34700   -85.174684    6.4350966   -78.739587    1605.9379    4982.8417     9.620295   0.14208231 
   34800   -85.229678    4.2234769   -81.006201    1054.0077    9170.1806    9.7318593   0.13630578 
   34900   -84.498118    4.4112194   -80.086899    1100.8606    306.18482    9.5350476   0.16521044 
   35000   -85.178699    5.5811104   -79.597588    1392.8177   -21120.646    9.2947699   0.13741103 
   35100   -86.570521    4.2814467   -82.289074    1068.4746    2355.3124    9.8017621   0.10154112 
   35200   -85.270279    4.5774124   -80.692867    1142.3356    3318.9436    9.5978446   0.11534772 
   35300   -84.403313    4.8355507   -79.567762    1206.7564   -3168.6701    9.4585929   0.17715935 
   35400   -85.379884    4.1696071   -81.210277     1040.564   -11056.202    9.5401538   0.10820287 
   35500   -85.909966    4.1791956   -81.730771    1042.9569    7478.1111    9.7982772   0.11583618 
   35600   -84.360608    4.8783861   -79.482222    1217.4464    29335.527    9.7764645   0.11496306 
   35700   -85.144262    5.4281028   -79.716159    1354.6332    2977.6948    9.6144843   0.11361662 
   35800    -86.32362    4.0540886   -82.269532    1011.7353   -3099.3377    9.7139497   0.10108765 
   35900   -84.081937    3.2772358   -80.804701     817.8645    2747.4491    9.4856538   0.16440281 
   36000   -84.244753    4.7085524   -79.536201    1175.0628     2719.504    9.4589908    0.1688438 
   36100   -85.271999    4.5056396   -80.766359     1124.424    20260.309    9.8390536   0.10788613 
   36200   -87.641921    5.9963699   -81.645551    1496.4496    13942.483    10.042244  0.056088069 
   36300   -85.115462    5.6200573   -79.495405    1402.5373    -21573.31    9.3597359   0.15620356 
   36400   -84.111555    4.6735078   -79.438047    1166.3171   -24086.147     9.190923   0.21982597 
   36500    -85.82318    4.1068169   -81.716363    1024.8941   -9945.1675    9.5728911  0.090174745 
   36600   -85.476756    4.2736446   -81.203112    1066.5275    20593.136    9.8949358   0.11649059 
   36700   -84.805456     5.372065   -79.433391    1340.6485    39290.325    9.9604698   0.13033666 
   36800   -84.434671    4.6845949   -79.750076     1169.084   -913.98997     9.464412   0.12447492 
   36900   -85.528721    3.4664027   -82.062318    865.07285   -29293.141    9.3563443   0.13007185 
   37000   -84.806591    3.9420643   -80.864527     983.7786    4713.8349    9.6305499   0.16515144 
   37100   -85.972192    6.3100102   -79.662182    1574.7214    20339.282    9.8969563   0.12956969 
   37200   -85.298298    5.6889345   -79.609363    1419.7262    11778.365    9.7242043   0.11919574 
   37300   -86.233255    4.1004304   -82.132825    1023.3003    -15615.94    9.5771986    0.1045868 
   37400   -85.463441    3.7484144   -81.715026    935.45149    2459.1795    9.6576303   0.13662442 
   37500   -84.711945    4.6183037   -80.093641    1152.5404    13573.665    9.7132188   0.13911232 
   37600   -85.854604    6.1459373   -79.708667    1533.7755   -8933.0902    9.5836297   0.13033444 
   37700   -83.617433    5.3571541   -78.260279    1336.9274    22561.419    9.6398951   0.16549493 
   37800    -86.10923    5.1299975   -80.979232    1280.2383    7647.7852    9.7933804  0.091304487 
   37900   -85.856227    4.9076138   -80.948613    1224.7404    4189.0658    9.7637349   0.11402542 
   38000   -84.097311     4.552052   -79.545259    1136.0067    14937.209    9.6244814   0.18674892 
   38100   -84.318215    5.8028212   -78.515393    1448.1477    -21096.99    9.1829325   0.18431243 
   38200    -85.35231    3.7410715   -81.611238    933.61899    6926.9779    9.7257789   0.13588724 
   38300   -85.919237    5.1706374     -80.7486    1290.3804    15871.516    9.8345348   0.10140904 
   38400   -84.688441    4.8167137   -79.871728    1202.0554   -7659.2838    9.4319449   0.15629939 
   38500   -83.203566    4.5240665   -78.679499    1129.0226   -16542.634    9.1364548    0.2034682 
   38600   -86.476466     4.843648   -81.632818    1208.7772    22160.246    10.011207  0.089841087 
   38700   -84.966484    3.8210758   -81.145408    953.58479    13832.721    9.7792732   0.14740969 
   38800   -84.082235     4.674738   -79.407497    1166.6241   -27373.714    9.1786308    0.1667794 
   38900   -85.702024    4.5460689   -81.155955    1134.5135   -1757.1649    9.6564825   0.11820031 
   39000   -85.929717    4.2490709   -81.680646    1060.3949     22093.57     9.963214  0.097405962 
   39100   -84.861897    5.6364375    -79.22546    1406.6251       5175.6    9.6276188   0.15259477 
   39200   -84.868357    4.8300468    -80.03831    1205.3829   -68.316264    9.5654349   0.15038591 
   39300   -85.445461    3.9833761   -81.462085    994.08834   -19437.352    9.4340689   0.15233404 
   39400   -84.493527    5.3546284   -79.138898     1336.297   -17281.574    9.3499231   0.17714912 
   39500   -84.512047     5.461463   -79.050584    1362.9586    24929.534    9.7588082   0.14215002 
   39600   -86.366203    5.2479373   -81.118266    1309.6713    6091.2273    9.8493529  0.085339431 
   39700   -84.261666    4.1068531   -80.154813    1024.9032    9179.2951    9.5794674   0.15035647 
   39800   -83.461538    4.8366948   -78.624843    1207.0419   -8143.1193    9.2101461   0.21080634 
   39900   -85.069727    3.9257658   -81.143961    979.71117    5267.2327    9.6272743   0.13565255 
   40000   -84.632888    4.3661606   -80.266728    1089.6158    27988.847    9.8594685   0.12963831 
   40100   -83.160614    5.0257201   -78.134894    1254.2149    14233.971    9.5133561   0.16733541 
   40200   -84.866379    4.5762896   -80.290089    1142.0554    33256.158    9.9401069   0.11288182 
   40300   -85.198845    4.4247139   -80.774131    1104.2283    44158.919    10.085922   0.11256071 
   40400   -83.607466    4.7939992   -78.813467    1196.3868   -22592.214    9.1344791   0.18634983 
   40500   -83.877536    4.5817449   -79.295791    1143.4168   -14827.946    9.2590794   0.14347573 
   40600   -85.198066    3.9140495   -81.284017    976.78724    1994.0207     9.634347   0.14708108 
   40700   -84.357571     4.380337   -79.977234    1093.1536    17524.899    9.6939127   0.14992375 
   40800   -83.864362     5.716677   -78.147685    1426.6496   -24480.251    9.1256055   0.21454629 
   40900   -82.683514    4.5395624   -78.143952    1132.8898   -4046.0101    9.2120672   0.26647074 
   41000   -84.501785    3.6507443   -80.851041    911.07701    13644.029    9.6341202   0.12522418 
   41100   -84.822391    4.4239283   -80.398463    1104.0322    13146.836    9.7054415   0.12046116 
   41200   -83.648822    5.1386219     -78.5102    1282.3906    21989.112    9.6523286    0.1420773 
   41300   -84.463486    4.5554688   -79.908017    1136.8594    8136.4817    9.5976338   0.13428504 
   41400   -86.031992    5.0685999   -80.963392     1264.916   -19139.894    9.5149782   0.10949501 
   41500   -84.414875    4.8500077   -79.564867    1210.3643   -9176.1917    9.3503935    0.1749707 
   41600   -83.833176    4.6382771   -79.194899    1157.5249   -2074.9539    9.3828702   0.17040685 
   41700   -85.931206    4.5048001   -81.426406    1124.2145    16738.636    9.8860404  0.093512753 
   41800   -85.548188    5.4899058   -80.058282    1370.0568    5186.0507    9.6912223   0.12533359 
   41900   -83.925146    4.9701741   -78.954972    1240.3529    2239.5373    9.4443449   0.16927792 
   42000   -85.410992    3.8000725    -81.61092    948.34323   -1575.3652    9.6159506   0.12523205 
   42100   -85.499643    4.7731087   -80.726534    1191.1734   -2791.7447    9.6335145   0.11807877 
   42200    -85.08232    5.9040937   -79.178226    1473.4212   -3182.7903    9.5060587   0.15780088 
   42300    -85.53225    5.1480221   -80.384228    1284.7365   -7160.9344     9.569651    0.1148957 
   42400   -85.279381     3.789871    -81.48951    945.79736    1038.2782    9.6304656   0.15228957 
   42500   -85.344364    5.4524421   -79.891922    1360.7073   -15153.487    9.4259028   0.13393846 
   42600   -84.327623    5.1531918   -79.174431    1286.0267     23159.59    9.7542923   0.18401685 
   42700   -86.638884    4.5160066   -82.122878    1127.0112   -8243.5386    9.6864469   0.09438502 
   42800   -84.921617    4.1512946   -80.770322     1035.994   -26849.574     9.265176   0.14078877 
   42900   -84.886585    5.2240305   -79.662555    1303.7051    3726.4058    9.5482115   0.16780708 
   43000   -86.036322    5.9646889   -80.071633    1488.5433    4755.1413    9.7623394   0.11084779 
   43100   -86.230551    4.3456842   -81.884867    1084.5057    14644.355    9.9036154    0.1117037 
   43200   -84.460659    4.5173941   -79.943265    1127.3575   -7767.4919    9.4077564   0.16366357 
   43300    -84.01761    4.6068269   -79.410784    1149.6762    12178.973    9.5589151   0.17187301 
   43400   -86.196469    4.6806438   -81.515825     1168.098   -11426.612    9.6325711   0.10239627 
   43500    -86.00073     4.994927   -81.005803    1246.5302   -25535.105    9.4325787   0.13907029 
   43600   -84.439838     5.134353   -79.305485    1281.3253    3641.8696    9.5193657   0.15826132 
   43700     -85.6068    5.2718315   -80.334969    1315.6343    7930.4868    9.7394422   0.13742443 
   43800   -86.574467    4.3499891   -82.224478      1085.58   -13272.298    9.6183404   0.08850991 
   43900   -84.238319    4.3975127   -79.840806      1097.44     -26573.3    9.1896741   0.17600865 
   44000   -84.781444    5.0699358   -79.711508    1265.2494   -4934.2638    9.4648255   0.19650889 
   44100   -85.640697    5.7014898   -79.939208    1422.8595    11375.729     9.771309   0.13304144 
   44200     -87.1871    5.3548094   -81.832291    1336.3422    9789.9885    9.9854817  0.072474914 
   44300   -85.557027    4.5757311   -80.981296     1141.916    4958.9401    9.7378783   0.11181027 
   44400   -84.388075    4.8359645   -79.552111    1206.8597    5687.4834    9.5589082   0.14114134 
   44500   -85.367751    4.8979291   -80.469822    1222.3235    -3935.718    9.5609973  0.094960066 
   44600   -86.242248    4.1663612   -82.075886     1039.754    28890.658    10.070751   0.08659515 
   44700   -84.751033    4.4212204   -80.329813    1103.3564     9271.003    9.6722841   0.15698721 
   44800   -84.277004    5.0466746   -79.230329    1259.4443   -46854.863    8.9945107   0.16707416 
   44900     -84.7292      4.40352    -80.32568    1098.9391    -13450.31    9.3812615   0.18788196 
   45000   -86.125015    4.5380691   -81.586946    1132.5171    9535.4583    9.8276647  0.091843361 
   45100   -87.195757    4.4505483   -82.745209    1110.6755    15570.049    10.040916   0.06676019 
   45200   -85.711062    5.4507163   -80.260345    1360.2767    -14774.38    9.5066171   0.12580459 
   45300   -85.019293    4.9874881   -80.031805    1244.6738   -15623.081    9.4111517   0.14610844 
   45400   -85.219451    4.8650395   -80.354412    1214.1156   -16430.533    9.4019564   0.12853024 
   45500   -87.003832    4.5793327     -82.4245    1142.8148    22839.624    10.100118  0.078999796 
   45600   -86.308236    5.0952224   -81.213013    1271.5599    18790.839    9.9570046  0.080976933 
   45700   -86.140559    6.0326875   -80.107872    1505.5129   -21248.506    9.4867659   0.10273301 
   45800   -84.601754    4.2566378   -80.345116    1062.2833    709.58995    9.5271696   0.13689785 
   45900   -86.284171     3.979783   -82.304388    993.19165    1669.4547    9.7650955  0.099328993 
   46000   -86.144323     4.645544   -81.498779    1159.3385    1750.0238    9.7717782   0.10529973 
   46100   -85.603489     5.592779    -80.01071    1395.7297   -5504.6735    9.6161355   0.11756076 
   46200   -84.501944    4.3026258   -80.199319    1073.7601    6286.2752    9.5666462     0.153814 
   46300    -84.35974    4.5390693    -79.82067    1132.7667   -11546.868    9.3354849   0.20960307 
   46400   -82.930877    5.2841874   -77.646689    1318.7178   -5090.4474    9.1829398   0.23898792 
   46500   -83.858544    4.2713958   -79.587148    1065.9663   -12971.814    9.3138074   0.19927061 
   46600   -85.152293    4.7965617   -80.355732    1197.0263    10439.095    9.7002573   0.13601736 
   46700   -86.208009    4.7065874   -81.501421    1174.5724    21227.457    9.9553712  0.093738117 
   46800   -86.695877    3.8755535   -82.820323    967.18022    -5731.087    9.7574071   0.07590303 
   46900   -84.513049    4.7036021   -79.809447    1173.8274   -19853.941    9.2007894   0.18365108 
   47000   -85.196926    4.9729135   -80.224013    1241.0365    -5030.747    9.5137734   0.12508644 
   47100   -85.245099    5.1157203   -80.129379    1276.6753    11878.464    9.7411096   0.12652297 
   47200   -83.722721    5.1328732   -78.589847     1280.956    28645.426    9.7224203   0.16453316 
   47300   -82.366604    5.7465337    -76.62007    1434.1006   -3584.0669    9.1209246   0.26232507 
   47400   -85.052548    5.1531923   -79.899355    1286.0268   -3307.7983     9.551933   0.17362091 
   47500   -84.675657    4.7047337   -79.970924    1174.1098    6562.0677    9.6151264   0.11913881 
   47600   -85.604082    4.7510305   -80.853051    1185.6636   -5049.4029    9.6233453   0.12291616 
   47700   -86.612547    3.4169528   -83.195594    852.73217   -795.36939    9.7947792   0.10463114 
   47800   -85.758454    4.6821082   -81.076346    1168.4634   -5929.7188    9.6152272   0.10514764 
   47900   -84.563486    4.3734906   -80.189995     1091.445    15585.485    9.7108053   0.14606631 
   48000   -85.404901    5.8706151   -79.534286    1465.0663    20851.272    9.8232015   0.10144735 
   48100   -86.517766    4.1562848   -82.361482    1037.2393   -2786.7978    9.7675417  0.084822451 
   48200   -84.832577     3.600789   -81.231788    898.61019    -21347.82    9.3305146   0.16446083 
   48300   -84.817021    4.7823815   -80.034639    1193.4875   -8958.0133    9.4514726   0.17622837 
   48400   -85.220099    5.4997823   -79.720316    1372.5215   -7043.2717    9.5166647   0.13111368 
   48500   -86.655237    4.5184619   -82.136775    1127.6239    3758.3716    9.8608741  0.066631954 
   48600   -84.709639    4.2116044   -80.498034    1051.0448    15435.189    9.7130999    0.1535991 
   48700   -84.780369    5.1964186    -79.58395    1296.8143   -8204.2992    9.4695261   0.14895751 
   48800   -85.270367    3.8758558   -81.394511    967.25566   -1488.3055    9.6214306   0.11438851 
   48900   -86.340655    4.7480617   -81.592593    1184.9227    -2002.911    9.7033049   0.11400149 
   49000   -84.424312    5.2414286   -79.182884     1308.047    19157.579    9.6732238   0.11781617 
   49100   -86.134063    6.1589788   -79.975084    1537.0301    8212.2876    9.7818686   0.10412419 
   49200   -86.271421    5.0369007    -81.23452    1257.0051   -9719.1781    9.6423807  0.097693449 
   49300   -86.192497    3.4466333   -82.745864    860.13921   -14876.576    9.6216077   0.10152645 
   49400   -85.971711    3.5833425   -82.388369    894.25626    16531.333       9.9002   0.10226558 
   49500   -85.473175     4.589811   -80.883364    1145.4298    20220.687    9.8961608   0.12758878 
   49600    -85.25509    5.0171965   -80.237893    1252.0878   -9786.7507    9.5113021   0.14041954 
   49700   -83.446091    3.6164968   -79.829594    902.53022   -24716.658    9.1429217   0.21867649 
   49800   -85.287991    3.8048106   -81.483181    949.52568   -14270.107    9.4550948   0.13980357 
   49900   -87.127946     5.451985   -81.675961    1360.5933    13498.782    9.9959295  0.064780435 
   50000   -85.576147    5.8162299   -79.759917     1451.494    39026.196    10.064205   0.10755314 
   50100   -84.662858    4.7669727   -79.895885    1189.6421    22908.336    9.7734607   0.12826008 
   50200   -85.691749    4.1739583   -81.517791    1041.6499   -9518.7162    9.5407794   0.11201059 
   50300   -86.687714    4.1605815   -82.527132    1038.3116   -15509.888    9.6736541  0.080663059 
   50400   -84.867968     5.206238    -79.66173    1299.2648    15747.639    9.7341151    0.1929359 
   50500   -85.865457    5.7049855   -80.160471    1423.7319   -13785.009     9.540411   0.13030529 
   50600   -84.921643    4.3801529    -80.54149    1093.1077   -13431.743    9.4108149   0.13540051 
   50700   -85.128577    4.4086758   -80.719901    1100.2258    13804.655     9.768372   0.16428484 
   50800   -82.481961    5.1121627   -77.369798    1275.7875    -4360.105    9.2050853   0.26690056 
   50900   -84.346161    4.8954197   -79.450742    1221.6973    5562.3102    9.5251858    0.1655215 
   51000   -85.579418    5.4381486   -80.141269    1357.1403    20679.461    9.8798114    0.1077247 
   51100   -86.215725    5.4757268   -80.739998    1366.5183    3106.4497    9.7737391  0.086238481 
   51200   -86.741407    3.7691959   -82.972211     940.6377   -18479.194     9.626987   0.08731965 
   51300   -84.992164    3.3519895   -81.640174    836.51997   -17521.691    9.4437774   0.15110363 
   51400   -85.386913    5.0202731   -80.366639    1252.8556    27396.883    9.9269597   0.14383022 
   51500   -85.291005    5.4883832   -79.802621    1369.6768     11265.79    9.7349074    0.1353373 
   51600   -85.016581    4.6698981   -80.346683    1165.4163   -11140.936    9.4773993   0.16547521 
   51700   -85.853223    3.3168651   -82.536358    827.75436    8626.0887    9.8170509    0.1229088 
   51800   -84.632899    4.1380578   -80.494841    1032.6906   -19903.338    9.3037306   0.16097252 
   51900    -84.94434    5.3384823   -79.605858    1332.2676   -19308.035    9.3547976   0.17212175 
   52000   -84.643052    5.5825151   -79.060536    1393.1683    29637.884    9.8597104   0.14799862 
   52100   -82.883499    5.7472716   -77.136228    1434.2848   -4401.7929    9.2310967   0.21889509 
   52200   -83.347092    5.6099225    -77.73717     1400.008    18298.486    9.5379497   0.17310355 
   52300   -85.084277    5.4279196   -79.656358    1354.5875    242.59047    9.6009816   0.13215814 
   52400   -85.032272    4.8980021    -80.13427    1222.3417   -2854.6217     9.548835   0.13746457 
   52500   -85.395785    4.6866137   -80.709172    1169.5878   -17065.482    9.4510512    0.1254061 
   52600   -86.604499    3.4021876   -83.202311    849.04738    554.69213    9.8298708  0.092343834 
   52700   -85.150995    3.9378051    -81.21319    982.71569    9564.1855    9.7558952   0.11972082 
   52800   -85.195416    5.0680435   -80.127373    1264.7771     6918.526    9.6714825   0.15920418 
   52900   -84.502507    5.2961967    -79.20631    1321.7149    1874.4687    9.5518133   0.12836997 
   53000   -86.165484    4.5079479   -81.657536    1125.0001    13015.845    9.9105297   0.10174794 
   53100    -85.44602    4.0926973   -81.353323    1021.3705    26418.113    9.9529744   0.12236592 
   53200   -85.277093    5.8393406   -79.437752    1457.2614   -2998.9589    9.5617363   0.13913736 
   53300   -85.433285     4.885688   -80.547596    1219.2686   -18466.068    9.4326434   0.12496698 
   53400   -85.133971    3.4619171   -81.672054    863.95343   -193.83458    9.6033592   0.14683051 
   53500   -84.901486    5.9882659    -78.91322    1494.4271   -24024.543    9.3336456   0.13511435 
   53600   -83.949074    4.9445731   -79.004501    1233.9639    45844.839    9.9682593   0.15965809 
   53700   -86.421391    5.2856635   -81.135728    1319.0862   -242.97284    9.7530789  0.082838156 
   53800   -85.708887    4.6927909   -81.016096    1171.1294   -18519.613    9.4625142    0.1410212 
   53900   -84.383654    5.3060734    -79.07758    1324.1797   -17724.458    9.2690232   0.16203389 
   54000   -85.953456    5.3222597   -80.631196    1328.2191   -6270.8292    9.6121048   0.10970554 
   54100   -85.759638    4.5240419   -81.235596    1129.0165    12286.421    9.8254933  0.091209988 
   54200   -84.109436    5.2850364     -78.8244    1318.9297   -3883.3277    9.4106819   0.19039432 
   54300   -84.433818    4.5433591   -79.890458    1133.8373   -5475.1194    9.4279442   0.14100471 
   54400   -86.511903    5.0157991   -81.496104     1251.739    17636.066    9.9820408  0.087795336 
   54500    -85.66577     6.277888   -79.387882     1566.705     26201.96    9.9406236    0.1045006 
   54600   -85.463203    5.9153393   -79.547863    1476.2276   -7652.3482    9.5456714   0.10668846 
   54700   -85.410466    3.8154898   -81.594976    952.19077   -521.50756    9.6464007   0.12499249 
   54800   -85.408437     5.658225   -79.750212    1412.0624    -9608.966    9.5325227   0.12725497 
   54900   -85.214389    6.0486198   -79.165769     1509.489    7569.1878    9.6499692   0.12076942 
   55000     -86.0865    4.9235204    -81.16298    1228.7101    6133.3758    9.7531444   0.10037723 
   55100   -84.702627    4.3662319   -80.336396    1089.6335    4538.5864    9.6109161   0.14543488 
   55200   -83.385365    5.1274668   -78.257899    1279.6068    2640.6282    9.3247942   0.22294151 
   55300   -85.741359    5.1661825   -80.575176    1289.2686   -2729.1561    9.6482272   0.12700794 
   55400   -86.462872    5.5930752   -80.869796    1395.8036     11643.45    9.8750639   0.10319767 
   55500   -84.162431    5.7009883   -78.461442    1422.7343   -9103.1839     9.319398   0.16512565 
   55600   -84.997646     4.871047   -80.126599    1215.6148    -27117.57    9.2466686   0.16133978 
   55700   -86.206627    5.1775035   -81.029124    1292.0939   -19743.939    9.4887878  0.094676906 
   55800   -84.261271    5.5891909    -78.67208    1394.8343    27541.959    9.7503086   0.18076762 
   55900   -85.352459    6.6625681   -78.689891    1662.7055    4265.8505    9.6445099   0.12435935 
   56000   -84.938881     4.861099   -80.077782    1213.1322    27222.801    9.8683519   0.10169125 
   56100   -85.675793    4.9877889   -80.688004    1244.7489   -17639.527    9.4592432   0.12551991 
   56200   -82.397035    4.5878752    -77.80916    1144.9467   -10918.017    9.0283383   0.18178434 
   56300   -83.115363    5.0167441   -78.098619    1251.9749   -12930.656    9.1614042   0.25901538 
   56400   -85.884756    5.8552279   -80.029528    1461.2263    26704.335    9.9963062   0.10884275 
   56500    -85.90461     5.718059   -80.186551    1426.9945    16142.522    9.8514477   0.11373822 
   56600   -83.938993    5.4591494   -78.479844    1362.3812    3106.4507    9.4706943   0.16150303 
   56700   -83.801193    5.2617439   -78.539449    1313.1168    3443.6945    9.4118031   0.15257887 
   56800   -85.414806    4.7706888   -80.644118    1190.5695   -29125.636    9.3262771   0.11910469 
   56900   -84.348345    4.0021848    -80.34616    998.78222    12951.853    9.6133104   0.15882587 
   57000   -84.086282    5.3906621    -78.69562    1345.2896   -12319.058    9.3350757   0.17950285 
   57100   -85.312297    4.8105205   -80.501777    1200.5099   -11311.327    9.5041467    0.1628713 
   57200   -85.389585    4.4678085   -80.921776    1114.9829     23734.62    9.8853259  0.092422596 
   57300   -85.725902    5.8300758   -79.895826    1454.9493    13474.011    9.8197193   0.11674692 
   57400   -85.062171    6.9214133   -78.140758    1727.3027    -20979.99    9.3187487   0.11801576 
   57500   -84.964796    4.2007492   -80.764047    1048.3358   -20727.361    9.3905169   0.18866093 
   57600    -85.25537    4.6798865   -80.575484     1167.909   -34506.892    9.2676491   0.12816157 
   57700   -84.395329    4.7893516   -79.605977     1195.227    4995.9362    9.5449487   0.19294816 
   57800   -85.528836    7.3616253   -78.167211    1837.1617   -23046.948    9.3675661   0.13120007 
   57900   -86.460838    5.3915961   -81.069242    1345.5227    24433.661     10.04304   0.11093679 
   58000   -85.730746    5.0661258    -80.66462    1264.2985   -9232.0549    9.5661445   0.11546204 
   58100   -85.009126    5.6467567   -79.362369    1409.2003   -2264.7029     9.534984   0.13831539 
   58200   -84.374385    5.1729228   -79.201462    1290.9507   -6938.0957    9.3930364   0.16098573 
   58300   -86.030609    4.3441571   -81.686452    1084.1246   -9556.4903    9.6183976   0.10431371 
   58400   -84.882808    4.4963584    -80.38645    1122.1078    14612.161    9.6936203   0.14507728 
   58500   -84.258068    5.1938176   -79.064251    1296.1652    12681.177    9.5435539    0.1217051 
   58600   -86.175371    4.5727468   -81.602624    1141.1712   -18816.528    9.5346775   0.12176785 
   58700   -85.227926    4.1605476   -81.067378    1038.3031   -12780.506    9.4852205   0.14448675 
   58800   -83.859985    4.6224459   -79.237539    1153.5741    16663.307     9.587788   0.16647565 
   58900   -84.837313    4.5992675   -80.238045    1147.7897    15565.848    9.7576838   0.15559876 
   59000   -86.169752    4.2579471   -81.911805    1062.6101     1124.495    9.7675811   0.10262154 
   59100    -84.24475    4.9264658   -79.318285    1229.4451   -12092.897    9.3570527   0.15174749 
   59200   -84.996043    4.9284142   -80.067629    1229.9313     5668.365    9.5891422   0.11709044 
   59300   -86.138992    4.7722742   -81.366718    1190.9651    22367.974    9.9819323  0.092001277 
   59400   -86.478581    4.6147102   -81.863871    1151.6436   -988.74571    9.7557174  0.094592356 
   59500   -84.596462    5.2714423    -79.32502    1315.5372   -28145.648    9.2416891   0.12411535 
   59600   -84.810685    4.8261102   -79.984575    1204.4004   -30.490777    9.5595121   0.17747684 
   59700    -86.12201    5.7655018   -80.356508    1438.8343   -1525.1737    9.6604114  0.094339059 
   59800   -87.043442    4.2817536   -82.761688    1068.5512     4533.209    9.9205165  0.071445264 
   59900   -85.095952    4.3296413    -80.76631     1080.502   -26853.289    9.3132728   0.15296592 
   60000   -84.164692    4.5271103   -79.637582    1129.7822   -19019.609    9.2593259   0.17154114 
   60100   -85.632954    5.0687672   -80.564187    1264.9577    5370.0899    9.7386617   0.12309197 
   60200   -85.682194    4.8396702   -80.842524    1207.7845    46390.099    10.189889  0.087468379 
   60300   -84.044958     5.713391   -78.331567    1425.8296    15891.369    9.5419407   0.21144904 
   60400   -83.516742    4.4776984   -79.039044     1117.451   -7876.0613    9.3203822   0.19257895 
   60500   -84.959745    4.3944178   -80.565328    1096.6676    -6165.476    9.5283909   0.16806858 
   60600   -85.704684    5.1243891   -80.580295    1278.8387     3618.989    9.7080108   0.09345314 
   60700   -82.373961    5.0941186   -77.279842    1271.2844    12873.268     9.320564   0.37003052 
   60800   -83.722884    4.7718141    -78.95107    1190.8503   -3862.8546    9.3544189   0.26858864 
   60900   -84.701056    4.7084444   -79.992612    1175.0358   -41872.004    9.1049197    0.1537568 
   61000   -85.586981     4.914579   -80.672402    1226.4786   -5082.1766    9.5355537   0.10357885 
   61100   -87.574794    5.0158607   -82.558933    1251.7544    -3965.883    9.8694412  0.056204132 
   61200   -86.166327    4.2425584   -81.923768    1058.7697     5277.665    9.7994507    0.1179402 
   61300   -84.904169    4.3243194   -80.579849    1079.1739    2289.4647     9.614407   0.13500164 
   61400   -84.871048    4.6496981    -80.22135    1160.3752   -955.96816    9.5812979   0.13761776 
   61500   -84.518411     4.863263   -79.655148    1213.6722    3614.2988    9.5722493   0.18807369 
   61600   -82.340782    5.4263306   -76.914452     1354.191    14974.535    9.3623158   0.22873325 
   61700   -86.207875    7.0660493   -79.141826    1763.3979    50586.708    10.279846   0.08172597 
   61800   -85.377122    4.8925497   -80.484573     1220.981    16131.923    9.8154843   0.11297766 
   61900   -84.389286    4.6288359    -79.76045    1155.1688   -18125.632    9.2690056   0.16251606 
   62000   -83.221133    5.4369764   -77.784156    1356.8477   -15404.836    9.0848643   0.23961303 
   62100   -84.490838    4.7334857   -79.757352    1181.2851    18840.179    9.7074103   0.16045092 
   62200   -85.491744    5.0090094   -80.482735    1250.0446    14498.277    9.8029592   0.11876202 
   62300   -84.973808    4.9802843   -79.993524     1242.876    743.39122    9.5675147   0.13998148 
   62400   -83.461963    5.8223125   -77.639651    1453.0119    17059.542    9.5821145   0.18579848 
   62500   -86.031723    5.8165235   -80.215199    1451.5672   -7096.6954    9.6540273   0.12602406 
   62600   -85.549366    4.9806688   -80.568697     1242.972    1311.3048    9.6189973   0.13153987 
   62700   -83.975394    4.6730559   -79.302338    1166.2043   -8713.8155    9.3428933    0.1874565 
   62800   -83.064418    4.8024198   -78.261998    1198.4883   -18299.188    9.0876064   0.22081276 
   62900   -86.084801    4.9331004     -81.1517    1231.1008    24950.591    10.000505   0.10267496 
   63000   -85.901919    5.4830655   -80.418854    1368.3497    17828.431    9.8832653   0.08941503 
   63100   -84.311778    4.6124672   -79.699311    1151.0838    13277.731    9.6408823   0.18192303 
   63200    -83.94922    5.7285904   -78.220629    1429.6227   -20497.738    9.1152773   0.18327158 
   63300    -82.98678    5.1427937   -77.843986    1283.4317   -10137.761    9.1752484   0.18424288 
   63400   -85.104013    4.8237648   -80.280248    1203.8151   -15230.688    9.3986099   0.18112981 
   63500   -85.568801    5.5364202   -80.032381    1381.6649   -7192.7951    9.5299693   0.12634158 
   63600    -85.29457    4.9488845   -80.345685    1235.0399    5559.7972    9.6757967   0.13581303 
   63700   -87.693522    4.9206013   -82.772921    1227.9816   -352.08093    9.9355138  0.069757628 
   63800    -85.74932    4.6804908   -81.068829    1168.0598   -8935.9923    9.5709109   0.12885933 
   63900   -84.671216    4.4826175   -80.188598    1118.6786    -11917.51    9.4274978   0.13922304 
   64000   -85.593528    5.2727237   -80.320804     1315.857   -301.66829    9.6493555   0.11162288 
   64100    -86.50089    3.9153094    -82.58558    977.10167    30471.916     10.12836  0.081902733 
   64200   -84.865539    3.9899128   -80.875626    995.71965    2067.1731    9.6014126   0.15948224 
   64300   -84.470718    4.6608782    -79.80984    1163.1653   -30326.081    9.1123942   0.18709434 
   64400   -85.276508    5.2341339   -80.042374    1306.2265   -30190.219    9.2773902   0.11631948 
   64500   -85.563883    3.4407023    -82.12318    858.65909    20000.663    9.8667136   0.10826037 
   64600   -85.683212    5.6285584   -80.054653    1404.6588    4181.1787    9.7289669   0.10884194 
   64700   -84.560088    5.1525916   -79.407497    1285.8769    1188.6979    9.5427316   0.17379341 
   64800   -85.704425    4.4815785   -81.222846    1118.4194   -11169.482    9.5767408   0.13787017 
   64900   -85.546545    4.3207361   -81.225809    1078.2797     5720.304    9.7455319   0.10829635 
   65000   -84.719562    5.7130741   -79.006488    1425.7505    5971.3073    9.5878479   0.16516122 
   65100   -84.374193    3.9641163   -80.410077    989.28188   -11698.992    9.3643788   0.14253077 
   65200     -84.9585    4.0590863   -80.899414    1012.9825   -50268.024    9.0578193   0.19926848 
   65300   -84.416878    5.4643478    -78.95253    1363.6785   -12796.262    9.3740184   0.15221817 
   65400   -84.768073    5.9558469   -78.812226    1486.3367    30065.899     9.882067   0.12627062 
   65500   -85.811645    4.5768983   -81.234747    1142.2073     28811.78    10.001288   0.10935622 
   65600   -84.199446    4.1228391   -80.076607    1028.8926   -19215.686    9.2994795    0.1961383 
   65700   -83.882237    4.8210214   -79.061215    1203.1305   -22842.713    9.1706359    0.1901113 
   65800   -85.714606    4.5524806   -81.162126    1136.1136   -1200.4417    9.6656739   0.10924339 
   65900   -86.671875    6.0362734   -80.635602    1506.4079    9407.9613    9.8778972  0.082954782 
   66000   -84.222046    5.4093394   -78.812707    1349.9507    22988.074     9.723702   0.17030688 
   66100   -85.670448    4.5787955   -81.091653    1142.6808   -16433.534    9.4946583   0.11756287 
   66200   -85.247186    4.3381077   -80.909079    1082.6149   -18080.151    9.4015722   0.11319936 
   66300   -83.895343     4.963386   -78.931957    1238.6589    1160.3533    9.4681713   0.19059313 
   66400   -85.714566    4.8147848   -80.899781    1201.5741    17518.141     9.881452  0.092087578 
   66500   -85.468238    4.5535342   -80.914704    1136.3766    26957.918    9.9551056   0.10550017 
   66600   -83.526289    4.8159911   -78.710298    1201.8751   -4976.3488    9.3338724   0.20150283 
   66700   -85.129921    5.1047219   -80.025199    1273.9305   -11742.334    9.4584484   0.14244004 
   66800   -85.894065    4.7309565   -81.163109     1180.654   -6231.9499    9.6344287   0.12427153 
   66900   -84.241336    5.1374326   -79.103903    1282.0938    13174.298    9.5919375   0.24798242 
   67000   -83.234013    6.1591703   -77.074842    1537.0779   -289.62312    9.2991224   0.21660627 
   67100   -86.193723    6.3105189   -79.883204    1574.8484    -3526.933    9.7049472   0.11003793 
   67200    -85.41204    4.9669068   -80.445134    1239.5375   -2525.4367    9.6226114   0.12540733 
   67300   -85.154663    5.3597359   -79.794927    1337.5717   -28924.148    9.2658054   0.11884058 
   67400   -83.638163    6.5888096   -77.049354    1644.2984     6038.952    9.4375049   0.20424959 
   67500   -85.322321     5.705738   -79.616583    1423.9197    6892.3057    9.6638416    0.1288277 
   67600   -85.633823    5.0484955   -80.585328    1259.8987   -12173.978    9.5215006   0.14371578 
   67700   -83.877817     3.595463   -80.282354    897.28103    -15109.45    9.2306301   0.18716012 
   67800   -82.218523    4.6373734   -77.581149    1157.2994   -7870.1191    9.0519111   0.28465268 
   67900   -85.038964    5.6805935    -79.35837    1417.6446     20794.67    9.8119568   0.14832088 
   68000   -85.093699    4.1477497   -80.945949    1035.1093     12058.03    9.6933139   0.14334858 
   68100   -83.747215    3.9803378   -79.766877     993.3301   -16779.021    9.2011841   0.18780798 
   68200   -83.549435    5.5051405   -78.044295    1373.8587   -7962.4755    9.3164499   0.20953867 
   68300   -85.420631    4.7129748   -80.707656    1176.1664    37194.139    10.053626  0.094250767 
   68400   -85.634528    4.7746596   -80.859869    1191.5605   -4340.8677    9.5961232   0.11197762 
   68500   -83.583571    4.9748737   -78.608697    1241.5257    -19604.92    9.1474866   0.19754996 
   68600   -85.217869    5.6392886   -79.578581    1407.3366   -24027.262    9.3253019   0.16302385 
   68700   -85.923908     4.967834   -80.956074    1239.7689    8314.9742    9.7993724   0.10684234 
   68800   -85.249876    5.6815503   -79.568326    1417.8834    23003.047    9.8176802   0.11627475 
   68900   -84.307389    6.2224797    -78.08491    1552.8773    5048.3702     9.526435   0.17753025 
   69000   -85.775589    5.0905383    -80.68505    1270.3909   -21031.028    9.4347186   0.11641418 
   69100   -85.563209    4.9721418   -80.591067     1240.844   -9942.3473    9.5506495   0.12364914 
   69200   -84.163856    6.0864399   -78.077416    1518.9274    3700.3638    9.4527075   0.15527131 
   69300   -85.261009    5.0179788    -80.24303     1252.283    10777.918    9.7593904   0.12885939 
   69400   -85.528079    4.3957944   -81.132285    1097.0111    9598.0452    9.7950902   0.10283958 
   69500    -84.84104     5.359152   -79.481888    1337.4259     6563.795    9.5914383   0.14329459 
   69600   -84.938845    6.2201244    -78.71872    1552.2896   -18954.204    9.3223941   0.13055587 
   69700   -86.377964    4.8232848   -81.554679    1203.6953   -3150.8213    9.7481005  0.086222652 
   69800   -85.181452    4.5991814   -80.582271    1147.7683    1415.4622    9.6307497   0.11705196 
   69900   -84.295724    5.3724496   -78.923274    1340.7445    490.55533    9.4566865   0.13516176 
   70000   -85.517747    4.2292891   -81.288458    1055.4582     5208.419    9.7317362   0.12474402 
   70100   -85.581902    4.4756696   -81.106232    1116.9447    4586.3812    9.7414738   0.12679697 
   70200   -84.957738     5.672303   -79.285435    1415.5757   -6368.8654    9.4864695    0.1678789 
   70300   -84.328711    3.6639303   -80.664781    914.36768    4721.2036     9.574717   0.14866991 
   70400   -86.644425    4.7724289   -81.871996    1191.0038   -8181.8373    9.7115442  0.092921233 
   70500   -84.856821     5.327583   -79.529238    1329.5476   -7845.6847    9.4540385   0.16616722 
   70600   -84.392851    4.2847259   -80.108125     1069.293   -5328.8181    9.4423249   0.15435725 
   70700   -86.555934    4.7159158   -81.840018    1176.9004   -9835.2563    9.6869992  0.094181883 
   70800   -84.862875    5.5018112   -79.361063    1373.0279    15268.878    9.7038227   0.14451971 
   70900   -82.964922    4.7628146   -78.202107    1188.6044    4348.3994    9.3148679   0.31690633 
   71000   -85.306698    6.4809294   -78.825768    1617.3759   -13814.427    9.4475321   0.13483521 
   71100   -85.468778    4.8342719   -80.634506    1206.4372     5672.037    9.7113018   0.12077637 
   71200   -85.494826    5.3407825   -80.154043    1332.8417    7381.6848    9.7133029   0.11712202 
   71300   -83.570693    5.6504661   -77.920227    1410.1261    9761.8725    9.4767134   0.18231692 
   71400   -83.973752    7.6911687   -76.282583    1919.4023    6663.2865    9.4227743   0.16268837 
   71500   -84.958335    5.3448605   -79.613474    1333.8594   -17520.307    9.3980732   0.11711872 
   71600   -85.583391    5.4769282   -80.106463    1366.8181   -13149.326    9.4797227    0.1158097 
   71700   -85.045312    4.0989335   -80.946378    1022.9268    14987.348    9.7492703   0.13688687 
   71800   -83.818363    5.7550066   -78.063357    1436.2151    5836.0814    9.4532499   0.19067728 
   71900   -84.528914    4.7729536    -79.75596    1191.1347    9995.0632    9.5937308   0.16252993 
   72000   -84.139366    4.7306561    -79.40871     1180.579   -31553.806    9.1407864   0.19759821 
   72100    -84.45493     4.048137   -80.406793      1010.25   -11047.216    9.3755303   0.17542148 
   72200   -86.572458    4.4436957   -82.128762    1108.9654   -350.88982    9.7946973  0.096398719 
   72300   -85.116381    5.5101695   -79.606212    1375.1137   -9038.9741    9.5079359   0.12876345 
   72400   -84.880553    5.1364595   -79.744094     1281.851    5005.4222     9.633052   0.15509178 
   72500   -84.966954    4.4680861   -80.498868    1115.0522    32920.733    9.9333242   0.13519213 
   72600   -86.058731    4.1552221   -81.903509    1036.9741   -33888.311      9.37751   0.12574261 
   72700   -86.858929    3.1827455   -83.676183    794.28357    -24881.89     9.583101  0.087137243 
   72800   -85.701792    4.4330253   -81.268767    1106.3025     7839.034    9.7414347   0.12200529 
   72900   -85.933359    5.4371549   -80.496204    1356.8923   -4670.2332    9.6497736    0.1196436 
   73000   -85.476643    5.8003387   -79.676305    1447.5282    13433.904    9.7913312   0.13949542 
   73100   -83.241992    5.4030867   -77.838905    1348.3903    27626.741    9.6383942   0.19890141 
   73200   -82.794387    5.9371788   -76.857208    1481.6779    21520.743    9.4811936   0.23588825 
   73300   -85.553968    5.4443285    -80.10964    1358.6825     -31232.6    9.3348094   0.12692618 
   73400   -84.625241    4.1699126   -80.455328    1040.6403    -9024.326    9.4417982   0.15008589 
   73500   -86.015483    4.9171027    -81.09838    1227.1084    -22680.06    9.4635879   0.10042022 
   73600   -87.125678    3.8144945   -83.311184    951.94238    20001.411    10.102395  0.067831962 
   73700   -86.002622    4.9260952   -81.076527    1229.3526    8140.4691    9.7885731   0.11589386 
   73800   -84.900607    4.4508753   -80.449732    1110.7571   -12129.187    9.4231647   0.17199515 
   73900   -84.047199    4.1918897    -79.85531    1046.1248   -10757.325    9.3181345   0.20305857 
   74000   -84.334515    4.3506524   -79.983863    1085.7456   -8563.9345    9.4105614   0.18658299 
   74100   -86.887594    4.3947921   -82.492802     1096.761    43802.031    10.331401  0.074080155 
   74200   -86.181211    4.5196282   -81.661583     1127.915    2686.1065    9.7738634   0.11086346 
   74300   -84.321809     3.798776   -80.523033    948.01967   -8943.2438    9.4179198   0.13519966 
   74400   -84.172012    4.5464995   -79.625513     1134.621    2454.1093    9.4620056   0.17644822 
   74500   -83.123991    6.0926035   -77.031388    1520.4655    20542.418    9.5536451   0.19070988 
   74600   -84.628599    5.4120046   -79.216595    1350.6158    30579.619    9.8458664   0.13794686 
   74700   -86.216263    5.5596441   -80.656619    1387.4606    1595.9575    9.7272974  0.093367932 
   74800   -85.251518    5.0235737   -80.227945    1253.6793   -14385.921    9.4443724   0.13306069 
   74900    -82.45803      4.94178    -77.51625    1233.2669    -5976.552    9.1660461   0.23717608 
   75000   -85.184369    4.8757841   -80.308584     1216.797   -1070.6475    9.5635408   0.13779702 
   75100   -85.189035    4.6703847    -80.51865    1165.5377     20384.84    9.8247344   0.15340272 
   75200   -84.221999    4.7798212   -79.442177    1192.8486   -13522.596    9.3442867   0.18782575 
   75300   -82.432347    5.0937443   -77.338602     1271.191   -22945.409      8.92503   0.25131145 
   75400   -85.400448    4.8590148   -80.541433    1212.6121   -26362.955    9.3412695   0.13337095 
   75500   -86.185863    5.7558855   -80.429977    1436.4345   -1895.8322    9.6833577  0.087627426 
   75600   -85.943484    6.0269417   -79.916542     1504.079    20784.726    9.8733515   0.12826545 
   75700    -83.74744     6.304321   -77.443119    1573.3016    11611.087    9.5268176   0.19571108 
   75800   -86.175088    6.0295128   -80.145575    1504.7207   -7299.5967    9.6226173   0.13110827 
   75900   -84.823366    4.2262512   -80.597114    1054.7001   -19456.341    9.3291675   0.14163921 
   76000    -83.69054    4.1779805   -79.512559    1042.6537   -34025.765    9.0011489    0.2029926 
   76100    -83.82987     5.819922   -78.009948    1452.4154   -2104.9528    9.3622403   0.19727996 
   76200   -85.363559    4.7026536   -80.660906    1173.5907    15260.989    9.7871969   0.13341384 
   76300   -84.420488    4.3131362   -80.107352     1076.383    4922.6969    9.5695197   0.16303837 
   76400   -83.963897     5.176092   -78.787805    1291.7416    1236.7912    9.4699589   0.17708133 
   76500    -84.34957    5.1916631   -79.157907    1295.6275   -13015.942    9.3471798   0.19905491 
   76600   -85.125331    4.1219838   -81.003347    1028.6792   -2134.1699     9.584095   0.15841203 
   76700   -84.855436    4.6307385   -80.224698    1155.6436    4087.9179    9.5976465   0.17098757 
   76800   -84.241515    5.8588547   -78.382661    1462.1314   -27009.683    9.1712075   0.15214364 
   76900   -83.363617    4.5416563   -78.821961    1133.4123   -3551.9995    9.2718695   0.21431094 
   77000   -85.622018    4.8627992   -80.759218    1213.5565    8587.9331    9.7252871   0.11349899 
   77100   -84.790614    4.8327497   -79.957864    1206.0574    20485.319    9.7970667   0.15154418 
   77200   -84.016492    6.1061535   -77.910339    1523.8471   -5424.3248    9.3372685   0.16900026 
   77300   -85.094666    4.5793196   -80.515346    1142.8116   -23946.841    9.3742627   0.12752928 
   77400   -85.978677    5.1864708   -80.792206    1294.3317   -11340.241    9.5975509   0.10782008 
   77500   -84.897844    6.0703599   -78.827484    1514.9144    24219.306    9.8260305   0.11694804 
   77600   -84.119069    4.9002314   -79.218838    1222.8981    51100.117    10.026513   0.12479862 
   77700   -85.767742     4.466761   -81.300981    1114.7215    291.80784    9.6753769   0.12221916 
   77800   -84.283783    4.6525566   -79.631227    1161.0885   -14865.931    9.3291387   0.15572488 
   77900   -84.343289    5.7705597   -78.572729    1440.0965    13737.383    9.5697188   0.15664703 
   78000   -85.689298    4.4463224   -81.242976    1109.6209      11481.6    9.8031894    0.1303748 
[...]
  481400   -80.990817     3.993503   -76.997314    996.61561    24094.856    9.2702828    726.33169 
  481500   -81.346098    5.4791022   -75.866996    1367.3606   -5944.2729    8.8332449     750.7307 
  481600   -80.590432    5.5980481   -74.992384    1397.0447    2225.6537    8.7864917    751.95494 
  481700   -81.708656    4.4793206   -77.229335    1117.8559    13946.624    9.1878075    736.44028 
  481800   -80.737362    4.4273925    -76.30997    1104.8967   -887.75067    8.8703525    762.25863 
  481900   -80.434839    5.9146196    -74.52022     1476.048    828.10841    8.7277942    773.76307 
  482000   -82.047826    4.8769141   -77.170912     1217.079   -5743.9526    8.9465288    756.76152 
  482100   -82.824963    5.2427579   -77.582205    1308.3787      8788.27    9.2237547     738.2748 
  482200   -81.575204    6.3613886   -75.213815    1587.5434    23273.286    9.2165862    742.79099 
  482300    -81.02987    5.8423008   -75.187569    1458.0002    16004.264    9.0987521    752.45225 
  482400   -82.403228    4.9869843   -77.416243     1244.548   -748.08158    9.1499326    750.99639 
  482500   -81.966396    3.9574028   -78.008993    987.60647    8361.7545    9.1349008    749.19665 
  482600   -80.672891    4.7586933   -75.914197    1187.5759   -16202.397    8.6688799    778.69813 
  482700   -79.723762    4.2442054   -75.479557    1059.1807   -10663.764    8.5145699    780.95238 
  482800   -79.957481     3.686543   -76.270938     920.0109    5277.5931     8.830242    762.28761 
  482900   -79.221709    5.4789863   -73.742722    1367.3317     32184.64    8.9930591    747.51932 
  483000   -81.360999    6.2759933   -75.085006    1566.2322   -21800.983    8.5950849    771.51082 
  483100   -82.325049    5.3737955   -76.951253    1341.0804   -1048.8921    9.0211027    734.76465 
  483200   -80.499286    4.7774321   -75.721854    1192.2524    21106.629    9.0865064    738.36913 
  483300   -80.969441    6.4995328   -74.469909    1622.0185    2152.7805    8.8349112    748.48077 
  483400   -81.939841    4.8311578   -77.108683    1205.6601   -3849.0011    9.0214189     735.9911 
  483500   -81.360415    4.8009116   -76.559503    1198.1119    5111.2798    8.9892463    734.70048 
  483600   -79.772117    5.5391186   -74.232998    1382.3383   -13907.081    8.5244715    757.14692 
  483700   -82.039057    5.0175666   -77.021491    1252.1801    8981.0935    9.2138945    707.16495 
  483800    -82.18782    4.8704263   -77.317393    1215.4599   -1772.3016    9.0865472    718.69119 
  483900   -81.239894    5.3133845    -75.92651    1326.0042    11136.349    8.9300152    728.10448 
  484000   -81.276937    5.0511035   -76.225833    1260.5496   -4987.7181    8.7669954    740.39558 
  484100   -81.694821     3.808722   -77.886099    950.50179   -21257.146    8.8068724     734.1725 
  484200   -79.838552    3.8248361   -76.013716    954.52323   -12055.497    8.6628075    745.52299 
  484300   -81.833556    5.9750087   -75.858547    1491.1187   -5433.7428    8.8410821    733.12646 
  484400   -82.091338    4.7208988   -77.370439     1178.144   -20930.328    8.8393766    735.29288 
  484500    -80.81406    4.5518398    -76.26222    1135.9537   -9810.5694    8.6080922    746.56029 
  484600   -80.683797    5.0297837   -75.654013     1255.229    30.007865    8.8676414    732.76583 
  484700   -81.202764     4.245265   -76.957499    1059.4451     15902.77    9.0648057    722.14152 
  484800   -82.136928    5.3431237   -76.793804    1333.4259   -26642.908    8.7124594    742.28677 
  484900   -79.978349    5.9023365   -74.076012    1472.9827    10567.279    8.7757105    745.18981 
  485000   -79.986375    4.8779204   -75.108454    1217.3301    5653.7276    8.8484151        740.7 
  485100    -80.97359    3.8491332   -77.124457    960.58678   -2816.1649    8.8578898    740.43448 
  485200   -78.662797    3.6349156   -75.027882    907.12679   -21470.014    8.2811518     769.9187 
  485300   -79.637039     4.407909    -75.22913    1100.0345   -20424.209    8.3015089    775.78028 
  485400    -80.55601    4.0608293   -76.495181    1013.4175    7475.7652     8.961287    731.74673 
  485500    -81.88913     5.117929   -76.771201    1277.2265   -1846.3672    8.8874828     740.3822 
  485600   -80.390082    4.9162856   -75.473796    1226.9045   -5347.1049    8.7255006    756.80883 
  485700   -82.078518    4.1633831   -77.915135    1039.0108   -17629.388    8.8824443    741.07352 
  485800   -82.039237    5.2550817   -76.784156    1311.4542   -3387.6209    8.9238001    742.06517 
  485900   -80.790599    4.5593732   -76.231226    1137.8338    19273.879    8.9781279    747.76996 
  486000    -82.01753    4.0934843   -77.924046    1021.5669   -30295.435    8.7378865     757.0434 
  486100    -81.91644    4.3086905    -77.60775    1075.2735   -6725.3823    8.8089309    753.82419 
  486200   -80.985491    5.1837904   -75.801701    1293.6628   -12123.835    8.6950234    758.30336 
  486300   -82.171386    5.0871654    -77.08422    1269.5492   -752.55733    9.0217929    745.46143 
  486400   -82.371095    5.0331879   -77.337907    1256.0786    6308.1715    9.1222653    733.65773 
  486500   -80.145532    5.4051213   -74.740411     1348.898    11783.887    8.8599424    749.41597 
  486600   -81.792327    5.1940947   -76.598232    1296.2344    6388.0153    9.1293354    738.47735 
  486700   -82.146257    4.8714356   -77.274821    1215.7118    20338.433    9.2605612    737.44697 
  486800    -79.24165    4.5086027   -74.733047    1125.1635    13280.846    8.7817536    778.93526 
  486900   -80.634037    5.7191485   -74.914888    1427.2664   -14157.971    8.6527454    776.98966 
  487000   -81.731839    4.9073231   -76.824516    1224.6679   -5143.6979    8.8278612    762.55806 
  487100   -81.559361    6.1303163   -75.429044    1529.8771    19247.936    9.1163588     756.4927 
  487200    -81.10659     6.310347   -74.796243    1574.8054    26876.641    9.1338317    751.17473 
  487300   -79.991271    6.5717404   -73.419531    1640.0386    11821.303    8.8516126    767.12383 
  487400   -80.568693    4.5940552   -75.974637     1146.489    16923.671    8.9248756    770.85495 
  487500   -81.578319    5.6717072   -75.906612     1415.427   -13553.253     8.822443    768.31632 
  487600   -81.689356    3.6257209   -78.063636    904.83217    4360.2036      9.03745    769.93951 
  487700   -81.214408    4.5287332   -76.685675    1130.1872   -4234.3738    8.8714468    782.99893 
  487800   -79.839787    4.8303481   -75.009439     1205.458   -6408.7041    8.7222483    788.64185 
  487900   -80.045807    4.8108992   -75.234908    1200.6044    12546.998    8.7844668    775.05934 
  488000   -82.643473    4.7249731     -77.9185    1179.1607   -630.03835    9.1992989     757.2711 
  488100   -82.059387    5.1410376   -76.918349    1282.9935    11474.556    9.2689723    750.38281 
  488200   -80.836335    5.9701772   -74.866158    1489.9129    19635.807     9.079198    757.33844 
  488300   -80.955196    4.9202595   -76.034937    1227.8963    27084.836    9.2257026    756.40981 
  488400   -81.997332    5.2218602   -76.775472    1303.1635      32113.9    9.4078162    744.21438 
  488500   -80.591124    6.2367168   -74.354407    1556.4304   -6597.8207    8.7344197    780.11283 
  488600   -80.788436    5.2773503   -75.511086    1317.0116   -6149.2961    8.8036649    774.29266 
  488700   -81.340269    4.5738117   -76.766458     1141.437    9593.4226      9.06594    756.10582 
  488800   -82.670119    6.2130814   -76.457038    1550.5319     19300.27    9.3558221    734.57559 
  488900   -79.812109    6.1582694    -73.65384    1536.8531    3612.2606    8.7926837    768.90019 
  489000   -79.204801    3.5650265   -75.639774    889.68532    29245.953    9.0007268    761.83304 
  489100   -83.443787    6.4421199   -77.001667    1607.6906   -14414.815    9.0726665    764.87587 
  489200   -82.362484    3.8490235   -78.513461    960.55941      19865.5    9.3470548    749.88666 
  489300   -80.817183    4.6707682   -76.146414    1165.6334   -14040.082    8.7224194    790.91473 
  489400   -80.266178     4.374522   -75.891656    1091.7024   -6734.7667    8.6816609    799.17309 
  489500   -81.882385    4.4703712   -77.412013    1115.6225   -10301.545    8.8722334    787.38437 
  489600   -82.699209    3.3617434   -79.337465    838.95415   -10510.959     9.094512    776.49294 
  489700   -82.641236    4.5867624   -78.054474     1144.669    5379.1583    9.1464482    770.59543 
  489800   -81.564889    4.7806587    -76.78423    1193.0576   -17928.159    8.6394885    803.66893 
  489900   -80.867408    4.8073596   -76.060048     1199.721   -1343.6637    8.8525406    789.95151 
  490000   -82.334879    4.4526042   -77.882275    1111.1885   -24352.785    8.8260444    787.85144 
  490100   -81.943536    4.7381936   -77.205343      1182.46    4041.3063    9.0596152    773.55994 
  490200   -81.143129    5.4539723   -75.689157    1361.0892   -3571.9823    8.9163995     787.3735 
  490300   -82.692114    5.5429478   -77.149166    1383.2939    3319.4468    9.1642602    781.97285 
  490400    -80.82799    4.5427872   -76.285202    1133.6946    10286.934     9.125746    783.80394 
  490500   -79.722081    4.9809989   -74.741083    1243.0543    -16656.71    8.4776281    825.85881 
  490600   -81.637652    4.5576225    -77.08003    1137.3969   -12859.924    8.8507594     798.9474 
  490700    -82.22167     4.995612   -77.226058    1246.7012   -2821.3739     9.027415    785.64763 
  490800   -80.422315    5.4776236   -74.944692    1366.9916   -1266.3458    8.7450392    802.42756 
  490900   -79.729455    4.9797559   -74.749699    1242.7441   -29730.032    8.4043531    820.73791 
  491000   -81.474603    4.3783031     -77.0963     1092.646   -27913.355    8.6210494    796.29401 
  491100   -80.900072    4.7918435   -76.108228    1195.8489    20046.612    8.9430843    788.84462 
  491200   -79.356373    5.0777452   -74.278627    1267.1983   -4640.2728    8.4662176    806.08146 
  491300    -80.62738    4.5679761   -76.059404    1139.9807    13162.203    9.0051951    763.09451 
  491400   -82.250924     4.322776   -77.928148    1078.7887   -12593.609    8.9287685    773.01988 
  491500   -80.696603    4.9790822   -75.717521     1242.576   -12575.222    8.7435081    786.24769 
  491600   -81.560761    5.8190917   -75.741669    1452.2082    -13159.55    8.7923803    773.20629 
  491700   -81.017373    4.1820764   -76.835297    1043.6758    7002.1951    8.8161809    770.56823 
  491800   -80.545897    5.6449609   -74.900936    1408.7522   -18735.034    8.5289294    791.16912 
  491900   -80.996125    4.4126213   -76.583504    1101.2105    25396.108    9.1774704    754.12741 
  492000   -82.701002    4.5868857   -78.114117    1144.6998    16963.212    9.3296553    744.43955 
  492100   -80.609459    4.4620099   -76.147449    1113.5358    6575.7509    8.9268325    769.36044 
  492200   -80.483585     5.040496   -75.443089    1257.9024     22179.83    9.0461091    769.15423 
  492300   -81.055973    3.6327569   -77.423216    906.58809    2172.9298     8.978535     765.5696 
  492400   -81.398764    6.0481743    -75.35059    1509.3778    -18662.79    8.7365714    787.35233 
  492500   -80.689258    5.3939744   -75.295283    1346.1162    8019.2174    9.0144132    762.09849 
  492600   -81.867399    4.0633329   -77.804066    1014.0423    7194.6064    9.1429508    758.15249 
  492700    -81.53416    5.1498611   -76.384299    1285.1955   -14954.135    8.7992742    779.89615 
  492800   -78.863622    4.5957154   -74.267906    1146.9033    3827.3257    8.6915812      784.222 
  492900   -81.586594    4.7934388   -76.793155     1196.247   -1493.5745     8.943329    774.86374 
  493000   -81.494214    5.1796353   -76.314578    1292.6259    -6204.107     8.941826    778.42261 
  493100   -79.453679     5.153722   -74.299957     1286.159    21805.032    8.9512991    780.35424 
  493200   -80.078658    6.9031646   -73.175493    1722.7486    15180.328    8.9469804    778.41524 
  493300   -80.531014    5.0656953   -75.465318    1264.1911   -7630.1845    8.7056374    789.90395 
  493400   -79.857778    5.0955703   -74.762208    1271.6467    9141.3465    8.5973794    793.25239 
  493500   -81.357387    5.0753616   -76.282025    1266.6034    5397.1011    8.9742325    769.28186 
  493600   -82.894339    5.0603641   -77.833974    1262.8606    4577.2342    9.2158626    751.73713 
  493700   -82.036446    4.0803827   -77.956063    1018.2972   -151.25423    9.0924252    766.25315 
  493800   -80.624271    5.4589702   -75.165301    1362.3365   -7598.4688     8.707693    797.23423 
  493900   -82.132327    5.1575028   -76.974824    1287.1025   -2654.9354    8.9579064    770.85037 
  494000   -81.636423    3.8996676   -77.736755    973.19811   -18105.042    8.7927732    784.64688 
  494100   -79.555971     4.256478   -75.299493    1062.2435    7785.7322    8.6419204    792.20206 
  494200    -80.83185    4.9871495   -75.844701    1244.5893   -2724.4119     8.873271    776.67905 
  494300   -82.139487     4.531654   -77.607833    1130.9162   -6515.4266    9.0549237    768.47993 
  494400   -82.220377    4.9056458   -77.314731    1224.2493    -12736.81    8.9267752    772.81753 
  494500   -80.464012    5.1818902   -75.282122    1293.1886    6256.4465    8.8490261    768.93636 
  494600   -80.190564    4.0949305   -76.095634    1021.9278    10088.334    8.7568043    773.58977 
  494700   -78.936705    4.9627558   -73.973949    1238.5016   -8966.2096    8.5353187    800.30605 
  494800   -79.589942    5.6868297   -73.903113    1419.2009   -10525.234    8.5651047    807.62227 
  494900   -81.618013    5.2168584   -76.401154    1301.9153   -7822.3437    8.8114608    795.61356 
  495000   -80.288571    4.5171214    -75.77145    1127.2894   -5502.1554    8.8084629    807.55331 
  495100    -79.41521    5.8610495   -73.554161    1462.6791    166.27463    8.6442295    819.54481 
  495200   -79.728991     4.919051    -74.80994    1227.5947    8916.0801    8.7119911    818.62399 
  495300   -79.891372    4.7588303   -75.132542    1187.6101   -14159.936    8.6228987    830.91935 
  495400   -77.793185    3.6698465   -74.123339    915.84413   -1183.8058    8.3639941    851.71342 
  495500   -79.590184    5.1493253   -74.440859    1285.0617    9226.4186    8.6223116    833.50135 
  495600   -80.764047    4.3679724   -76.396075    1090.0679    3309.7759    8.9338799    819.88256 
  495700   -80.086016    4.0823731   -76.003643     1018.794   -1920.9345    8.8437486      833.718 
  495800   -79.902943    5.6627364   -74.240207    1413.1882     9024.127    8.7711441    837.48829 
  495900   -81.571915    4.7656458   -76.806269     1189.311    10109.239    9.1261971    823.44434 
  496000   -82.317346    5.4131347   -76.904211    1350.8978    3299.1836     9.191826    821.34925 
  496100    -80.52497    5.4544493    -75.07052    1361.2083    14564.241    8.9102793    840.64224 
  496200   -80.697626    4.5202138   -76.177412    1128.0611   -26928.057    8.6097772    855.32433 
  496300   -81.656419    3.7983617   -77.858057    947.91628     -12829.7    8.8015449    845.73331 
  496400   -81.357402    5.8294421    -75.52796    1454.7912   -614.36031    8.9144087    835.61754 
  496500   -80.078848     5.089166   -74.989682    1270.0484    6385.1824    8.7690056    855.50524 
  496600   -79.937042    4.0194459   -75.917596    1003.0899    -7299.209    8.5990421    863.07794 
  496700   -82.168841    5.0647578   -77.104084    1263.9572   -13755.147    8.8881919    848.35771 
  496800   -80.219344    4.9993198   -75.220024    1247.6265    10580.124     8.930949    842.97589 
  496900   -78.619967    5.6919892   -72.927978    1420.4885   -890.49546    8.4034414    874.36329 
  497000   -81.324293    6.0164769   -75.307816    1501.4675    4528.0296    8.9562549    843.75681 
  497100   -80.728624    4.1280869   -76.600537    1030.2023    8988.2252    9.0133799    848.97677 
  497200   -80.906962    4.0784291   -76.828533    1017.8097   -20798.151    8.6173544     874.8737 
  497300   -79.561555    5.3680484   -74.193507    1339.6461   -27557.919    8.2920211    902.59388 
  497400    -79.89458     4.103095   -75.791485    1023.9653   -33039.881    8.3871699    900.20241 
  497500   -82.204308    5.0892883   -77.115019     1270.079    14482.519     9.210841    840.23071 
  497600   -82.693638    6.0009203   -76.692717    1497.5851    16039.979    9.1931833    836.26507 
  497700   -79.356313    4.8572918   -74.499021    1212.1821    26784.478    8.9758859    847.00671 
  497800   -79.858382    3.9181001   -75.940282    977.79811    386.03844    8.7445482    864.66606 
  497900   -82.252337    4.5932462   -77.659091    1146.2871    3271.3027    9.0577665    843.95297 
  498000    -80.10764    4.5808662   -75.526774    1143.1975   -435.15821    8.8652447    860.49175 
  498100    -79.81107    4.2148203    -75.59625    1051.8474   -3160.3066    8.6586002    875.66758 
  498200   -81.415667    4.5970104   -76.818656    1147.2265   -24586.744    8.6482841    876.50069 
  498300   -81.574409    2.9032471   -78.671162    724.53216    5493.4631    9.1353126    848.67623 
  498400   -80.400294     4.615623   -75.784671    1151.8714    3438.1405    8.8128225     866.8839 
  498500   -80.342891     4.909409   -75.433482    1225.1884    7472.1521    8.9069118    871.82178 
  498600   -81.241385    4.3944627   -76.846922    1096.6788    25098.559    9.1471359    857.92386 
  498700   -82.200247    4.2119706   -77.988277    1051.1362   -12323.794     8.948224    876.11957 
  498800   -80.280435    4.6476079   -75.632827    1159.8535   -7518.3116     8.603152    901.15292 
  498900   -80.957495    4.3981013   -76.559393    1097.5868   -29331.713    8.6050773     907.6228 
  499000   -82.970283    5.4192251   -77.551058    1352.4177    11110.004    9.3184006     858.4705 
  499100   -80.550223    4.9328663   -75.617357    1231.0424    45652.366    9.3585684    853.58637 
  499200   -80.015876    5.8932803   -74.122595    1470.7226    8696.2122    8.8334515    881.28001 
  499300   -81.507671    5.1723414    -76.33533    1290.8056    16670.606    9.1367907    864.44528 
  499400   -82.460925    5.3262177   -77.134708    1329.2069    -4460.817    9.0739825      869.023 
  499500   -80.777858    5.9360851   -74.841773    1481.4049    3939.3193    8.7698324    890.55903 
  499600   -80.019527    4.3270442   -75.692483    1079.8539   -596.10652    8.8583459    874.71965 
  499700   -81.145054    4.6868209   -76.458233    1169.6395   -26695.978    8.4787719    899.42129 
  499800   -80.346301    6.0936669   -74.252634    1520.7309   -5500.0337    8.6370166     888.9839 
  499900   -81.810952    4.5683035   -77.242649    1140.0624    3086.5286    9.0654408     864.8641 
  500000   -82.709297     5.463441   -77.245856    1363.4522    21659.414     9.382524    842.97876 
Loop time of 43.7589 on 1 procs for 500000 steps with 32 atoms

Performance: 4936.137 ns/day, 0.005 hours/ns, 11426.243 timesteps/s
100.0% CPU use with 1 MPI tasks x no OpenMP threads

MPI task timing breakdown:
Section |  min time  |  avg time  |  max time  |%varavg| %total
---------------------------------------------------------------
Pair    | 25.731     | 25.731     | 25.731     |   0.0 | 58.80
Neigh   | 1.1116     | 1.1116     | 1.1116     |   0.0 |  2.54
Comm    | 1.4619     | 1.4619     | 1.4619     |   0.0 |  3.34
Output  | 0.077574   | 0.077574   | 0.077574   |   0.0 |  0.18
Modify  | 15.064     | 15.064     | 15.064     |   0.0 | 34.42
Other   |            | 0.3131     |            |       |  0.72

Nlocal:    32 ave 32 max 32 min
Histogram: 1 0 0 0 0 0 0 0 0 0
Nghost:    639 ave 639 max 639 min
Histogram: 1 0 0 0 0 0 0 0 0 0
Neighs:    1486 ave 1486 max 1486 min
Histogram: 1 0 0 0 0 0 0 0 0 0

Total # of neighbors = 1486
Ave neighs/atom = 46.4375
Neighbor list builds = 16005
Dangerous builds = 0
Total wall time: 0:00:43
